<event>
 7    1  0.6105960E-006  0.2057890E+03  0.7818608E-02  0.1289336E+00
          2   -1    0    0  502    0  0.00000000000E+00  0.00000000000E+00  0.33997673469E+03  0.33997673469E+03  0.00000000000E+00 0. -1.
          1   -1    0    0  501    0 -0.00000000000E+00 -0.00000000000E+00 -0.10127490949E+04  0.10127490949E+04  0.00000000000E+00 0. -1.
         25    2    1    2    0    0  0.22356871113E+03  0.87963842802E+02 -0.29800375005E+03  0.40268223659E+03  0.12500456946E+03 0.  0.
          2    1    1    2  501    0 -0.18010643035E+03 -0.77876771571E+02 -0.64601190780E+03  0.67515516944E+03  0.00000000000E+00 0. -1.
          1    1    1    2  502    0 -0.43462280784E+02 -0.10087071230E+02  0.27124329767E+03  0.27488842352E+03  0.00000000000E+00 0. -1.
         22    1    3    3    0    0  0.75023233081E+02 -0.30137890461E+02 -0.81988739906E+02  0.11514743338E+03  0.00000000000E+00 0. -1.
         22    1    3    3    0    0  0.14854547805E+03  0.11810173326E+03 -0.21601501014E+03  0.28753480321E+03  0.00000000000E+00 0. -1.
</event>
<event>
 7    1  0.6105960E-006  0.2299928E+02  0.7818608E-02  0.1699651E+00
          2   -1    0    0  502    0  0.00000000000E+00  0.00000000000E+00  0.12852621016E+04  0.12852621016E+04  0.00000000000E+00 0. -1.
          1   -1    0    0  501    0 -0.00000000000E+00 -0.00000000000E+00 -0.12824969910E+03  0.12824969910E+03  0.00000000000E+00 0. -1.
         25    2    1    2    0    0  0.79415240368E+01 -0.30144156046E+02  0.51577006665E+03  0.53161693729E+03  0.12500427356E+03 0.  0.
          2    1    1    2  501    0 -0.19496670033E+02  0.10240790907E+02 -0.11914303546E+03  0.12116128440E+03  0.00000000000E+00 0. -1.
          1    1    1    2  502    0  0.11555145996E+02  0.19903365139E+02  0.76038537125E+03  0.76073357896E+03  0.00000000000E+00 0. -1.
         22    1    3    3    0    0 -0.45513477574E+02  0.24758383270E+02  0.22873568207E+03  0.23453031027E+03  0.00000000000E+00 0.  1.
         22    1    3    3    0    0  0.53455001611E+02 -0.54902539316E+02  0.28703438458E+03  0.29708662702E+03  0.00000000000E+00 0.  1.
</event>
<event>
 7    1  0.6105960E-006  0.1574863E+03  0.7818608E-02  0.1285386E+00
          2   -1    0    0  502    0  0.00000000000E+00  0.00000000000E+00  0.19059744090E+04  0.19059744090E+04  0.00000000000E+00 0. -1.
          1   -1    0    0  501    0 -0.00000000000E+00 -0.00000000000E+00 -0.18850528307E+04  0.18850528307E+04  0.00000000000E+00 0. -1.
         25    2    1    2    0    0  0.10065231590E+03  0.87554201880E+01 -0.55133959612E+02  0.16991840272E+03  0.12499985601E+03 0.  0.
          2    1    1    2  501    0 -0.16102809524E+03 -0.47454379830E+01 -0.17683690987E+04  0.17756919316E+04  0.00000000000E+00 0. -1.
          1    1    1    2  502    0  0.60375779345E+02 -0.40099822051E+01  0.18444246366E+04  0.18454169054E+04  0.00000000000E+00 0. -1.
         22    1    3    3    0    0 -0.24032970199E+02 -0.20171736156E+02 -0.23478990166E+01  0.31464189580E+02  0.00000000000E+00 0.  1.
         22    1    3    3    0    0  0.12468528610E+03  0.28927156344E+02 -0.52786060595E+02  0.13845421314E+03  0.00000000000E+00 0.  1.
</event>
<event>
 7    1  0.6105960E-006  0.7253887E+02  0.7818608E-02  0.1397434E+00
          2   -1    0    0  502    0  0.00000000000E+00  0.00000000000E+00  0.91964767092E+03  0.91964767092E+03  0.00000000000E+00 0. -1.
          1   -1    0    0  501    0 -0.00000000000E+00 -0.00000000000E+00 -0.69456639715E+03  0.69456639715E+03  0.00000000000E+00 0. -1.
         25    2    1    2    0    0  0.21645061161E+02 -0.87649103881E+02 -0.51319454012E+03  0.53585739999E+03  0.12499457200E+03 0.  0.
          2    1    1    2  501    0  0.31638813196E+02  0.38439758953E+02 -0.16491100655E+03  0.17226221190E+03  0.00000000000E+00 0. -1.
          1    1    1    2  502    0 -0.53283874357E+02  0.49209344929E+02  0.90318682044E+03  0.90609445618E+03  0.00000000000E+00 0. -1.
         22    1    3    3    0    0  0.14821733142E+02 -0.78252471135E+02 -0.12979627914E+03  0.15228331192E+03  0.00000000000E+00 0.  1.
         22    1    3    3    0    0  0.68233280195E+01 -0.93966327466E+01 -0.38339826099E+03  0.38357408807E+03  0.00000000000E+00 0.  1.
</event>
<event>
 7    1  0.6105960E-006  0.4898476E+02  0.7818608E-02  0.1480108E+00
          2   -1    0    0  502    0  0.00000000000E+00  0.00000000000E+00  0.20533232975E+04  0.20533232975E+04  0.00000000000E+00 0. -1.
          1   -1    0    0  501    0 -0.00000000000E+00 -0.00000000000E+00 -0.17855189578E+03  0.17855189578E+03  0.00000000000E+00 0. -1.
         25    2    1    2    0    0  0.65927317131E+02 -0.12566438658E+02 -0.18223784246E+02  0.14304246456E+03  0.12499885531E+03 0.  0.
          2    1    1    2  501    0 -0.33245630522E+02  0.35075816445E+02 -0.91745261994E+02  0.10369560235E+03  0.00000000000E+00 0. -1.
          1    1    1    2  502    0 -0.32681686609E+02 -0.22509377787E+02  0.19847404480E+04  0.19851371264E+04  0.00000000000E+00 0. -1.
         22    1    3    3    0    0  0.95889314497E+02 -0.10595294137E+01 -0.40371614655E+02  0.10404686688E+03  0.00000000000E+00 0. -1.
         22    1    3    3    0    0 -0.29961997366E+02 -0.11506909244E+02  0.22147830409E+02  0.38995597679E+02  0.00000000000E+00 0. -1.
</event>
<event>
 7    1  0.6105960E-006  0.1160639E+03  0.7818608E-02  0.1298132E+00
          2   -1    0    0  502    0  0.00000000000E+00  0.00000000000E+00  0.18359793240E+04  0.18359793240E+04  0.00000000000E+00 0. -1.
          1   -1    0    0  501    0 -0.00000000000E+00 -0.00000000000E+00 -0.39010494658E+03  0.39010494658E+03  0.00000000000E+00 0. -1.
         25    2    1    2    0    0 -0.15656649560E+02 -0.10624390144E+03 -0.16869986998E+03  0.23583447912E+03  0.12500143255E+03 0.  0.
          2    1    1    2  501    0  0.87813088680E+02  0.95928402897E+02 -0.16449105464E+03  0.20969192660E+03  0.00000000000E+00 0. -1.
          1    1    1    2  502    0 -0.72156439120E+02  0.10315498540E+02  0.17790653020E+04  0.17805578649E+04  0.00000000000E+00 0. -1.
         22    1    3    3    0    0 -0.20513807539E+02  0.19711561660E+02 -0.44542876587E+01  0.28795878896E+02  0.00000000000E+00 0.  1.
         22    1    3    3    0    0  0.48571579790E+01 -0.12595546310E+03 -0.16424558233E+03  0.20703860022E+03  0.00000000000E+00 0.  1.
</event>
<event>
 7    1  0.6105960E-006  0.1067953E+03  0.7818608E-02  0.1340221E+00
          2   -1    0    0  502    0  0.00000000000E+00  0.00000000000E+00  0.14990924141E+04  0.14990924141E+04  0.00000000000E+00 0. -1.
          1   -1    0    0  501    0 -0.00000000000E+00 -0.00000000000E+00 -0.14161196346E+03  0.14161196346E+03  0.00000000000E+00 0. -1.
         25    2    1    2    0    0  0.14630061221E+03 -0.32458494193E+02  0.83921762001E+03  0.86160660903E+03  0.12498924760E+03 0.  0.
          2    1    1    2  501    0 -0.94245867499E+02  0.48112775990E+02 -0.10757971861E+03  0.15089903449E+03  0.00000000000E+00 0. -1.
          1    1    1    2  502    0 -0.52054744708E+02 -0.15654281797E+02  0.62584254930E+03  0.62819873408E+03  0.00000000000E+00 0. -1.
         22    1    3    3    0    0  0.12213220047E+03 -0.73692186277E+01  0.34303691652E+03  0.36420448360E+03  0.00000000000E+00 0.  1.
         22    1    3    3    0    0  0.24168411739E+02 -0.25089275565E+02  0.49618070349E+03  0.49740212543E+03  0.00000000000E+00 0.  1.
</event>
<event>
 7    1  0.6105960E-006  0.2906392E+02  0.7818608E-02  0.1665389E+00
          2   -1    0    0  502    0  0.00000000000E+00  0.00000000000E+00  0.11575599554E+04  0.11575599554E+04  0.00000000000E+00 0. -1.
          1   -1    0    0  501    0 -0.00000000000E+00 -0.00000000000E+00 -0.17392812023E+04  0.17392812023E+04  0.00000000000E+00 0. -1.
         25    2    1    2    0    0 -0.11295877283E+01 -0.97678167231E+01 -0.10960893945E+04  0.11032379214E+04  0.12500105690E+03 0.  0.
          2    1    1    2  501    0  0.12091365525E+02 -0.17153342012E+02 -0.63926227704E+03  0.63960667376E+03  0.00000000000E+00 0. -1.
          1    1    1    2  502    0 -0.10961777797E+02  0.26921158735E+02  0.11536304248E+04  0.11539965625E+04  0.00000000000E+00 0. -1.
         22    1    3    3    0    0  0.27250400830E+02  0.50995624332E+02 -0.45857383607E+03  0.46220460965E+03  0.00000000000E+00 0. -1.
         22    1    3    3    0    0 -0.28379988558E+02 -0.60763441055E+02 -0.63751555846E+03  0.64103331177E+03  0.00000000000E+00 0. -1.
</event>
<event>
 7    1  0.6105960E-006  0.1190734E+03  0.7818608E-02  0.1407253E+00
          2   -1    0    0  502    0  0.00000000000E+00  0.00000000000E+00  0.74080160594E+03  0.74080160594E+03  0.00000000000E+00 0. -1.
          1   -1    0    0  501    0 -0.00000000000E+00 -0.00000000000E+00 -0.23517194359E+03  0.23517194359E+03  0.00000000000E+00 0. -1.
         25    2    1    2    0    0  0.64642567474E+02  0.76778906182E+02 -0.11309184027E+03  0.19618365478E+03  0.12499840041E+03 0.  0.
          2    1    1    2  501    0  0.28051505432E+02 -0.96161552931E+00 -0.72775401096E+02  0.78000452986E+02  0.00000000000E+00 0. -1.
          1    1    1    2  502    0 -0.92694072907E+02 -0.75817290653E+02  0.69149690371E+03  0.70178944176E+03  0.00000000000E+00 0. -1.
         22    1    3    3    0    0  0.79563683365E+02  0.49392287100E+02 -0.17027554710E+02  0.95183587635E+02  0.00000000000E+00 0.  1.
         22    1    3    3    0    0 -0.14921115891E+02  0.27386619081E+02 -0.96064285556E+02  0.10100006715E+03  0.00000000000E+00 0.  1.
</event>
<event>
 7    1  0.6105960E-006  0.3790679E+02  0.7818608E-02  0.1570678E+00
          2   -1    0    0  502    0  0.00000000000E+00  0.00000000000E+00  0.18216085183E+04  0.18216085183E+04  0.00000000000E+00 0. -1.
          1   -1    0    0  501    0 -0.00000000000E+00 -0.00000000000E+00 -0.83458867903E+03  0.83458867903E+03  0.00000000000E+00 0. -1.
         25    2    1    2    0    0  0.21873565491E+02  0.30459955801E+01  0.31525610651E+03  0.33985130791E+03  0.12499907135E+03 0.  0.
          2    1    1    2  501    0  0.53278640117E+00  0.28088901850E+02 -0.82180479256E+03  0.82228485778E+03  0.00000000000E+00 0. -1.
          1    1    1    2  502    0 -0.22406351892E+02 -0.31134897430E+02  0.14935685253E+04  0.14940610316E+04  0.00000000000E+00 0. -1.
         22    1    3    3    0    0  0.15672627099E+02  0.44985026609E+02  0.28192875883E+03  0.28592500576E+03  0.00000000000E+00 0. -1.
         22    1    3    3    0    0  0.62009383919E+01 -0.41939031029E+02  0.33327347679E+02  0.53926302153E+02  0.00000000000E+00 0. -1.
</event>
<event>
 7    1  0.6105960E-006  0.5227618E+02  0.7818608E-02  0.1508076E+00
          2   -1    0    0  502    0  0.00000000000E+00  0.00000000000E+00  0.57018495519E+03  0.57018495519E+03  0.00000000000E+00 0. -1.
          1   -1    0    0  501    0 -0.00000000000E+00 -0.00000000000E+00 -0.68778330416E+03  0.68778330416E+03  0.00000000000E+00 0. -1.
         25    2    1    2    0    0  0.23626766326E+02  0.57806579491E+01 -0.46069849655E+03  0.47799054587E+03  0.12506085370E+03 0.  0.
          2    1    1    2  501    0  0.19928277659E+02  0.23267104846E+02 -0.21613606815E+03  0.21829634530E+03  0.00000000000E+00 0. -1.
          1    1    1    2  502    0 -0.43555043984E+02 -0.29047762795E+02  0.55923621572E+03  0.56168136817E+03  0.00000000000E+00 0. -1.
         22    1    3    3    0    0 -0.45402389118E+02 -0.14736575944E+02 -0.26919586713E+03  0.27339524225E+03  0.00000000000E+00 0. -1.
         22    1    3    3    0    0  0.69029155444E+02  0.20517233893E+02 -0.19150262942E+03  0.20459530362E+03  0.00000000000E+00 0. -1.
</event>
<event>
 7    1  0.6105960E-006  0.8060092E+02  0.7818608E-02  0.1389703E+00
          2   -1    0    0  502    0  0.00000000000E+00  0.00000000000E+00  0.35749745482E+03  0.35749745482E+03  0.00000000000E+00 0. -1.
          1   -1    0    0  501    0 -0.00000000000E+00 -0.00000000000E+00 -0.31127693135E+03  0.31127693135E+03  0.00000000000E+00 0. -1.
         25    2    1    2    0    0  0.34261538183E+02  0.11691774626E+03 -0.11235305047E+02  0.17491304719E+03  0.12499891844E+03 0.  0.
          2    1    1    2  501    0 -0.34243097196E+02 -0.69255707101E+02 -0.20918396273E+03  0.22299523074E+03  0.00000000000E+00 0. -1.
          1    1    1    2  502    0 -0.18440987012E-01 -0.47662039155E+02  0.26663979125E+03  0.27086610824E+03  0.00000000000E+00 0. -1.
         22    1    3    3    0    0 -0.11734018451E+02  0.49871503100E+02  0.51176087260E+02  0.72414404076E+02  0.00000000000E+00 0. -1.
         22    1    3    3    0    0  0.45995556634E+02  0.67046243156E+02 -0.62411392307E+02  0.10249864312E+03  0.00000000000E+00 0. -1.
</event>
<event>
 7    1  0.6105960E-006  0.5456398E+02  0.7818608E-02  0.1468130E+00
          2   -1    0    0  502    0  0.00000000000E+00  0.00000000000E+00  0.70597789458E+03  0.70597789458E+03  0.00000000000E+00 0. -1.
          1   -1    0    0  501    0 -0.00000000000E+00 -0.00000000000E+00 -0.11724822457E+04  0.11724822457E+04  0.00000000000E+00 0. -1.
         25    2    1    2    0    0  0.24858666186E+02 -0.13430401175E+02  0.41437882044E+03  0.43374042680E+03  0.12499048785E+03 0.  0.
          2    1    1    2  501    0 -0.52967896752E+02 -0.13311801102E+02 -0.11608215106E+04  0.11621055811E+04  0.00000000000E+00 0. -1.
          1    1    1    2  502    0  0.28109230565E+02  0.26742202277E+02  0.27993833898E+03  0.28261413244E+03  0.00000000000E+00 0. -1.
         22    1    3    3    0    0  0.38705990279E+02 -0.56267334850E+02  0.14087816002E+03  0.15655932621E+03  0.00000000000E+00 0.  1.
         22    1    3    3    0    0 -0.13847324092E+02  0.42836933675E+02  0.27350066043E+03  0.27718110059E+03  0.00000000000E+00 0.  1.
</event>
<event>
 7    1  0.6105960E-006  0.2868284E+02  0.7818608E-02  0.1646997E+00
          2   -1    0    0  502    0  0.00000000000E+00  0.00000000000E+00  0.37449244981E+03  0.37449244981E+03  0.00000000000E+00 0. -1.
          1   -1    0    0  501    0 -0.00000000000E+00 -0.00000000000E+00 -0.55388853127E+02  0.55388853127E+02  0.00000000000E+00 0. -1.
         25    2    1    2    0    0  0.32260897523E+02  0.71591034953E+01  0.13979988527E+03  0.19045114110E+03  0.12504243661E+03 0.  0.
          2    1    1    2  501    0 -0.24596580657E+02  0.15134079461E+02 -0.22278540776E+02  0.36474176074E+02  0.00000000000E+00 0. -1.
          1    1    1    2  502    0 -0.76643168656E+01 -0.22293182956E+02  0.20158225219E+03  0.20295598577E+03  0.00000000000E+00 0. -1.
         22    1    3    3    0    0  0.53834628594E+02 -0.29035515847E+02  0.13478890230E+03  0.14801782527E+03  0.00000000000E+00 0.  1.
         22    1    3    3    0    0 -0.21573731071E+02  0.36194619342E+02  0.50109829735E+01  0.42433315826E+02  0.00000000000E+00 0.  1.
</event>
<event>
 7    1  0.6105960E-006  0.2946243E+02  0.7818608E-02  0.1621615E+00
          2   -1    0    0  502    0  0.00000000000E+00  0.00000000000E+00  0.24312989649E+03  0.24312989649E+03  0.00000000000E+00 0. -1.
          1   -1    0    0  501    0 -0.00000000000E+00 -0.00000000000E+00 -0.10569015142E+03  0.10569015142E+03  0.00000000000E+00 0. -1.
         25    2    1    2    0    0  0.20706479698E+02 -0.43394322573E+02 -0.29667065680E+02  0.13717551999E+03  0.12500065186E+03 0.  0.
          2    1    1    2  501    0 -0.22470082761E+02  0.14165827071E+02 -0.12718662669E+02  0.29450630825E+02  0.00000000000E+00 0. -1.
          1    1    1    2  502    0  0.17636030631E+01  0.29228495502E+02  0.17982547342E+03  0.18219389709E+03  0.00000000000E+00 0. -1.
         22    1    3    3    0    0  0.60803147080E+02 -0.45739615264E+02 -0.51096260681E+02  0.91651311802E+02  0.00000000000E+00 0.  1.
         22    1    3    3    0    0 -0.40096667381E+02  0.23452926918E+01  0.21429195001E+02  0.45524208190E+02  0.00000000000E+00 0.  1.
</event>
<event>
 7    1  0.6105960E-006  0.6831935E+02  0.7818608E-02  0.1517541E+00
          2   -1    0    0  502    0  0.00000000000E+00  0.00000000000E+00  0.87203838236E+03  0.87203838236E+03  0.00000000000E+00 0. -1.
          1   -1    0    0  501    0 -0.00000000000E+00 -0.00000000000E+00 -0.66612174569E+02  0.66612174569E+02  0.00000000000E+00 0. -1.
         25    2    1    2    0    0  0.86061682429E+02 -0.13525533180E+02  0.38456993241E+03  0.41363952227E+03  0.12495626531E+03 0.  0.
          2    1    1    2  501    0 -0.21984566589E+02  0.47737940928E+00 -0.47378092878E+02  0.52232487438E+02  0.00000000000E+00 0. -1.
          1    1    1    2  502    0 -0.64077115839E+02  0.13048153771E+02  0.46823436826E+03  0.47277854722E+03  0.00000000000E+00 0. -1.
         22    1    3    3    0    0  0.10143847169E+01 -0.51068364150E+02  0.77605595392E+02  0.92906594112E+02  0.00000000000E+00 0.  1.
         22    1    3    3    0    0  0.85047297712E+02  0.37542830970E+02  0.30696433702E+03  0.32073292816E+03  0.00000000000E+00 0.  1.
</event>
<event>
 7    1  0.6105960E-006  0.8730633E+02  0.7818608E-02  0.1363013E+00
          2   -1    0    0  502    0  0.00000000000E+00  0.00000000000E+00  0.18838552467E+04  0.18838552467E+04  0.00000000000E+00 0. -1.
          1   -1    0    0  501    0 -0.00000000000E+00 -0.00000000000E+00 -0.43989761995E+03  0.43989761995E+03  0.00000000000E+00 0. -1.
         25    2    1    2    0    0 -0.85499866622E+02 -0.10617564083E+03  0.67719815535E+03  0.70200172299E+03  0.12500233424E+03 0.  0.
          2    1    1    2  501    0  0.37254884264E+02  0.40143270243E+02 -0.42433393642E+03  0.42785359428E+03  0.00000000000E+00 0. -1.
          1    1    1    2  502    0  0.48244982358E+02  0.66032370590E+02  0.11910934078E+04  0.11938975494E+04  0.00000000000E+00 0. -1.
         22    1    3    3    0    0 -0.11350706010E+03 -0.79734778771E+02  0.42998091267E+03  0.45180202844E+03  0.00000000000E+00 0. -1.
         22    1    3    3    0    0  0.28007193482E+02 -0.26440862062E+02  0.24721724268E+03  0.25019969455E+03  0.00000000000E+00 0. -1.
</event>
<event>
 7    1  0.6105960E-006  0.7845237E+02  0.7818608E-02  0.1340282E+00
          2   -1    0    0  502    0  0.00000000000E+00  0.00000000000E+00  0.33235209062E+03  0.33235209062E+03  0.00000000000E+00 0. -1.
          1   -1    0    0  501    0 -0.00000000000E+00 -0.00000000000E+00 -0.73951756770E+02  0.73951756770E+02  0.00000000000E+00 0. -1.
         25    2    1    2    0    0 -0.12069093472E+02 -0.29029243048E+02  0.96985204072E+02  0.16130323566E+03  0.12499697619E+03 0.  0.
          2    1    1    2  501    0 -0.72377339114E+02 -0.30270355531E+02  0.49441910756E+02  0.92732282299E+02  0.00000000000E+00 0. -1.
          1    1    1    2  502    0  0.84446432585E+02  0.59299598579E+02  0.11197321902E+03  0.15226832942E+03  0.00000000000E+00 0. -1.
         22    1    3    3    0    0 -0.47551637346E+02 -0.31648128054E+02  0.10956909106E+03  0.12356434736E+03  0.00000000000E+00 0.  1.
         22    1    3    3    0    0  0.35482543874E+02  0.26188850064E+01 -0.12583886988E+02  0.37738888301E+02  0.00000000000E+00 0.  1.
</event>
<event>
 7    1  0.6105960E-006  0.7315921E+02  0.7818608E-02  0.1370159E+00
          2   -1    0    0  502    0  0.00000000000E+00  0.00000000000E+00  0.10163601270E+04  0.10163601270E+04  0.00000000000E+00 0. -1.
          1   -1    0    0  501    0 -0.00000000000E+00 -0.00000000000E+00 -0.18663326923E+04  0.18663326923E+04  0.00000000000E+00 0. -1.
         25    2    1    2    0    0 -0.13092657753E+03  0.71972863501E+00  0.10719065448E+03  0.21037483445E+03  0.12500179138E+03 0.  0.
          2    1    1    2  501    0  0.71361989851E+02  0.14924908813E+02 -0.18129013302E+04  0.18143666993E+04  0.00000000000E+00 0. -1.
          1    1    1    2  502    0  0.59564587683E+02 -0.15644637448E+02  0.85573811038E+03  0.85795128553E+03  0.00000000000E+00 0. -1.
         22    1    3    3    0    0 -0.95934142898E+02  0.42287238110E+02  0.11484588331E+03  0.15550288484E+03  0.00000000000E+00 0.  1.
         22    1    3    3    0    0 -0.34992434636E+02 -0.41567509475E+02 -0.76552288269E+01  0.54871949611E+02  0.00000000000E+00 0.  1.
</event>
<event>
 7    1  0.6105960E-006  0.2092578E+03  0.7818608E-02  0.1233269E+00
          2   -1    0    0  502    0  0.00000000000E+00  0.00000000000E+00  0.12408714527E+04  0.12408714527E+04  0.00000000000E+00 0. -1.
          1   -1    0    0  501    0 -0.00000000000E+00 -0.00000000000E+00 -0.48411541324E+03  0.48411541324E+03  0.00000000000E+00 0. -1.
         25    2    1    2    0    0  0.13235452433E+03  0.65464130144E+02  0.17514149725E+02  0.19427544848E+03  0.12503172395E+03 0.  0.
          2    1    1    2  501    0  0.75875312377E+02 -0.52970566330E+01 -0.38159911877E+03  0.38910539612E+03  0.00000000000E+00 0. -1.
          1    1    1    2  502    0 -0.20822983670E+03 -0.60167073511E+02  0.11208410085E+04  0.11416060213E+04  0.00000000000E+00 0. -1.
         22    1    3    3    0    0  0.13814160808E+03  0.48900559583E+02 -0.24655822761E+02  0.14860107068E+03  0.00000000000E+00 0.  1.
         22    1    3    3    0    0 -0.57870837509E+01  0.16563570561E+02  0.42169972486E+02  0.45674377801E+02  0.00000000000E+00 0.  1.
</event>
<event>
 7    1  0.6105960E-006  0.1143572E+03  0.7818608E-02  0.1323870E+00
          2   -1    0    0  502    0  0.00000000000E+00  0.00000000000E+00  0.32266263458E+03  0.32266263458E+03  0.00000000000E+00 0. -1.
          1   -1    0    0  501    0 -0.00000000000E+00 -0.00000000000E+00 -0.45343098442E+03  0.45343098442E+03  0.00000000000E+00 0. -1.
         25    2    1    2    0    0 -0.96960814148E+01 -0.11938490895E+03  0.95209610146E+02  0.19757533064E+03  0.12499748371E+03 0.  0.
          2    1    1    2  501    0 -0.47041440004E+02  0.10477088822E+03 -0.38883587945E+03  0.40544195298E+03  0.00000000000E+00 0. -1.
          1    1    1    2  502    0  0.56737521419E+02  0.14614020729E+02  0.16285791946E+03  0.17307633538E+03  0.00000000000E+00 0. -1.
         22    1    3    3    0    0 -0.41197878766E+02 -0.22542936443E+02  0.82524868689E+02  0.94951583190E+02  0.00000000000E+00 0.  1.
         22    1    3    3    0    0  0.31501797351E+02 -0.96841972506E+02  0.12684741457E+02  0.10262374745E+03  0.00000000000E+00 0.  1.
</event>
<event>
 7    1  0.6105960E-006  0.5569613E+02  0.7818608E-02  0.1537203E+00
          2   -1    0    0  502    0  0.00000000000E+00  0.00000000000E+00  0.44617540371E+02  0.44617540371E+02  0.00000000000E+00 0. -1.
          1   -1    0    0  501    0 -0.00000000000E+00 -0.00000000000E+00 -0.51826244007E+03  0.51826244007E+03  0.00000000000E+00 0. -1.
         25    2    1    2    0    0 -0.48404765481E+02 -0.92733180397E+00 -0.27182079347E+03  0.30307665264E+03  0.12500012938E+03 0.  0.
          2    1    1    2  501    0  0.53011022635E+02  0.24156394825E+02 -0.22148874758E+03  0.22902175713E+03  0.00000000000E+00 0. -1.
          1    1    1    2  502    0 -0.46062571540E+01 -0.23229063021E+02  0.19664641354E+02  0.30781570678E+02  0.00000000000E+00 0. -1.
         22    1    3    3    0    0  0.53458602837E+01 -0.55295351098E+02 -0.14107294616E+03  0.15161705120E+03  0.00000000000E+00 0. -1.
         22    1    3    3    0    0 -0.53750625765E+02  0.54368019294E+02 -0.13074784731E+03  0.15145960144E+03  0.00000000000E+00 0. -1.
</event>
<event>
 7    1  0.6105960E-006  0.7336114E+02  0.7818608E-02  0.1427013E+00
          2   -1    0    0  502    0  0.00000000000E+00  0.00000000000E+00  0.59765232238E+03  0.59765232238E+03  0.00000000000E+00 0. -1.
          1   -1    0    0  501    0 -0.00000000000E+00 -0.00000000000E+00 -0.11502136655E+03  0.11502136655E+03  0.00000000000E+00 0. -1.
         25    2    1    2    0    0 -0.10270491524E+03  0.21636289256E+02  0.20283679167E+03  0.26035233538E+03  0.12499658337E+03 0.  0.
          2    1    1    2  501    0  0.64625470507E+02 -0.30553744311E+02 -0.70175747275E+02  0.10017294163E+03  0.00000000000E+00 0. -1.
          1    1    1    2  502    0  0.38079444736E+02  0.89174550544E+01  0.34996991142E+03  0.35214841192E+03  0.00000000000E+00 0. -1.
         22    1    3    3    0    0 -0.26802204891E+01  0.40878876431E+01 -0.17269726337E+02  0.17948199213E+02  0.00000000000E+00 0.  1.
         22    1    3    3    0    0 -0.10002469475E+03  0.17548401613E+02  0.22010651801E+03  0.24240413617E+03  0.00000000000E+00 0.  1.
</event>
<event>
 7    1  0.6105960E-006  0.9251759E+02  0.7818608E-02  0.1367310E+00
          2   -1    0    0  502    0  0.00000000000E+00  0.00000000000E+00  0.17319303197E+04  0.17319303197E+04  0.00000000000E+00 0. -1.
          1   -1    0    0  501    0 -0.00000000000E+00 -0.00000000000E+00 -0.45817016749E+03  0.45817016749E+03  0.00000000000E+00 0. -1.
         25    2    1    2    0    0  0.50547495304E+02 -0.14897271069E+02  0.42735432737E+03  0.44836050480E+03  0.12497376995E+03 0.  0.
          2    1    1    2  501    0  0.49259273119E+02  0.77378785531E+01 -0.44433612710E+03  0.44712520014E+03  0.00000000000E+00 0. -1.
          1    1    1    2  502    0 -0.99806768423E+02  0.71593925155E+01  0.12907419520E+04  0.12946147823E+04  0.00000000000E+00 0. -1.
         22    1    3    3    0    0 -0.10818350782E+02 -0.11292948603E+02 -0.94988936763E+00  0.15667472407E+02  0.00000000000E+00 0.  1.
         22    1    3    3    0    0  0.61365846086E+02 -0.36043224652E+01  0.42830421674E+03  0.43269303239E+03  0.00000000000E+00 0.  1.
</event>
<event>
 7    1  0.6105960E-006  0.1393202E+03  0.7818608E-02  0.1247351E+00
          2   -1    0    0  502    0  0.00000000000E+00  0.00000000000E+00  0.21837510606E+03  0.21837510606E+03  0.00000000000E+00 0. -1.
          1   -1    0    0  501    0 -0.00000000000E+00 -0.00000000000E+00 -0.32280594771E+04  0.32280594771E+04  0.00000000000E+00 0. -1.
         25    2    1    2    0    0 -0.18031974716E+03  0.11576748639E+03 -0.16376739240E+04  0.16563568417E+04  0.12499913519E+03 0.  0.
          2    1    1    2  501    0  0.86003142232E+02 -0.85591645154E+02 -0.15668374177E+04  0.15715285437E+04  0.00000000000E+00 0. -1.
          1    1    1    2  502    0  0.94316604924E+02 -0.30175841233E+02  0.19482697061E+03  0.21854919774E+03  0.00000000000E+00 0. -1.
         22    1    3    3    0    0  0.95412401334E+01 -0.14595978162E+02 -0.95187241713E+02  0.96771322337E+02  0.00000000000E+00 0. -1.
         22    1    3    3    0    0 -0.18986098729E+03  0.13036346455E+03 -0.15424866823E+04  0.15595855194E+04  0.00000000000E+00 0. -1.
</event>
<event>
 7    1  0.6374131E-006  0.1187518E+03  0.7818608E-02  0.1267270E+00
          2   -1    0    0  502    0  0.00000000000E+00  0.00000000000E+00  0.59002667518E+03  0.59002667518E+03  0.00000000000E+00 0. -1.
          1   -1    0    0  501    0 -0.00000000000E+00 -0.00000000000E+00 -0.15194993576E+04  0.15194993576E+04  0.00000000000E+00 0. -1.
         25    2    1    2    0    0 -0.10034158957E+03 -0.52238986357E+02 -0.42897806523E+03  0.46091664188E+03  0.12499849608E+03 0.  0.
          2    1    1    2  501    0  0.35298795227E+02  0.12208338551E+03 -0.10667874389E+04  0.10743303951E+04  0.00000000000E+00 0. -1.
          1    1    1    2  502    0  0.65042794339E+02 -0.69844399158E+02  0.56629282169E+03  0.57427899586E+03  0.00000000000E+00 0. -1.
         22    1    3    3    0    0 -0.38616853813E+02 -0.83412560278E+02 -0.30960266040E+03  0.32295932242E+03  0.00000000000E+00 0.  1.
         22    1    3    3    0    0 -0.61724735753E+02  0.31173573921E+02 -0.11937540483E+03  0.13795731946E+03  0.00000000000E+00 0.  1.
</event>
<event>
 7    1  0.6105960E-006  0.1273758E+03  0.7818608E-02  0.1303012E+00
          2   -1    0    0  502    0  0.00000000000E+00  0.00000000000E+00  0.31023079526E+04  0.31023079526E+04  0.00000000000E+00 0. -1.
          1   -1    0    0  501    0 -0.00000000000E+00 -0.00000000000E+00 -0.14821081052E+04  0.14821081052E+04  0.00000000000E+00 0. -1.
         25    2    1    2    0    0 -0.15831032607E+02 -0.17362091972E+03  0.31456425208E+03  0.38074985571E+03  0.12499975433E+03 0.  0.
          2    1    1    2  501    0 -0.24592630679E+02  0.12465273521E+03 -0.14458631213E+04  0.14514348994E+04  0.00000000000E+00 0. -1.
          1    1    1    2  502    0  0.40423663286E+02  0.48968184510E+02  0.27514987166E+04  0.27522313026E+04  0.00000000000E+00 0. -1.
         22    1    3    3    0    0 -0.23045238998E+02 -0.19194616573E+03  0.29690478470E+03  0.35429770640E+03  0.00000000000E+00 0. -1.
         22    1    3    3    0    0  0.72142063908E+01  0.18325246015E+02  0.17659467383E+02  0.26452149319E+02  0.00000000000E+00 0. -1.
</event>
<event>
 7    1  0.6105960E-006  0.4591154E+02  0.7818608E-02  0.1583055E+00
          2   -1    0    0  502    0  0.00000000000E+00  0.00000000000E+00  0.17269478284E+03  0.17269478284E+03  0.00000000000E+00 0. -1.
          1   -1    0    0  501    0 -0.00000000000E+00 -0.00000000000E+00 -0.88751356449E+03  0.88751356449E+03  0.00000000000E+00 0. -1.
         25    2    1    2    0    0 -0.50769803234E+02 -0.37393105099E+02 -0.42590859766E+03  0.44832969675E+03  0.12500226478E+03 0.  0.
          2    1    1    2  501    0  0.29768678731E+02  0.32871268943E+02 -0.44858169212E+03  0.45076848721E+03  0.00000000000E+00 0. -1.
          1    1    1    2  502    0  0.21001124503E+02  0.45218361562E+01  0.15967150813E+03  0.16111016337E+03  0.00000000000E+00 0. -1.
         22    1    3    3    0    0  0.87869645533E+00  0.90989571197E+00 -0.34490316871E+03  0.34490548822E+03  0.00000000000E+00 0. -1.
         22    1    3    3    0    0 -0.51648499690E+02 -0.38303000811E+02 -0.81005428947E+02  0.10342420853E+03  0.00000000000E+00 0. -1.
</event>
<event>
 7    1  0.6105960E-006  0.7938721E+02  0.7818608E-02  0.1340118E+00
          2   -1    0    0  502    0  0.00000000000E+00  0.00000000000E+00  0.25504807398E+04  0.25504807398E+04  0.00000000000E+00 0. -1.
          1   -1    0    0  501    0 -0.00000000000E+00 -0.00000000000E+00 -0.85718902112E+03  0.85718902112E+03  0.00000000000E+00 0. -1.
         25    2    1    2    0    0 -0.11661812454E+03  0.78476898184E+02  0.97381597698E+03  0.99181709845E+03  0.12500075694E+03 0.  0.
          2    1    1    2  501    0  0.70125720155E+02 -0.20953242134E+02 -0.84573470210E+03  0.84889565986E+03  0.00000000000E+00 0. -1.
          1    1    1    2  502    0  0.46492404382E+02 -0.57523656051E+02  0.15652104438E+04  0.15669570026E+04  0.00000000000E+00 0. -1.
         22    1    3    3    0    0  0.93181688264E+01  0.41113723314E+02  0.44248089878E+03  0.44448454675E+03  0.00000000000E+00 0. -1.
         22    1    3    3    0    0 -0.12593629336E+03  0.37363174870E+02  0.53133507820E+03  0.54733255170E+03  0.00000000000E+00 0. -1.
</event>
<event>
 7    1  0.6105960E-006  0.1355222E+03  0.7818608E-02  0.1328202E+00
          2   -1    0    0  502    0  0.00000000000E+00  0.00000000000E+00  0.84282036484E+03  0.84282036484E+03  0.00000000000E+00 0. -1.
          1   -1    0    0  501    0 -0.00000000000E+00 -0.00000000000E+00 -0.16059462410E+04  0.16059462410E+04  0.00000000000E+00 0. -1.
         25    2    1    2    0    0 -0.90738128186E+02 -0.83197145491E+02 -0.18862374559E+03  0.25760477560E+03  0.12500452028E+03 0.  0.
          2    1    1    2  501    0  0.63235929712E+02  0.12202299222E+03 -0.13787123160E+04  0.13855453957E+04  0.00000000000E+00 0. -1.
          1    1    1    2  502    0  0.27502198474E+02 -0.38825846729E+02  0.80421018538E+03  0.80561643452E+03  0.00000000000E+00 0. -1.
         22    1    3    3    0    0 -0.80263512748E+02 -0.25964907298E+02 -0.31489210902E+02  0.90044312940E+02  0.00000000000E+00 0.  1.
         22    1    3    3    0    0 -0.10474615439E+02 -0.57232238193E+02 -0.15713453469E+03  0.16756046266E+03  0.00000000000E+00 0.  1.
</event>
<event>
 7    1  0.6105960E-006  0.9460463E+02  0.7818608E-02  0.1329188E+00
          2   -1    0    0  502    0  0.00000000000E+00  0.00000000000E+00  0.75661081506E+03  0.75661081506E+03  0.00000000000E+00 0. -1.
          1   -1    0    0  501    0 -0.00000000000E+00 -0.00000000000E+00 -0.17614652891E+04  0.17614652891E+04  0.00000000000E+00 0. -1.
         25    2    1    2    0    0  0.10123455996E+03  0.12560324430E+03  0.21926134805E+03  0.29954161857E+03  0.12500012560E+03 0.  0.
          2    1    1    2  501    0 -0.54041034617E+02 -0.77247392851E+02 -0.17177310648E+04  0.17203161349E+04  0.00000000000E+00 0. -1.
          1    1    1    2  502    0 -0.47193525343E+02 -0.48355851448E+02  0.49361524265E+03  0.49821835071E+03  0.00000000000E+00 0. -1.
         22    1    3    3    0    0  0.59454642469E+02 -0.87151091430E+00  0.26168065163E+02  0.64964464723E+02  0.00000000000E+00 0.  1.
         22    1    3    3    0    0  0.41779917492E+02  0.12647475521E+03  0.19309328289E+03  0.23457715385E+03  0.00000000000E+00 0.  1.
</event>
<event>
 7    1  0.6105960E-006  0.8172590E+02  0.7818608E-02  0.1415231E+00
          2   -1    0    0  502    0  0.00000000000E+00  0.00000000000E+00  0.22470073134E+04  0.22470073134E+04  0.00000000000E+00 0. -1.
          1   -1    0    0  501    0 -0.00000000000E+00 -0.00000000000E+00 -0.82301471135E+02  0.82301471135E+02  0.00000000000E+00 0. -1.
         25    2    1    2    0    0 -0.33913452636E+01 -0.48634808900E+02  0.17523070658E+03  0.22069886452E+03  0.12500136964E+03 0.  0.
          2    1    1    2  501    0  0.10350544287E+02  0.86430374715E+02 -0.27484760546E+02  0.91283927954E+02  0.00000000000E+00 0. -1.
          1    1    1    2  502    0 -0.69591990236E+01 -0.37795565815E+02  0.20169598963E+04  0.20173259921E+04  0.00000000000E+00 0. -1.
         22    1    3    3    0    0 -0.51222885431E+02 -0.57804201622E+02  0.67908083267E+02  0.10284268321E+03  0.00000000000E+00 0. -1.
         22    1    3    3    0    0  0.47831540167E+02  0.91693927222E+01  0.10732262332E+03  0.11785618131E+03  0.00000000000E+00 0. -1.
</event>
<event>
 7    1  0.6105960E-006  0.1090027E+03  0.7818608E-02  0.1292160E+00
          2   -1    0    0  502    0  0.00000000000E+00  0.00000000000E+00  0.24896286496E+04  0.24896286496E+04  0.00000000000E+00 0. -1.
          1   -1    0    0  501    0 -0.00000000000E+00 -0.00000000000E+00 -0.81888362441E+03  0.81888362441E+03  0.00000000000E+00 0. -1.
         25    2    1    2    0    0  0.67386675874E+02 -0.77483987379E+02  0.10065149300E+04  0.10194323748E+04  0.12500132068E+03 0.  0.
          2    1    1    2  501    0 -0.70667894377E+02 -0.41670312857E+02 -0.80793875723E+03  0.81209322229E+03  0.00000000000E+00 0. -1.
          1    1    1    2  502    0  0.32812185032E+01  0.11915430024E+03  0.14721688525E+04  0.14769866769E+04  0.00000000000E+00 0. -1.
         22    1    3    3    0    0 -0.15337944333E+02 -0.55476454793E+02  0.65982630900E+03  0.66233197689E+03  0.00000000000E+00 0. -1.
         22    1    3    3    0    0  0.82724620208E+02 -0.22007532585E+02  0.34668862097E+03  0.35710039791E+03  0.00000000000E+00 0. -1.
</event>
<event>
 7    1  0.6105960E-006  0.8479730E+02  0.7818608E-02  0.1327674E+00
          2   -1    0    0  502    0  0.00000000000E+00  0.00000000000E+00  0.11457373827E+04  0.11457373827E+04  0.00000000000E+00 0. -1.
          1   -1    0    0  501    0 -0.00000000000E+00 -0.00000000000E+00 -0.38886657551E+03  0.38886657551E+03  0.00000000000E+00 0. -1.
         25    2    1    2    0    0  0.15682571907E+03 -0.94881815458E+01 -0.76206653977E+01  0.20091537316E+03  0.12499832351E+03 0.  0.
          2    1    1    2  501    0 -0.73787274328E+02  0.19796020089E+02 -0.27776451713E+03  0.28807910587E+03  0.00000000000E+00 0. -1.
          1    1    1    2  502    0 -0.83038444742E+02 -0.10307838543E+02  0.10422559897E+04  0.10456094792E+04  0.00000000000E+00 0. -1.
         22    1    3    3    0    0  0.15826920222E+03 -0.37481623844E+02  0.17097231013E+02  0.16354304572E+03  0.00000000000E+00 0. -1.
         22    1    3    3    0    0 -0.14434831450E+01  0.27993442298E+02 -0.24717896410E+02  0.37372327440E+02  0.00000000000E+00 0. -1.
</event>
<event>
 7    1  0.6105960E-006  0.1800751E+03  0.7818608E-02  0.1189856E+00
          2   -1    0    0  502    0  0.00000000000E+00  0.00000000000E+00  0.27053148588E+03  0.27053148588E+03  0.00000000000E+00 0. -1.
          1   -1    0    0  501    0 -0.00000000000E+00 -0.00000000000E+00 -0.17389979194E+04  0.17389979194E+04  0.00000000000E+00 0. -1.
         25    2    1    2    0    0  0.24881152082E+03  0.79993685459E+02 -0.53036139419E+03  0.60432943941E+03  0.12499880114E+03 0.  0.
          2    1    1    2  501    0 -0.75809173517E+02 -0.11811754542E+03 -0.11330941795E+04  0.11417535658E+04  0.00000000000E+00 0. -1.
          1    1    1    2  502    0 -0.17300234730E+03  0.38123859960E+02  0.19498914025E+03  0.26344640002E+03  0.00000000000E+00 0. -1.
         22    1    3    3    0    0  0.10964417029E+03 -0.28399971258E+02 -0.21267251241E+03  0.24095227740E+03  0.00000000000E+00 0. -1.
         22    1    3    3    0    0  0.13916735053E+03  0.10839365672E+03 -0.31768888178E+03  0.36337716202E+03  0.00000000000E+00 0. -1.
</event>
<event>
 7    1  0.6105960E-006  0.1349254E+03  0.7818608E-02  0.1416993E+00
          2   -1    0    0  502    0  0.00000000000E+00  0.00000000000E+00  0.15955595888E+03  0.15955595888E+03  0.00000000000E+00 0. -1.
          1   -1    0    0  501    0 -0.00000000000E+00 -0.00000000000E+00 -0.63809274603E+03  0.63809274603E+03  0.00000000000E+00 0. -1.
         25    2    1    2    0    0  0.14528914824E+03 -0.19806419472E+02 -0.39131819242E+03  0.43618422600E+03  0.12500208176E+03 0.  0.
          2    1    1    2  501    0 -0.11195161511E+02  0.20049083460E+02 -0.19070418247E+03  0.19208170814E+03  0.00000000000E+00 0. -1.
          1    1    1    2  502    0 -0.13409398673E+03 -0.24266398760E+00  0.10348558774E+03  0.16938277077E+03  0.00000000000E+00 0. -1.
         22    1    3    3    0    0  0.76593963802E+02 -0.23724889342E+02 -0.34264516544E+03  0.35190228056E+03  0.00000000000E+00 0.  1.
         22    1    3    3    0    0  0.68695184441E+02  0.39184698695E+01 -0.48673026973E+02  0.84281945434E+02  0.00000000000E+00 0.  1.
</event>
<event>
 7    1  0.6105960E-006  0.5537146E+02  0.7818608E-02  0.1526262E+00
          2   -1    0    0  502    0  0.00000000000E+00  0.00000000000E+00  0.14466110677E+04  0.14466110677E+04  0.00000000000E+00 0. -1.
          1   -1    0    0  501    0 -0.00000000000E+00 -0.00000000000E+00 -0.13273187415E+02  0.13273187415E+02  0.00000000000E+00 0. -1.
         25    2    1    2    0    0 -0.20032020599E+02 -0.52660314056E+02  0.58064637420E+03  0.59661534449E+03  0.12500106754E+03 0.  0.
          2    1    1    2  501    0 -0.20966535535E+02  0.14686708568E+02  0.33438032770E+02  0.42111721129E+02  0.00000000000E+00 0. -1.
          1    1    1    2  502    0  0.40998556134E+02  0.37973605487E+02  0.81925347334E+03  0.82115718951E+03  0.00000000000E+00 0. -1.
         22    1    3    3    0    0  0.13919933401E+01  0.41000120535E+02  0.17681879977E+03  0.18151538635E+03  0.00000000000E+00 0.  1.
         22    1    3    3    0    0 -0.21424013940E+02 -0.93660434590E+02  0.40382757443E+03  0.41509995815E+03  0.00000000000E+00 0.  1.
</event>
<event>
 7    1  0.6105960E-006  0.8391607E+02  0.7818608E-02  0.1449387E+00
          2   -1    0    0  502    0  0.00000000000E+00  0.00000000000E+00  0.65359009401E+03  0.65359009401E+03  0.00000000000E+00 0. -1.
          1   -1    0    0  501    0 -0.00000000000E+00 -0.00000000000E+00 -0.75364363923E+03  0.75364363923E+03  0.00000000000E+00 0. -1.
         25    2    1    2    0    0 -0.73336182045E+02  0.23022072095E+02  0.28274267062E+03  0.31855257429E+03  0.12499645354E+03 0.  0.
          2    1    1    2  501    0  0.33527320201E+01  0.28718651315E+02 -0.73008272277E+03  0.73065503750E+03  0.00000000000E+00 0. -1.
          1    1    1    2  502    0  0.69983450025E+02 -0.51740723409E+02  0.34728650693E+03  0.35802612144E+03  0.00000000000E+00 0. -1.
         22    1    3    3    0    0  0.35655971653E+02  0.18110893712E+01  0.68616894264E+02  0.77349250402E+02  0.00000000000E+00 0. -1.
         22    1    3    3    0    0 -0.10899215370E+03  0.21210982723E+02  0.21412577636E+03  0.24120332389E+03  0.00000000000E+00 0. -1.
</event>
<event>
 7    1  0.6105960E-006  0.1292124E+03  0.7818608E-02  0.1330796E+00
          2   -1    0    0  502    0  0.00000000000E+00  0.00000000000E+00  0.30778730450E+03  0.30778730450E+03  0.00000000000E+00 0. -1.
          1   -1    0    0  501    0 -0.00000000000E+00 -0.00000000000E+00 -0.17628510587E+04  0.17628510587E+04  0.00000000000E+00 0. -1.
         25    2    1    2    0    0 -0.16093814974E+03  0.57359938801E+02  0.36885581126E+02  0.21488753000E+03  0.12499941533E+03 0.  0.
          2    1    1    2  501    0  0.11239780046E+03 -0.62155360529E+02 -0.16680664800E+04  0.16730039857E+04  0.00000000000E+00 0. -1.
          1    1    1    2  502    0  0.48540349281E+02  0.47954217278E+01  0.17611714475E+03  0.18274684745E+03  0.00000000000E+00 0. -1.
         22    1    3    3    0    0  0.80050647834E+01 -0.41336593835E+01  0.33899214027E+02  0.35075987709E+02  0.00000000000E+00 0.  1.
         22    1    3    3    0    0 -0.16894321453E+03  0.61493598185E+02  0.29863670989E+01  0.17981154229E+03  0.00000000000E+00 0.  1.
</event>
<event>
 7    1  0.6105960E-006  0.1700664E+03  0.7818608E-02  0.1256100E+00
          2   -1    0    0  502    0  0.00000000000E+00  0.00000000000E+00  0.21921895913E+04  0.21921895913E+04  0.00000000000E+00 0. -1.
          1   -1    0    0  501    0 -0.00000000000E+00 -0.00000000000E+00 -0.46975261373E+03  0.46975261373E+03  0.00000000000E+00 0. -1.
         25    2    1    2    0    0 -0.21139977169E+02 -0.15294946632E+03  0.19130356921E+03  0.27579589971E+03  0.12500353925E+03 0.  0.
          2    1    1    2  501    0  0.73427975867E+02 -0.11687591349E+02 -0.42042944066E+03  0.42695337217E+03  0.00000000000E+00 0. -1.
          1    1    1    2  502    0 -0.52287998698E+02  0.16463705766E+03  0.19515628490E+04  0.19591929331E+04  0.00000000000E+00 0. -1.
         22    1    3    3    0    0  0.30026720135E+02 -0.57942320054E+02  0.14375631644E+03  0.15787588445E+03  0.00000000000E+00 0. -1.
         22    1    3    3    0    0 -0.51166697304E+02 -0.95007146261E+02  0.47547252779E+02  0.11792001527E+03  0.00000000000E+00 0. -1.
</event>
<event>
 7    1  0.6105960E-006  0.7225438E+02  0.7818608E-02  0.1374930E+00
          2   -1    0    0  502    0  0.00000000000E+00  0.00000000000E+00  0.20129571145E+04  0.20129571145E+04  0.00000000000E+00 0. -1.
          1   -1    0    0  501    0 -0.00000000000E+00 -0.00000000000E+00 -0.21276538588E+04  0.21276538588E+04  0.00000000000E+00 0. -1.
         25    2    1    2    0    0  0.23251493705E+02  0.73401182821E+02  0.38229111955E+03  0.40951263701E+03  0.12500293672E+03 0.  0.
          2    1    1    2  501    0  0.42975003346E+02 -0.41799654167E+02 -0.21127852205E+04  0.21136356001E+04  0.00000000000E+00 0. -1.
          1    1    1    2  502    0 -0.66226497051E+02 -0.31601528654E+02  0.16157973566E+04  0.16174627362E+04  0.00000000000E+00 0. -1.
         22    1    3    3    0    0 -0.54336202075E+01 -0.31143909228E+02  0.14824256455E+03  0.15157613682E+03  0.00000000000E+00 0.  1.
         22    1    3    3    0    0  0.28685113913E+02  0.10454509205E+03  0.23404855500E+03  0.25793650019E+03  0.00000000000E+00 0.  1.
</event>
<event>
 7    1  0.6105960E-006  0.1477554E+03  0.7818608E-02  0.1395962E+00
          2   -1    0    0  502    0  0.00000000000E+00  0.00000000000E+00  0.15769901525E+04  0.15769901525E+04  0.00000000000E+00 0. -1.
          1   -1    0    0  501    0 -0.00000000000E+00 -0.00000000000E+00 -0.30961163348E+03  0.30961163348E+03  0.00000000000E+00 0. -1.
         25    2    1    2    0    0 -0.44670039789E+01  0.12792930873E+03  0.92900659235E+03  0.94607804145E+03  0.12499819886E+03 0.  0.
          2    1    1    2  501    0 -0.10257563660E+02 -0.14779740870E+03 -0.28258917050E+03  0.31907041686E+03  0.00000000000E+00 0. -1.
          1    1    1    2  502    0  0.14724567638E+02  0.19868099969E+02  0.62096109717E+03  0.62145332768E+03  0.00000000000E+00 0. -1.
         22    1    3    3    0    0 -0.16388573659E+02  0.30548895058E+01  0.12023067583E+02  0.20554120039E+02  0.00000000000E+00 0. -1.
         22    1    3    3    0    0  0.11921569680E+02  0.12487441922E+03  0.91698352477E+03  0.92552392141E+03  0.00000000000E+00 0. -1.
</event>
<event>
 7    1  0.6105960E-006  0.7093610E+02  0.7818608E-02  0.1444564E+00
          2   -1    0    0  502    0  0.00000000000E+00  0.00000000000E+00  0.34661128376E+03  0.34661128376E+03  0.00000000000E+00 0. -1.
          1   -1    0    0  501    0 -0.00000000000E+00 -0.00000000000E+00 -0.74646128556E+03  0.74646128556E+03  0.00000000000E+00 0. -1.
         25    2    1    2    0    0 -0.37076784795E+02 -0.51606666273E+02  0.16346968098E+03  0.21537132677E+03  0.12499814327E+03 0.  0.
          2    1    1    2  501    0 -0.30560048547E+02  0.17960303756E+02 -0.71096708368E+03  0.71185018308E+03  0.00000000000E+00 0. -1.
          1    1    1    2  502    0  0.67636833342E+02  0.33646362518E+02  0.14764740089E+03  0.16585105946E+03  0.00000000000E+00 0. -1.
         22    1    3    3    0    0  0.24099932553E+02 -0.45675822422E+01 -0.92347948515E+01  0.26209749952E+02  0.00000000000E+00 0. -1.
         22    1    3    3    0    0 -0.61176717348E+02 -0.47039084031E+02  0.17270447584E+03  0.18916157682E+03  0.00000000000E+00 0. -1.
</event>
<event>
 7    1  0.6105960E-006  0.6369024E+02  0.7818608E-02  0.1511091E+00
          2   -1    0    0  502    0  0.00000000000E+00  0.00000000000E+00  0.84557125345E+03  0.84557125345E+03  0.00000000000E+00 0. -1.
          1   -1    0    0  501    0 -0.00000000000E+00 -0.00000000000E+00 -0.74472878523E+03  0.74472878523E+03  0.00000000000E+00 0. -1.
         25    2    1    2    0    0  0.70849557803E+02  0.24092734192E+02 -0.10230811303E+01  0.14569111754E+03  0.12499894141E+03 0.  0.
          2    1    1    2  501    0 -0.20127225555E+02  0.14206356127E+02 -0.66983880103E+03  0.67029168660E+03  0.00000000000E+00 0. -1.
          1    1    1    2  502    0 -0.50722332248E+02 -0.38299090320E+02  0.77170435038E+03  0.77431723454E+03  0.00000000000E+00 0. -1.
         22    1    3    3    0    0 -0.25036753786E+02  0.62975281750E+01 -0.34046722806E+02  0.42727944428E+02  0.00000000000E+00 0. -1.
         22    1    3    3    0    0  0.95886311589E+02  0.17795206017E+02  0.33023641675E+02  0.10296317311E+03  0.00000000000E+00 0. -1.
</event>
<event>
 7    1  0.6105960E-006  0.1873176E+03  0.7818608E-02  0.1304989E+00
          2   -1    0    0  502    0  0.00000000000E+00  0.00000000000E+00  0.87204756782E+02  0.87204756782E+02  0.00000000000E+00 0. -1.
          1   -1    0    0  501    0 -0.00000000000E+00 -0.00000000000E+00 -0.15537136215E+04  0.15537136215E+04  0.00000000000E+00 0. -1.
         25    2    1    2    0    0  0.10109307962E+03  0.19651060521E+03 -0.54106873949E+03  0.59767442631E+03  0.12499244102E+03 0.  0.
          2    1    1    2  501    0 -0.13360574011E+02 -0.40243732686E+02 -0.84625876192E+03  0.84732045596E+03  0.00000000000E+00 0. -1.
          1    1    1    2  502    0 -0.87732505607E+02 -0.15626687253E+03 -0.79181363293E+02  0.19592349599E+03  0.00000000000E+00 0. -1.
         22    1    3    3    0    0  0.10621391065E+03  0.20309735124E+03 -0.43866355652E+03  0.49492993920E+03  0.00000000000E+00 0.  1.
         22    1    3    3    0    0 -0.51208310341E+01 -0.65867460288E+01 -0.10240518297E+03  0.10274448712E+03  0.00000000000E+00 0.  1.
</event>
<event>
 7    1  0.6105960E-006  0.4423659E+03  0.7818608E-02  0.1156416E+00
          2   -1    0    0  502    0  0.00000000000E+00  0.00000000000E+00  0.19221949364E+04  0.19221949364E+04  0.00000000000E+00 0. -1.
          1   -1    0    0  501    0 -0.00000000000E+00 -0.00000000000E+00 -0.11319283340E+04  0.11319283340E+04  0.00000000000E+00 0. -1.
         25    2    1    2    0    0  0.40606407851E+03  0.14914334085E+03  0.11286484133E+03  0.46421406676E+03  0.12499782152E+03 0.  0.
          2    1    1    2  501    0 -0.24345666125E+02  0.79957242266E+02 -0.92400225522E+03  0.92777477855E+03  0.00000000000E+00 0. -1.
          1    1    1    2  502    0 -0.38171841239E+03 -0.22910058312E+03  0.16014040163E+04  0.16621344251E+04  0.00000000000E+00 0. -1.
         22    1    3    3    0    0  0.29468204264E+03  0.16051767856E+03  0.62016049541E+02  0.34124686341E+03  0.00000000000E+00 0. -1.
         22    1    3    3    0    0  0.11138203587E+03 -0.11374337703E+02  0.50848791785E+02  0.12296720335E+03  0.00000000000E+00 0. -1.
</event>
<event>
 7    1  0.6105960E-006  0.8928258E+02  0.7818608E-02  0.1419815E+00
          2   -1    0    0  502    0  0.00000000000E+00  0.00000000000E+00  0.78876169990E+03  0.78876169990E+03  0.00000000000E+00 0. -1.
          1   -1    0    0  501    0 -0.00000000000E+00 -0.00000000000E+00 -0.42202236402E+03  0.42202236402E+03  0.00000000000E+00 0. -1.
         25    2    1    2    0    0 -0.41882177936E+02 -0.96104125388E+02 -0.13777454124E+03  0.21353328749E+03  0.12499808361E+03 0.  0.
          2    1    1    2  501    0  0.33136544924E+02  0.74108368358E+01 -0.24253706631E+03  0.24490238799E+03  0.00000000000E+00 0. -1.
          1    1    1    2  502    0  0.87456330116E+01  0.88693288552E+02  0.74705094342E+03  0.75234838844E+03  0.00000000000E+00 0. -1.
         22    1    3    3    0    0 -0.65301326847E+02 -0.63335194855E+02 -0.25834488369E+02  0.94567600078E+02  0.00000000000E+00 0. -1.
         22    1    3    3    0    0  0.23419148911E+02 -0.32768930533E+02 -0.11194005287E+03  0.11896568741E+03  0.00000000000E+00 0. -1.
</event>
<event>
 7    1  0.6157764E-006  0.6479643E+02  0.7818608E-02  0.1502112E+00
          2   -1    0    0  502    0  0.00000000000E+00  0.00000000000E+00  0.70208477449E+03  0.70208477449E+03  0.00000000000E+00 0. -1.
          1   -1    0    0  501    0 -0.00000000000E+00 -0.00000000000E+00 -0.17653800695E+04  0.17653800695E+04  0.00000000000E+00 0. -1.
         25    2    1    2    0    0 -0.60239737072E+02 -0.21371848590E+02 -0.46025335377E+03  0.48118910392E+03  0.12499688894E+03 0.  0.
          2    1    1    2  501    0 -0.44535189890E+01  0.25353828975E+02 -0.12930118809E+04  0.12932680985E+04  0.00000000000E+00 0. -1.
          1    1    1    2  502    0  0.64693256061E+02 -0.39819803850E+01  0.68996993969E+03  0.69300764153E+03  0.00000000000E+00 0. -1.
         22    1    3    3    0    0 -0.20279061165E+02  0.47395064254E+02 -0.10288926213E+03  0.11508141770E+03  0.00000000000E+00 0. -1.
         22    1    3    3    0    0 -0.39960675907E+02 -0.68766912844E+02 -0.35736409164E+03  0.36610768623E+03  0.00000000000E+00 0. -1.
</event>
<event>
 7    1  0.6105960E-006  0.4709079E+02  0.7818608E-02  0.1519243E+00
          2   -1    0    0  502    0  0.00000000000E+00  0.00000000000E+00  0.75920661503E+03  0.75920661503E+03  0.00000000000E+00 0. -1.
          1   -1    0    0  501    0 -0.00000000000E+00 -0.00000000000E+00 -0.49129392857E+03  0.49129392857E+03  0.00000000000E+00 0. -1.
         25    2    1    2    0    0 -0.13414012508E+02 -0.11123955939E+02  0.42402832610E+02  0.13314275411E+03  0.12500125851E+03 0.  0.
          2    1    1    2  501    0  0.44416442097E+02  0.16927156380E+02 -0.44428513324E+03  0.44682057761E+03  0.00000000000E+00 0. -1.
          1    1    1    2  502    0 -0.31002429589E+02 -0.58032004404E+01  0.66979498710E+03  0.67053721188E+03  0.00000000000E+00 0. -1.
         22    1    3    3    0    0  0.20703165694E+02  0.51118766125E+02  0.16219434885E+02  0.57487558549E+02  0.00000000000E+00 0.  1.
         22    1    3    3    0    0 -0.34117178202E+02 -0.62242722064E+02  0.26183397725E+02  0.75655195558E+02  0.00000000000E+00 0.  1.
</event>
<event>
 7    1  0.6105960E-006  0.7373396E+02  0.7818608E-02  0.1427751E+00
          2   -1    0    0  502    0  0.00000000000E+00  0.00000000000E+00  0.31222001840E+04  0.31222001840E+04  0.00000000000E+00 0. -1.
          1   -1    0    0  501    0 -0.00000000000E+00 -0.00000000000E+00 -0.74856444146E+03  0.74856444146E+03  0.00000000000E+00 0. -1.
         25    2    1    2    0    0 -0.85152097315E+02  0.68683116239E+02  0.35738010759E+03  0.39409848518E+03  0.12499929835E+03 0.  0.
          2    1    1    2  501    0  0.22584703018E+02 -0.31419049447E+02 -0.72920948051E+03  0.73023536749E+03  0.00000000000E+00 0. -1.
          1    1    1    2  502    0  0.62567394297E+02 -0.37264066792E+02  0.27454651155E+04  0.27464307728E+04  0.00000000000E+00 0. -1.
         22    1    3    3    0    0 -0.68710624632E+02  0.86842777123E+02  0.35201340475E+03  0.36902067015E+03  0.00000000000E+00 0.  1.
         22    1    3    3    0    0 -0.16441472683E+02 -0.18159660883E+02  0.53667028438E+01  0.25077815033E+02  0.00000000000E+00 0.  1.
</event>
<event>
 7    1  0.6105960E-006  0.1020227E+03  0.7818608E-02  0.1453971E+00
          2   -1    0    0  502    0  0.00000000000E+00  0.00000000000E+00  0.10756576397E+04  0.10756576397E+04  0.00000000000E+00 0. -1.
          1   -1    0    0  501    0 -0.00000000000E+00 -0.00000000000E+00 -0.16084116917E+03  0.16084116917E+03  0.00000000000E+00 0. -1.
         25    2    1    2    0    0  0.60035553613E+02 -0.65327800118E+02  0.29214559642E+03  0.32991913794E+03  0.12500239562E+03 0.  0.
          2    1    1    2  501    0 -0.82672077835E+02  0.61287956673E+02 -0.12310196909E+03  0.16045242560E+03  0.00000000000E+00 0. -1.
          1    1    1    2  502    0  0.22636524222E+02  0.40398434441E+01  0.74577284317E+03  0.74612724529E+03  0.00000000000E+00 0. -1.
         22    1    3    3    0    0  0.42269065351E+02  0.15051881794E+02  0.20574590176E+03  0.21058159731E+03  0.00000000000E+00 0. -1.
         22    1    3    3    0    0  0.17766488262E+02 -0.80379681912E+02  0.86399694652E+02  0.11933754064E+03  0.00000000000E+00 0. -1.
</event>
<event>
 7    1  0.6105960E-006  0.1037360E+03  0.7818608E-02  0.1318006E+00
          2   -1    0    0  502    0  0.00000000000E+00  0.00000000000E+00  0.19496770698E+04  0.19496770698E+04  0.00000000000E+00 0. -1.
          1   -1    0    0  501    0 -0.00000000000E+00 -0.00000000000E+00 -0.30661640428E+04  0.30661640428E+04  0.00000000000E+00 0. -1.
         25    2    1    2    0    0 -0.15951905680E+03  0.40630014370E+02  0.31739037838E+03  0.37876000156E+03  0.12500143577E+03 0.  0.
          2    1    1    2  501    0  0.68039847587E+02  0.15220148877E+01 -0.30335135797E+04  0.30342769115E+04  0.00000000000E+00 0. -1.
          1    1    1    2  502    0  0.91479209215E+02 -0.42152029258E+02  0.15996362283E+04  0.16028041996E+04  0.00000000000E+00 0. -1.
         22    1    3    3    0    0 -0.57014349539E+01 -0.26242599552E+02  0.10130139695E+02  0.28701918438E+02  0.00000000000E+00 0.  1.
         22    1    3    3    0    0 -0.15381762185E+03  0.66872613922E+02  0.30726023869E+03  0.35005808313E+03  0.00000000000E+00 0.  1.
</event>
<event>
 7    1  0.6105960E-006  0.7012688E+02  0.7818608E-02  0.1426726E+00
          2   -1    0    0  502    0  0.00000000000E+00  0.00000000000E+00  0.11583580245E+03  0.11583580245E+03  0.00000000000E+00 0. -1.
          1   -1    0    0  501    0 -0.00000000000E+00 -0.00000000000E+00 -0.15184640861E+04  0.15184640861E+04  0.00000000000E+00 0. -1.
         25    2    1    2    0    0 -0.68306775751E+01  0.63987804253E+02 -0.23972437812E+03  0.27791093623E+03  0.12500245502E+03 0.  0.
          2    1    1    2  501    0 -0.34136181660E+02 -0.62268509751E+02 -0.12542519232E+04  0.12562605355E+04  0.00000000000E+00 0. -1.
          1    1    1    2  502    0  0.40966859235E+02 -0.17192945020E+01  0.91348017656E+02  0.10012841684E+03  0.00000000000E+00 0. -1.
         22    1    3    3    0    0  0.57815364961E+02  0.21401287297E+02 -0.12689940434E+03  0.14108185690E+03  0.00000000000E+00 0.  1.
         22    1    3    3    0    0 -0.64646042536E+02  0.42586516956E+02 -0.11282497378E+03  0.13682907933E+03  0.00000000000E+00 0.  1.
</event>
<event>
 7    1  0.6105960E-006  0.2862034E+02  0.7818608E-02  0.1622290E+00
          2   -1    0    0  502    0  0.00000000000E+00  0.00000000000E+00  0.10337397148E+04  0.10337397148E+04  0.00000000000E+00 0. -1.
          1   -1    0    0  501    0 -0.00000000000E+00 -0.00000000000E+00 -0.15589609120E+03  0.15589609120E+03  0.00000000000E+00 0. -1.
         25    2    1    2    0    0 -0.20308183013E+02 -0.29648839276E+01  0.28632787199E+03  0.31309742968E+03  0.12500054943E+03 0.  0.
          2    1    1    2  501    0  0.83998207522E+01  0.27460156825E+02 -0.14080899956E+03  0.14370731212E+03  0.00000000000E+00 0. -1.
          1    1    1    2  502    0  0.11908362261E+02 -0.24495272897E+02  0.73232475116E+03  0.73283106419E+03  0.00000000000E+00 0. -1.
         22    1    3    3    0    0 -0.23282985658E+02  0.53176785534E+02  0.77477196885E+02  0.96812106568E+02  0.00000000000E+00 0.  1.
         22    1    3    3    0    0  0.29748026444E+01 -0.56141669461E+02  0.20885067511E+03  0.21628532311E+03  0.00000000000E+00 0.  1.
</event>
<event>
 7    1  0.6105960E-006  0.2465218E+03  0.7818608E-02  0.1268296E+00
          2   -1    0    0  502    0  0.00000000000E+00  0.00000000000E+00  0.77345202931E+03  0.77345202931E+03  0.00000000000E+00 0. -1.
          1   -1    0    0  501    0 -0.00000000000E+00 -0.00000000000E+00 -0.16157688208E+04  0.16157688208E+04  0.00000000000E+00 0. -1.
         25    2    1    2    0    0 -0.17913341496E+03 -0.14711893603E+03 -0.33018005622E+03  0.42234699823E+03  0.12500142276E+03 0.  0.
          2    1    1    2  501    0  0.18779182426E+02 -0.41464482058E+02 -0.12180065906E+04  0.12188568479E+04  0.00000000000E+00 0. -1.
          1    1    1    2  502    0  0.16035423254E+03  0.18858341809E+03  0.70586985536E+03  0.74801700394E+03  0.00000000000E+00 0. -1.
         22    1    3    3    0    0 -0.43044247788E+02 -0.97225616798E+02 -0.79441201573E+02  0.13272728558E+03  0.00000000000E+00 0. -1.
         22    1    3    3    0    0 -0.13608916717E+03 -0.49893319230E+02 -0.25073885465E+03  0.28961971265E+03  0.00000000000E+00 0. -1.
</event>
<event>
 7    1  0.6105960E-006  0.7386716E+02  0.7818608E-02  0.1386493E+00
          2   -1    0    0  502    0  0.00000000000E+00  0.00000000000E+00  0.51318348865E+02  0.51318348865E+02  0.00000000000E+00 0. -1.
          1   -1    0    0  501    0 -0.00000000000E+00 -0.00000000000E+00 -0.70128838159E+03  0.70128838159E+03  0.00000000000E+00 0. -1.
         25    2    1    2    0    0  0.34569289713E+02 -0.43807709856E+02 -0.34193982989E+03  0.36832253902E+03  0.12499797699E+03 0.  0.
          2    1    1    2  501    0 -0.82857372620E+02  0.21079925885E+02 -0.31860517427E+03  0.32987719615E+03  0.00000000000E+00 0. -1.
          1    1    1    2  502    0  0.48288082907E+02  0.22727783971E+02  0.10574971428E+02  0.54406995284E+02  0.00000000000E+00 0. -1.
         22    1    3    3    0    0  0.70120014959E+02 -0.62002538488E+02 -0.27361632883E+03  0.28918337898E+03  0.00000000000E+00 0.  1.
         22    1    3    3    0    0 -0.35550725246E+02  0.18194828632E+02 -0.68323501058E+02  0.79139160037E+02  0.00000000000E+00 0.  1.
</event>
<event>
 7    1  0.6105960E-006  0.8094107E+02  0.7818608E-02  0.1373904E+00
          2   -1    0    0  502    0  0.00000000000E+00  0.00000000000E+00  0.35517899264E+04  0.35517899264E+04  0.00000000000E+00 0. -1.
          1   -1    0    0  501    0 -0.00000000000E+00 -0.00000000000E+00 -0.35144376758E+02  0.35144376758E+02  0.00000000000E+00 0. -1.
         25    2    1    2    0    0 -0.17547807410E+02 -0.88258902747E+02  0.23246243268E+03  0.27885795867E+03  0.12500167617E+03 0.  0.
          2    1    1    2  501    0  0.51907295186E+02  0.14777669704E+02  0.52227724725E+02  0.75103142713E+02  0.00000000000E+00 0. -1.
          1    1    1    2  502    0 -0.34359487776E+02  0.73481233043E+02  0.32319553923E+04  0.32329732018E+04  0.00000000000E+00 0. -1.
         22    1    3    3    0    0 -0.41258357165E+02 -0.11051063734E+03  0.15448176729E+03  0.19436941484E+03  0.00000000000E+00 0.  1.
         22    1    3    3    0    0  0.23710549755E+02  0.22251734598E+02  0.77980665392E+02  0.84488543823E+02  0.00000000000E+00 0.  1.
</event>
<event>
 7    1  0.6105960E-006  0.1418829E+03  0.7818608E-02  0.1374840E+00
          2   -1    0    0  502    0  0.00000000000E+00  0.00000000000E+00  0.10651167981E+04  0.10651167981E+04  0.00000000000E+00 0. -1.
          1   -1    0    0  501    0 -0.00000000000E+00 -0.00000000000E+00 -0.16455927133E+03  0.16455927133E+03  0.00000000000E+00 0. -1.
         25    2    1    2    0    0  0.90323717143E+02 -0.75660063911E+02  0.34077432349E+02  0.17512920950E+03  0.12500459782E+03 0.  0.
          2    1    1    2  501    0  0.76568096999E+01 -0.29577563764E+02 -0.86004513937E+02  0.91270123427E+02  0.00000000000E+00 0. -1.
          1    1    1    2  502    0 -0.97980526843E+02  0.10523762768E+03  0.95248460835E+03  0.96327673649E+03  0.00000000000E+00 0. -1.
         22    1    3    3    0    0  0.35964943651E+02  0.30390083218E+02  0.30116934675E+02  0.55893327724E+02  0.00000000000E+00 0.  1.
         22    1    3    3    0    0  0.54358773492E+02 -0.10605014713E+03  0.39604976740E+01  0.11923588178E+03  0.00000000000E+00 0.  1.
</event>
<event>
 7    1  0.6105960E-006  0.7089661E+02  0.7818608E-02  0.1440097E+00
          2   -1    0    0  502    0  0.00000000000E+00  0.00000000000E+00  0.66026649661E+02  0.66026649661E+02  0.00000000000E+00 0. -1.
          1   -1    0    0  501    0 -0.00000000000E+00 -0.00000000000E+00 -0.90208535146E+03  0.90208535146E+03  0.00000000000E+00 0. -1.
         25    2    1    2    0    0  0.11900738856E+02 -0.34384451831E+02 -0.39400267807E+03  0.41495375968E+03  0.12499837691E+03 0.  0.
          2    1    1    2  501    0  0.15222557715E+02 -0.33357357357E+02 -0.47262403453E+03  0.47404421479E+03  0.00000000000E+00 0. -1.
          1    1    1    2  502    0 -0.27123296571E+02  0.67741809188E+02  0.30568010808E+02  0.79114026656E+02  0.00000000000E+00 0. -1.
         22    1    3    3    0    0 -0.10913160976E+02  0.36861466343E+02 -0.24737974103E+03  0.25034895857E+03  0.00000000000E+00 0.  1.
         22    1    3    3    0    0  0.22813899832E+02 -0.71245918174E+02 -0.14662293705E+03  0.16460480111E+03  0.00000000000E+00 0.  1.
</event>
<event>
 7    1  0.6105960E-006  0.8535592E+02  0.7818608E-02  0.1361432E+00
          2   -1    0    0  502    0  0.00000000000E+00  0.00000000000E+00  0.14608506667E+04  0.14608506667E+04  0.00000000000E+00 0. -1.
          1   -1    0    0  501    0 -0.00000000000E+00 -0.00000000000E+00 -0.29521903934E+03  0.29521903934E+03  0.00000000000E+00 0. -1.
         25    2    1    2    0    0 -0.17818710171E+01 -0.12518619358E+03  0.14954490229E+03  0.23166449050E+03  0.12501999931E+03 0.  0.
          2    1    1    2  501    0  0.32364346261E+02  0.46634997927E+02 -0.24957013958E+03  0.25594438558E+03  0.00000000000E+00 0. -1.
          1    1    1    2  502    0 -0.30582475244E+02  0.78551195658E+02  0.12656568646E+04  0.12684608300E+04  0.00000000000E+00 0. -1.
         22    1    3    3    0    0 -0.31200257780E+02 -0.81741422661E+02  0.15593992806E+03  0.17880821410E+03  0.00000000000E+00 0. -1.
         22    1    3    3    0    0  0.29418386763E+02 -0.43444770924E+02 -0.63950257730E+01  0.52856276401E+02  0.00000000000E+00 0. -1.
</event>
<event>
 7    1  0.6105960E-006  0.1108985E+03  0.7818608E-02  0.1336991E+00
          2   -1    0    0  502    0  0.00000000000E+00  0.00000000000E+00  0.24805683942E+03  0.24805683942E+03  0.00000000000E+00 0. -1.
          1   -1    0    0  501    0 -0.00000000000E+00 -0.00000000000E+00 -0.34911757391E+04  0.34911757391E+04  0.00000000000E+00 0. -1.
         25    2    1    2    0    0 -0.99701731486E+00 -0.13071947647E+03  0.70720145251E+02  0.19420057209E+03  0.12499579066E+03 0.  0.
          2    1    1    2  501    0  0.42401351970E+02  0.33171090170E+02 -0.34048908679E+04  0.34053164344E+04  0.00000000000E+00 0. -1.
          1    1    1    2  502    0 -0.41404334655E+02  0.97548386298E+02  0.91051822996E+02  0.13971557203E+03  0.00000000000E+00 0. -1.
         22    1    3    3    0    0 -0.20738402358E+02 -0.13327337121E+03  0.93373382225E+02  0.16404408345E+03  0.00000000000E+00 0. -1.
         22    1    3    3    0    0  0.19741385043E+02  0.25538947416E+01 -0.22653236974E+02  0.30156488641E+02  0.00000000000E+00 0. -1.
</event>
<event>
 7    1  0.6105960E-006  0.9385172E+02  0.7818608E-02  0.1476462E+00
          2   -1    0    0  502    0  0.00000000000E+00  0.00000000000E+00  0.47222663322E+03  0.47222663322E+03  0.00000000000E+00 0. -1.
          1   -1    0    0  501    0 -0.00000000000E+00 -0.00000000000E+00 -0.34185820301E+03  0.34185820301E+03  0.00000000000E+00 0. -1.
         25    2    1    2    0    0  0.75572071954E+02 -0.80344115088E+02  0.28068176763E+03  0.32645655853E+03  0.12500126013E+03 0.  0.
          2    1    1    2  501    0 -0.72246112237E+02  0.59352116695E+02 -0.31140590930E+03  0.32513968512E+03  0.00000000000E+00 0. -1.
          1    1    1    2  502    0 -0.33259597167E+01  0.20991998393E+02  0.16109257188E+03  0.16248859259E+03  0.00000000000E+00 0. -1.
         22    1    3    3    0    0  0.74388819719E+02 -0.46857207401E+02  0.27942042353E+03  0.29292502022E+03  0.00000000000E+00 0. -1.
         22    1    3    3    0    0  0.11832522353E+01 -0.33486907687E+02  0.12613441039E+01  0.33531538307E+02  0.00000000000E+00 0. -1.
</event>
<event>
 7    1  0.6105960E-006  0.4348429E+02  0.7818608E-02  0.1487525E+00
          2   -1    0    0  502    0  0.00000000000E+00  0.00000000000E+00  0.52577760696E+03  0.52577760696E+03  0.00000000000E+00 0. -1.
          1   -1    0    0  501    0 -0.00000000000E+00 -0.00000000000E+00 -0.36037722836E+03  0.36037722836E+03  0.00000000000E+00 0. -1.
         25    2    1    2    0    0 -0.64587010973E+02 -0.39707875489E+02  0.18889334161E+03  0.23886235488E+03  0.12500533074E+03 0.  0.
          2    1    1    2  501    0  0.22228873670E+02  0.37190976676E+02 -0.33253758166E+03  0.33534837824E+03  0.00000000000E+00 0. -1.
          1    1    1    2  502    0  0.42358137304E+02  0.25168988138E+01  0.30904461865E+03  0.31194410220E+03  0.00000000000E+00 0. -1.
         22    1    3    3    0    0  0.75530437669E+01  0.24699042004E+02  0.11304574229E+03  0.11595874695E+03  0.00000000000E+00 0. -1.
         22    1    3    3    0    0 -0.72140054740E+02 -0.64406917493E+02  0.75847599320E+02  0.12290360793E+03  0.00000000000E+00 0. -1.
</event>
<event>
 7    1  0.6105960E-006  0.6347695E+02  0.7818608E-02  0.1480283E+00
          2   -1    0    0  502    0  0.00000000000E+00  0.00000000000E+00  0.48593810211E+03  0.48593810211E+03  0.00000000000E+00 0. -1.
          1   -1    0    0  501    0 -0.00000000000E+00 -0.00000000000E+00 -0.12035784102E+04  0.12035784102E+04  0.00000000000E+00 0. -1.
         25    2    1    2    0    0 -0.24837531551E+02 -0.24199366594E+02 -0.16518910123E+03  0.21003623405E+03  0.12500107252E+03 0.  0.
          2    1    1    2  501    0  0.41174149939E+02  0.50056362685E+02 -0.10144258140E+04  0.10164943099E+04  0.00000000000E+00 0. -1.
          1    1    1    2  502    0 -0.16336618387E+02 -0.25856996091E+02  0.46197460706E+03  0.46298596838E+03  0.00000000000E+00 0. -1.
         22    1    3    3    0    0  0.50359798163E+02 -0.10580962302E+02 -0.49621957784E+02  0.71487094839E+02  0.00000000000E+00 0.  1.
         22    1    3    3    0    0 -0.75197329714E+02 -0.13618404292E+02 -0.11556714345E+03  0.13854913921E+03  0.00000000000E+00 0.  1.
</event>
<event>
 7    1  0.6105960E-006  0.1007288E+03  0.7818608E-02  0.1448052E+00
          2   -1    0    0  502    0  0.00000000000E+00  0.00000000000E+00  0.36365238461E+04  0.36365238461E+04  0.00000000000E+00 0. -1.
          1   -1    0    0  501    0 -0.00000000000E+00 -0.00000000000E+00 -0.25348239745E+03  0.25348239745E+03  0.00000000000E+00 0. -1.
         25    2    1    2    0    0 -0.60653784607E+02  0.10679190299E+03  0.70476075158E+03  0.72621952244E+03  0.12499474258E+03 0.  0.
          2    1    1    2  501    0  0.15719226851E+02 -0.18565212550E+02 -0.24130228866E+03  0.24252537129E+03  0.00000000000E+00 0. -1.
          1    1    1    2  502    0  0.44934557756E+02 -0.88226690436E+02  0.29195829857E+04  0.29212613498E+04  0.00000000000E+00 0. -1.
         22    1    3    3    0    0  0.32584406713E+02  0.25516764974E+02  0.30403309170E+03  0.30683704096E+03  0.00000000000E+00 0. -1.
         22    1    3    3    0    0 -0.93238191320E+02  0.81275138012E+02  0.40072765988E+03  0.41938248148E+03  0.00000000000E+00 0. -1.
</event>
<event>
 7    1  0.6194456E-006  0.3809676E+02  0.7818608E-02  0.1524267E+00
          2   -1    0    0  502    0  0.00000000000E+00  0.00000000000E+00  0.18115364011E+04  0.18115364011E+04  0.00000000000E+00 0. -1.
          1   -1    0    0  501    0 -0.00000000000E+00 -0.00000000000E+00 -0.71561836008E+03  0.71561836008E+03  0.00000000000E+00 0. -1.
         25    2    1    2    0    0 -0.50001691680E+02  0.12148729289E+02 -0.19598008428E+03  0.23807724804E+03  0.12499928723E+03 0.  0.
          2    1    1    2  501    0  0.18146088267E+02 -0.33048307757E+02 -0.49767389899E+03  0.49909997084E+03  0.00000000000E+00 0. -1.
          1    1    1    2  502    0  0.31855603413E+02  0.20899578468E+02  0.17895720243E+04  0.17899775423E+04  0.00000000000E+00 0. -1.
         22    1    3    3    0    0 -0.11582897015E+02 -0.26210206803E+02 -0.17887579029E+03  0.18115652568E+03  0.00000000000E+00 0.  1.
         22    1    3    3    0    0 -0.38418794665E+02  0.38358936091E+02 -0.17104293988E+02  0.56920722364E+02  0.00000000000E+00 0.  1.
</event>
<event>
 7    1  0.6105960E-006  0.4576154E+02  0.7818608E-02  0.1494189E+00
          2   -1    0    0  502    0  0.00000000000E+00  0.00000000000E+00  0.81058450076E+03  0.81058450076E+03  0.00000000000E+00 0. -1.
          1   -1    0    0  501    0 -0.00000000000E+00 -0.00000000000E+00 -0.42575331155E+02  0.42575331155E+02  0.00000000000E+00 0. -1.
         25    2    1    2    0    0 -0.38861191925E+02 -0.29021904380E+02  0.26799638654E+03  0.29966547267E+03  0.12499947656E+03 0.  0.
          2    1    1    2  501    0  0.45811244418E+02 -0.88398204155E+01 -0.50843063672E+01  0.46932533613E+02  0.00000000000E+00 0. -1.
          1    1    1    2  502    0 -0.69500524926E+01  0.37861724795E+02  0.50509708944E+03  0.50656182564E+03  0.00000000000E+00 0. -1.
         22    1    3    3    0    0  0.17260071174E+02 -0.64422315970E+02  0.15288753359E+03  0.16680150713E+03  0.00000000000E+00 0. -1.
         22    1    3    3    0    0 -0.56121263100E+02  0.35400411591E+02  0.11510885294E+03  0.13286396554E+03  0.00000000000E+00 0. -1.
</event>
<event>
 7    1  0.6105960E-006  0.3747637E+02  0.7818608E-02  0.1574810E+00
          2   -1    0    0  502    0  0.00000000000E+00  0.00000000000E+00  0.10233134192E+04  0.10233134192E+04  0.00000000000E+00 0. -1.
          1   -1    0    0  501    0 -0.00000000000E+00 -0.00000000000E+00 -0.27264328728E+03  0.27264328728E+03  0.00000000000E+00 0. -1.
         25    2    1    2    0    0  0.13766365991E+02  0.11194576286E+02  0.82243600352E+03  0.83207645702E+03  0.12504166934E+03 0.  0.
          2    1    1    2  501    0 -0.44002367509E+01 -0.37256860246E+02 -0.26551982788E+03  0.26815707098E+03  0.00000000000E+00 0. -1.
          1    1    1    2  502    0 -0.93661292406E+01  0.26062283960E+02  0.19375395626E+03  0.19572317847E+03  0.00000000000E+00 0. -1.
         22    1    3    3    0    0  0.97290894154E+01  0.31343807232E+02  0.80338313134E+03  0.80405319797E+03  0.00000000000E+00 0. -1.
         22    1    3    3    0    0  0.40372765761E+01 -0.20149230947E+02  0.19052872180E+02  0.28023259057E+02  0.00000000000E+00 0. -1.
</event>
<event>
 7    1  0.6105960E-006  0.7240545E+02  0.7818608E-02  0.1480870E+00
          2   -1    0    0  502    0  0.00000000000E+00  0.00000000000E+00  0.17442323324E+04  0.17442323324E+04  0.00000000000E+00 0. -1.
          1   -1    0    0  501    0 -0.00000000000E+00 -0.00000000000E+00 -0.51416564608E+03  0.51416564608E+03  0.00000000000E+00 0. -1.
         25    2    1    2    0    0  0.83117926522E+01  0.78185354918E+02  0.26325155362E+03  0.30184136474E+03  0.12499917347E+03 0.  0.
          2    1    1    2  501    0 -0.31604188675E+02 -0.65127106274E+02 -0.49210056788E+03  0.49739655570E+03  0.00000000000E+00 0. -1.
          1    1    1    2  502    0  0.23292396022E+02 -0.13058248644E+02  0.14589157006E+04  0.14591600580E+04  0.00000000000E+00 0. -1.
         22    1    3    3    0    0  0.21025047428E+02  0.59367139531E+02  0.27070860897E+03  0.27793823207E+03  0.00000000000E+00 0.  1.
         22    1    3    3    0    0 -0.12713254776E+02  0.18818215386E+02 -0.74570553497E+01  0.23903132678E+02  0.00000000000E+00 0.  1.
</event>
<event>
 7    1  0.6105960E-006  0.2930686E+02  0.7818608E-02  0.1607582E+00
          2   -1    0    0  502    0  0.00000000000E+00  0.00000000000E+00  0.24096038050E+03  0.24096038050E+03  0.00000000000E+00 0. -1.
          1   -1    0    0  501    0 -0.00000000000E+00 -0.00000000000E+00 -0.85672160540E+02  0.85672160540E+02  0.00000000000E+00 0. -1.
         25    2    1    2    0    0  0.14020680907E+02 -0.20559466673E+02  0.56331920686E+02  0.13934730744E+03  0.12500046256E+03 0.  0.
          2    1    1    2  501    0  0.14344088735E+02  0.26647327711E+02 -0.37267092749E+02  0.48006969887E+02  0.00000000000E+00 0. -1.
          1    1    1    2  502    0 -0.28364769642E+02 -0.60878610382E+01  0.13622339203E+03  0.13927826372E+03  0.00000000000E+00 0. -1.
         22    1    3    3    0    0  0.26677663901E+02  0.44869411192E+02  0.17802815797E+00  0.52201470343E+02  0.00000000000E+00 0. -1.
         22    1    3    3    0    0 -0.12656982994E+02 -0.65428877865E+02  0.56153892528E+02  0.87145837096E+02  0.00000000000E+00 0. -1.
</event>
<event>
 7    1  0.6105960E-006  0.1375600E+03  0.7818608E-02  0.1361052E+00
          2   -1    0    0  502    0  0.00000000000E+00  0.00000000000E+00  0.11028927890E+04  0.11028927890E+04  0.00000000000E+00 0. -1.
          1   -1    0    0  501    0 -0.00000000000E+00 -0.00000000000E+00 -0.22433959946E+03  0.22433959946E+03  0.00000000000E+00 0. -1.
         25    2    1    2    0    0  0.12527686949E+03 -0.11112293290E+03  0.13046922700E+03  0.24636002235E+03  0.12501376393E+03 0.  0.
          2    1    1    2  501    0 -0.33060130486E+02  0.12473807069E+02 -0.15946441050E+03  0.16333237985E+03  0.00000000000E+00 0. -1.
          1    1    1    2  502    0 -0.92216739007E+02  0.98649125836E+02  0.90754837305E+03  0.91753998627E+03  0.00000000000E+00 0. -1.
         22    1    3    3    0    0  0.84733011439E+02 -0.40113578382E+02  0.13512206226E+03  0.16445897393E+03  0.00000000000E+00 0. -1.
         22    1    3    3    0    0  0.40543858054E+02 -0.71009354523E+02 -0.46528352601E+01  0.81901048416E+02  0.00000000000E+00 0. -1.
</event>
<event>
 7    1  0.6105960E-006  0.3990853E+02  0.7818608E-02  0.1576302E+00
          2   -1    0    0  502    0  0.00000000000E+00  0.00000000000E+00  0.32471615034E+03  0.32471615034E+03  0.00000000000E+00 0. -1.
          1   -1    0    0  501    0 -0.00000000000E+00 -0.00000000000E+00 -0.14541688115E+03  0.14541688115E+03  0.00000000000E+00 0. -1.
         25    2    1    2    0    0  0.12647330562E+02  0.21964679540E+02 -0.36638747349E+01  0.12759690789E+03  0.12500057923E+03 0.  0.
          2    1    1    2  501    0  0.24823526011E+02 -0.69070730099E+01 -0.76100304480E+02  0.80344081569E+02  0.00000000000E+00 0. -1.
          1    1    1    2  502    0 -0.37470856573E+02 -0.15057606530E+02  0.25906344840E+03  0.26219204203E+03  0.00000000000E+00 0. -1.
         22    1    3    3    0    0  0.28462009724E+02  0.66923635621E+02  0.18492940256E+02  0.75038975483E+02  0.00000000000E+00 0.  1.
         22    1    3    3    0    0 -0.15814679161E+02 -0.44958956081E+02 -0.22156814991E+02  0.52557932411E+02  0.00000000000E+00 0.  1.
</event>
<event>
 7    1  0.6105960E-006  0.7309801E+02  0.7818608E-02  0.1504887E+00
          2   -1    0    0  502    0  0.00000000000E+00  0.00000000000E+00  0.30819499851E+04  0.30819499851E+04  0.00000000000E+00 0. -1.
          1   -1    0    0  501    0 -0.00000000000E+00 -0.00000000000E+00 -0.23886137103E+03  0.23886137103E+03  0.00000000000E+00 0. -1.
         25    2    1    2    0    0 -0.62691900356E+02 -0.92969190699E+01  0.52820655840E+02  0.14977309290E+03  0.12500100239E+03 0.  0.
          2    1    1    2  501    0 -0.34363066783E+01 -0.22124292575E+02 -0.18927564803E+03  0.19059528710E+03  0.00000000000E+00 0. -1.
          1    1    1    2  502    0  0.66128207034E+02  0.31421211645E+02  0.29795436063E+04  0.29804429761E+04  0.00000000000E+00 0. -1.
         22    1    3    3    0    0 -0.73130582568E+02 -0.23572551364E+02 -0.16198025903E+02  0.78524667001E+02  0.00000000000E+00 0. -1.
         22    1    3    3    0    0  0.10438682212E+02  0.14275632294E+02  0.69018681744E+02  0.71248425901E+02  0.00000000000E+00 0. -1.
</event>
<event>
 7    1  0.6105960E-006  0.8691129E+02  0.7818608E-02  0.1372207E+00
          2   -1    0    0  502    0  0.00000000000E+00  0.00000000000E+00  0.28853462779E+02  0.28853462779E+02  0.00000000000E+00 0. -1.
          1   -1    0    0  501    0 -0.00000000000E+00 -0.00000000000E+00 -0.26766737013E+04  0.26766737013E+04  0.00000000000E+00 0. -1.
         25    2    1    2    0    0  0.67090316787E+02 -0.59579209183E+02 -0.16288244458E+04  0.16360759346E+04  0.12499838300E+03 0.  0.
          2    1    1    2  501    0 -0.24296231741E+02  0.87267243673E+02 -0.10142204469E+04  0.10182578227E+04  0.00000000000E+00 0. -1.
          1    1    1    2  502    0 -0.42794085046E+02 -0.27688034490E+02 -0.47753458671E+01  0.51193406773E+02  0.00000000000E+00 0. -1.
         22    1    3    3    0    0  0.77146910029E+02  0.14449899527E+02 -0.91059267915E+03  0.91396907642E+03  0.00000000000E+00 0.  1.
         22    1    3    3    0    0 -0.10056593242E+02 -0.74029108710E+02 -0.71823176666E+03  0.72210685819E+03  0.00000000000E+00 0.  1.
</event>
<event>
 7    1  0.6105960E-006  0.1008766E+03  0.7818608E-02  0.1341265E+00
          2   -1    0    0  502    0  0.00000000000E+00  0.00000000000E+00  0.42203408743E+03  0.42203408743E+03  0.00000000000E+00 0. -1.
          1   -1    0    0  501    0 -0.00000000000E+00 -0.00000000000E+00 -0.63547917608E+03  0.63547917608E+03  0.00000000000E+00 0. -1.
         25    2    1    2    0    0 -0.10702584068E+03  0.61008312134E+02  0.45527519277E+02  0.18130749608E+03  0.12499243338E+03 0.  0.
          2    1    1    2  501    0  0.74926095106E+01 -0.56534868855E+02 -0.55805650659E+03  0.56096291780E+03  0.00000000000E+00 0. -1.
          1    1    1    2  502    0  0.99533231165E+02 -0.44734432782E+01  0.29908389867E+03  0.31524284963E+03  0.00000000000E+00 0. -1.
         22    1    3    3    0    0 -0.99158666174E+02  0.64512092782E+02  0.81931074882E+02  0.14389910432E+03  0.00000000000E+00 0. -1.
         22    1    3    3    0    0 -0.78671745016E+01 -0.35037806485E+01 -0.36403555606E+02  0.37408391762E+02  0.00000000000E+00 0. -1.
</event>
<event>
 7    1  0.6105960E-006  0.1196470E+03  0.7818608E-02  0.1309333E+00
          2   -1    0    0  502    0  0.00000000000E+00  0.00000000000E+00  0.21751965125E+04  0.21751965125E+04  0.00000000000E+00 0. -1.
          1   -1    0    0  501    0 -0.00000000000E+00 -0.00000000000E+00 -0.24659554860E+03  0.24659554860E+03  0.00000000000E+00 0. -1.
         25    2    1    2    0    0  0.74269735165E+02 -0.10405390125E+03  0.11944052703E+03  0.21502385052E+03  0.12500403540E+03 0.  0.
          2    1    1    2  501    0 -0.12421665531E+02  0.11975229148E+03 -0.18001762164E+03  0.21656697160E+03  0.00000000000E+00 0. -1.
          1    1    1    2  502    0 -0.61848069633E+02 -0.15698390230E+02  0.19891780585E+04  0.19902012389E+04  0.00000000000E+00 0. -1.
         22    1    3    3    0    0  0.14510511009E+01  0.20365412991E+02  0.52004398228E+02  0.55868712449E+02  0.00000000000E+00 0.  1.
         22    1    3    3    0    0  0.72818684064E+02 -0.12441931424E+03  0.67436128798E+02  0.15915513807E+03  0.00000000000E+00 0.  1.
</event>
<event>
 7    1  0.6105960E-006  0.9490766E+02  0.7818608E-02  0.1461594E+00
          2   -1    0    0  502    0  0.00000000000E+00  0.00000000000E+00  0.19860419367E+03  0.19860419367E+03  0.00000000000E+00 0. -1.
          1   -1    0    0  501    0 -0.00000000000E+00 -0.00000000000E+00 -0.60990863717E+03  0.60990863717E+03  0.00000000000E+00 0. -1.
         25    2    1    2    0    0  0.28151454067E+02 -0.67508732856E+02 -0.31278918409E+03  0.34469345976E+03  0.12500629641E+03 0.  0.
          2    1    1    2  501    0  0.22934301816E+01 -0.23269706319E+02 -0.26807542479E+03  0.26909324115E+03  0.00000000000E+00 0. -1.
          1    1    1    2  502    0 -0.30444884249E+02  0.90778439175E+02  0.16956016538E+03  0.19472612994E+03  0.00000000000E+00 0. -1.
         22    1    3    3    0    0  0.54912836217E+02 -0.79389780454E+02 -0.29509476883E+03  0.31048201142E+03  0.00000000000E+00 0.  1.
         22    1    3    3    0    0 -0.26761382150E+02  0.11881047597E+02 -0.17694415257E+02  0.34211448345E+02  0.00000000000E+00 0.  1.
</event>
<event>
 7    1  0.6105960E-006  0.1145709E+03  0.7818608E-02  0.1453097E+00
          2   -1    0    0  502    0  0.00000000000E+00  0.00000000000E+00  0.65266534796E+03  0.65266534796E+03  0.00000000000E+00 0. -1.
          1   -1    0    0  501    0 -0.00000000000E+00 -0.00000000000E+00 -0.74049083113E+02  0.74049083113E+02  0.00000000000E+00 0. -1.
         25    2    1    2    0    0  0.10967873244E+03  0.72023607389E+02  0.26609677603E+03  0.32194646967E+03  0.12500084301E+03 0.  0.
          2    1    1    2  501    0 -0.91220922340E+02 -0.62859734845E+02  0.21288387378E+02  0.11280868040E+03  0.00000000000E+00 0. -1.
          1    1    1    2  502    0 -0.18457810095E+02 -0.91638725433E+01  0.29123110144E+03  0.29195928099E+03  0.00000000000E+00 0. -1.
         22    1    3    3    0    0  0.88052224335E+02  0.39948188923E+02  0.63472795903E+02  0.11566264664E+03  0.00000000000E+00 0.  1.
         22    1    3    3    0    0  0.21626508100E+02  0.32075418466E+02  0.20262398013E+03  0.20628382303E+03  0.00000000000E+00 0.  1.
</event>
<event>
 7    1  0.6105960E-006  0.5635117E+02  0.7818608E-02  0.1424801E+00
          2   -1    0    0  502    0  0.00000000000E+00  0.00000000000E+00  0.80753162412E+03  0.80753162412E+03  0.00000000000E+00 0. -1.
          1   -1    0    0  501    0 -0.00000000000E+00 -0.00000000000E+00 -0.16660854191E+04  0.16660854191E+04  0.00000000000E+00 0. -1.
         25    2    1    2    0    0  0.27154540726E+02 -0.10357533839E+03  0.47625575082E+02  0.17134159241E+03  0.12499810432E+03 0.  0.
          2    1    1    2  501    0 -0.10318484784E+02  0.50742906541E+02 -0.16027074275E+04  0.16035437044E+04  0.00000000000E+00 0. -1.
          1    1    1    2  502    0 -0.16836055942E+02  0.52832431853E+02  0.69652805745E+03  0.69873174642E+03  0.00000000000E+00 0. -1.
         22    1    3    3    0    0 -0.35028936549E+02 -0.21916342406E+02 -0.22484914316E+02  0.47041724373E+02  0.00000000000E+00 0. -1.
         22    1    3    3    0    0  0.62183477275E+02 -0.81658995987E+02  0.70110489398E+02  0.12429986804E+03  0.00000000000E+00 0. -1.
</event>
<event>
 7    1  0.6105960E-006  0.6363000E+02  0.7818608E-02  0.1472011E+00
          2   -1    0    0  502    0  0.00000000000E+00  0.00000000000E+00  0.49648858716E+02  0.49648858716E+02  0.00000000000E+00 0. -1.
          1   -1    0    0  501    0 -0.00000000000E+00 -0.00000000000E+00 -0.14496421155E+04  0.14496421155E+04  0.00000000000E+00 0. -1.
         25    2    1    2    0    0  0.33516672745E+02 -0.14338249136E+02 -0.15372927254E+03  0.20146030542E+03  0.12499845073E+03 0.  0.
          2    1    1    2  501    0 -0.64456171285E+02  0.48629379498E+01 -0.12607302586E+04  0.12623862449E+04  0.00000000000E+00 0. -1.
          1    1    1    2  502    0  0.30939498540E+02  0.94753111865E+01  0.14466274403E+02  0.35444423921E+02  0.00000000000E+00 0. -1.
         22    1    3    3    0    0 -0.19226827354E+02 -0.56882602511E+02 -0.53181742632E+02  0.80209719535E+02  0.00000000000E+00 0.  1.
         22    1    3    3    0    0  0.52743500099E+02  0.42544353374E+02 -0.10054752991E+03  0.12125058589E+03  0.00000000000E+00 0.  1.
</event>
<event>
 7    1  0.6105960E-006  0.1133695E+03  0.7818608E-02  0.1343246E+00
          2   -1    0    0  502    0  0.00000000000E+00  0.00000000000E+00  0.78903131868E+03  0.78903131868E+03  0.00000000000E+00 0. -1.
          1   -1    0    0  501    0 -0.00000000000E+00 -0.00000000000E+00 -0.14478521028E+03  0.14478521028E+03  0.00000000000E+00 0. -1.
         25    2    1    2    0    0  0.21692016765E+02 -0.15366572111E+03  0.81866630010E+02  0.21543645261E+03  0.12500809001E+03 0.  0.
          2    1    1    2  501    0 -0.24906270808E+02  0.43221743886E+02 -0.64667928146E+02  0.81672409055E+02  0.00000000000E+00 0. -1.
          1    1    1    2  502    0  0.32142540431E+01  0.11044397723E+03  0.62704740654E+03  0.63670766729E+03  0.00000000000E+00 0. -1.
         22    1    3    3    0    0  0.11655803668E+02  0.20884923940E+02  0.49386399831E+01  0.24421874866E+02  0.00000000000E+00 0. -1.
         22    1    3    3    0    0  0.10036213097E+02 -0.17455064505E+03  0.76927990027E+02  0.19101457775E+03  0.00000000000E+00 0. -1.
</event>
<event>
 7    1  0.6105960E-006  0.2499014E+03  0.7818608E-02  0.1299929E+00
          2   -1    0    0  502    0  0.00000000000E+00  0.00000000000E+00  0.90825537320E+03  0.90825537320E+03  0.00000000000E+00 0. -1.
          1   -1    0    0  501    0 -0.00000000000E+00 -0.00000000000E+00 -0.11819324065E+04  0.11819324065E+04  0.00000000000E+00 0. -1.
         25    2    1    2    0    0  0.67373977923E+01  0.27375857335E+03 -0.82124739882E+03  0.87467786751E+03  0.12499973135E+03 0.  0.
          2    1    1    2  501    0  0.20952581325E+02 -0.25876648455E+02 -0.31543297298E+03  0.31718539065E+03  0.00000000000E+00 0. -1.
          1    1    1    2  502    0 -0.27689979117E+02 -0.24788192490E+03  0.86300333853E+03  0.89832452151E+03  0.00000000000E+00 0. -1.
         22    1    3    3    0    0 -0.47810954480E+02  0.20952746427E+03 -0.63124672070E+03  0.66682836476E+03  0.00000000000E+00 0.  1.
         22    1    3    3    0    0  0.54548352273E+02  0.64231109080E+02 -0.19000067812E+03  0.20784950275E+03  0.00000000000E+00 0.  1.
</event>
<event>
 7    1  0.6105960E-006  0.8045019E+02  0.7818608E-02  0.1475020E+00
          2   -1    0    0  502    0  0.00000000000E+00  0.00000000000E+00  0.12702532577E+04  0.12702532577E+04  0.00000000000E+00 0. -1.
          1   -1    0    0  501    0 -0.00000000000E+00 -0.00000000000E+00 -0.32218974644E+03  0.32218974644E+03  0.00000000000E+00 0. -1.
         25    2    1    2    0    0  0.96460671576E+02 -0.46254968196E+01 -0.37866604006E+00  0.15796670623E+03  0.12500912169E+03 0.  0.
          2    1    1    2  501    0 -0.19024448843E+02 -0.16295804536E+02 -0.24101716335E+03  0.24231540588E+03  0.00000000000E+00 0. -1.
          1    1    1    2  502    0 -0.77436222733E+02  0.20921301356E+02  0.11894593406E+04  0.11921608920E+04  0.00000000000E+00 0. -1.
         22    1    3    3    0    0  0.80605477033E+01 -0.37577801101E+02 -0.40154110672E+02  0.55582516754E+02  0.00000000000E+00 0.  1.
         22    1    3    3    0    0  0.88400123873E+02  0.32952304281E+02  0.39775444632E+02  0.10238418947E+03  0.00000000000E+00 0.  1.
</event>
<event>
 7    1  0.6105960E-006  0.5774194E+02  0.7818608E-02  0.1469648E+00
          2   -1    0    0  502    0  0.00000000000E+00  0.00000000000E+00  0.17703208174E+03  0.17703208174E+03  0.00000000000E+00 0. -1.
          1   -1    0    0  501    0 -0.00000000000E+00 -0.00000000000E+00 -0.11822422232E+03  0.11822422232E+03  0.00000000000E+00 0. -1.
         25    2    1    2    0    0  0.23514963108E+02 -0.57482782901E+02  0.30917938596E+02  0.14296387967E+03  0.12500211255E+03 0.  0.
          2    1    1    2  501    0  0.25715811859E+02  0.25571280600E+02 -0.45595884629E+02  0.58259574889E+02  0.00000000000E+00 0. -1.
          1    1    1    2  502    0 -0.49230774967E+02  0.31911502300E+02  0.73485805452E+02  0.94032849504E+02  0.00000000000E+00 0. -1.
         22    1    3    3    0    0  0.39537713437E+02 -0.46884841788E+02  0.73810597191E+02  0.95965740924E+02  0.00000000000E+00 0.  1.
         22    1    3    3    0    0 -0.16022750329E+02 -0.10597941113E+02 -0.42892658595E+02  0.46998138743E+02  0.00000000000E+00 0.  1.
</event>
<event>
 7    1  0.6105960E-006  0.1244220E+03  0.7818608E-02  0.1310592E+00
          2   -1    0    0  502    0  0.00000000000E+00  0.00000000000E+00  0.16763948167E+03  0.16763948167E+03  0.00000000000E+00 0. -1.
          1   -1    0    0  501    0 -0.00000000000E+00 -0.00000000000E+00 -0.22065668726E+04  0.22065668726E+04  0.00000000000E+00 0. -1.
         25    2    1    2    0    0  0.15765041536E+03  0.22947486827E+02 -0.31786471805E+03  0.37688585962E+03  0.12499892635E+03 0.  0.
          2    1    1    2  501    0 -0.10808340935E+03 -0.57921032267E+02 -0.18504024171E+04  0.18544611008E+04  0.00000000000E+00 0. -1.
          1    1    1    2  502    0 -0.49567006011E+02  0.34973545440E+02  0.12933974421E+03  0.14285939380E+03  0.00000000000E+00 0. -1.
         22    1    3    3    0    0  0.10089749682E+03  0.16192859311E+02 -0.30012130745E+03  0.31704150003E+03  0.00000000000E+00 0. -1.
         22    1    3    3    0    0  0.56752918537E+02  0.67546275159E+01 -0.17743410604E+02  0.59844359594E+02  0.00000000000E+00 0. -1.
</event>
<event>
 7    1  0.6105960E-006  0.4475051E+02  0.7818608E-02  0.1485150E+00
          2   -1    0    0  502    0  0.00000000000E+00  0.00000000000E+00  0.68511633670E+03  0.68511633670E+03  0.00000000000E+00 0. -1.
          1   -1    0    0  501    0 -0.00000000000E+00 -0.00000000000E+00 -0.10769877252E+04  0.10769877252E+04  0.00000000000E+00 0. -1.
         25    2    1    2    0    0  0.36106294819E+02 -0.48479080608E+02  0.51438576915E+03  0.53279662038E+03  0.12500253358E+03 0.  0.
          2    1    1    2  501    0 -0.44146556888E+02  0.73337103931E+01 -0.10645839657E+04  0.10655241535E+04  0.00000000000E+00 0. -1.
          1    1    1    2  502    0  0.80402620688E+01  0.41145370215E+02  0.15832680800E+03  0.16378328802E+03  0.00000000000E+00 0. -1.
         22    1    3    3    0    0  0.29569830817E+02  0.24251011486E+02  0.35985115186E+03  0.36187751788E+03  0.00000000000E+00 0. -1.
         22    1    3    3    0    0  0.65364640027E+01 -0.72730092095E+02  0.15453461730E+03  0.17091910250E+03  0.00000000000E+00 0. -1.
</event>
<event>
 7    1  0.6105960E-006  0.4798907E+02  0.7818608E-02  0.1470086E+00
          2   -1    0    0  502    0  0.00000000000E+00  0.00000000000E+00  0.14931000800E+02  0.14931000800E+02  0.00000000000E+00 0. -1.
          1   -1    0    0  501    0 -0.00000000000E+00 -0.00000000000E+00 -0.10481866542E+04  0.10481866542E+04  0.00000000000E+00 0. -1.
         25    2    1    2    0    0  0.12243702216E+02 -0.18094696928E+02 -0.43151661539E+03  0.44978651191E+03  0.12499596251E+03 0.  0.
          2    1    1    2  501    0  0.43367355020E+02  0.20548074990E+02 -0.43291713171E+03  0.43556881637E+03  0.00000000000E+00 0. -1.
          1    1    1    2  502    0 -0.55611057236E+02 -0.24533780625E+01 -0.16882190627E+03  0.17776232668E+03  0.00000000000E+00 0. -1.
         22    1    3    3    0    0 -0.46173812126E+02  0.25761541548E+02 -0.15433054400E+03  0.16313673639E+03  0.00000000000E+00 0. -1.
         22    1    3    3    0    0  0.58417514342E+02 -0.43856238476E+02 -0.27718607139E+03  0.28664977552E+03  0.00000000000E+00 0. -1.
</event>
<event>
 7    1  0.6105960E-006  0.1366808E+03  0.7818608E-02  0.1352636E+00
          2   -1    0    0  502    0  0.00000000000E+00  0.00000000000E+00  0.35035883054E+03  0.35035883054E+03  0.00000000000E+00 0. -1.
          1   -1    0    0  501    0 -0.00000000000E+00 -0.00000000000E+00 -0.41870768047E+03  0.41870768047E+03  0.00000000000E+00 0. -1.
         25    2    1    2    0    0  0.13274014710E+03 -0.31037205231E+02 -0.10470811261E+03  0.21253681953E+03  0.12499942420E+03 0.  0.
          2    1    1    2  501    0 -0.13798850021E+03 -0.67817711109E+01 -0.24033460519E+03  0.27721389046E+03  0.00000000000E+00 0. -1.
          1    1    1    2  502    0  0.52483531125E+01  0.37818976342E+02  0.27669386787E+03  0.27931580102E+03  0.00000000000E+00 0. -1.
         22    1    3    3    0    0  0.11215421484E+03  0.33591684570E+02 -0.63925638124E+02  0.13339211517E+03  0.00000000000E+00 0.  1.
         22    1    3    3    0    0  0.20585932261E+02 -0.64628889802E+02 -0.40782474488E+02  0.79144704367E+02  0.00000000000E+00 0.  1.
</event>
<event>
 7    1  0.6105960E-006  0.9858046E+02  0.7818608E-02  0.1369349E+00
          2   -1    0    0  502    0  0.00000000000E+00  0.00000000000E+00  0.63766718674E+03  0.63766718674E+03  0.00000000000E+00 0. -1.
          1   -1    0    0  501    0 -0.00000000000E+00 -0.00000000000E+00 -0.12217218005E+04  0.12217218005E+04  0.00000000000E+00 0. -1.
         25    2    1    2    0    0  0.42736700490E+02  0.68351775443E+02 -0.31455278734E+03  0.34794652040E+03  0.12499973705E+03 0.  0.
          2    1    1    2  501    0 -0.86879357775E+02 -0.55372732054E+02 -0.88663293159E+03  0.89259851985E+03  0.00000000000E+00 0. -1.
          1    1    1    2  502    0  0.44142657285E+02 -0.12979043389E+02  0.61713110516E+03  0.61884394698E+03  0.00000000000E+00 0. -1.
         22    1    3    3    0    0  0.24498149984E+02  0.10233454071E+03 -0.26518738248E+03  0.28530135892E+03  0.00000000000E+00 0.  1.
         22    1    3    3    0    0  0.18238550506E+02 -0.33982765272E+02 -0.49365404853E+02  0.62645161476E+02  0.00000000000E+00 0.  1.
</event>
<event>
 7    1  0.6105960E-006  0.1158115E+03  0.7818608E-02  0.1256760E+00
          2   -1    0    0  502    0  0.00000000000E+00  0.00000000000E+00  0.15335828252E+04  0.15335828252E+04  0.00000000000E+00 0. -1.
          1   -1    0    0  501    0 -0.00000000000E+00 -0.00000000000E+00 -0.15549478446E+03  0.15549478446E+03  0.00000000000E+00 0. -1.
         25    2    1    2    0    0  0.17714406318E+03  0.95314099141E+02  0.41653667353E+03  0.47915809886E+03  0.12499954678E+03 0.  0.
          2    1    1    2  501    0 -0.10794851645E+03 -0.10679911601E+02 -0.97131558676E+02  0.14560728830E+03  0.00000000000E+00 0. -1.
          1    1    1    2  502    0 -0.69195546726E+02 -0.84634187541E+02  0.10586829259E+04  0.10643122225E+04  0.00000000000E+00 0. -1.
         22    1    3    3    0    0 -0.98584333482E+00  0.10638453415E+02  0.13492884615E+03  0.13535118065E+03  0.00000000000E+00 0. -1.
         22    1    3    3    0    0  0.17812990651E+03  0.84675645727E+02  0.28160782738E+03  0.34380691821E+03  0.00000000000E+00 0. -1.
</event>
<event>
 7    1  0.6105960E-006  0.4620366E+02  0.7818608E-02  0.1520661E+00
          2   -1    0    0  502    0  0.00000000000E+00  0.00000000000E+00  0.13138996210E+04  0.13138996210E+04  0.00000000000E+00 0. -1.
          1   -1    0    0  501    0 -0.00000000000E+00 -0.00000000000E+00 -0.21505849105E+02  0.21505849105E+02  0.00000000000E+00 0. -1.
         25    2    1    2    0    0 -0.33582830601E+02  0.55980486367E+02  0.94860658715E+03  0.95903191288E+03  0.12500452536E+03 0.  0.
          2    1    1    2  501    0  0.28696876039E+02 -0.13801537361E+02  0.19430957915E+01  0.31902488135E+02  0.00000000000E+00 0. -1.
          1    1    1    2  502    0  0.48859545619E+01 -0.42178949006E+02  0.34184408893E+03  0.34447106907E+03  0.00000000000E+00 0. -1.
         22    1    3    3    0    0 -0.63185069019E+02  0.77062085987E+01  0.74447954818E+03  0.74719578174E+03  0.00000000000E+00 0. -1.
         22    1    3    3    0    0  0.29602238418E+02  0.48274277768E+02  0.20412703897E+03  0.21183613113E+03  0.00000000000E+00 0. -1.
</event>
<event>
 7    1  0.6105960E-006  0.5714319E+02  0.7818608E-02  0.1455370E+00
          2   -1    0    0  502    0  0.00000000000E+00  0.00000000000E+00  0.35302561370E+03  0.35302561370E+03  0.00000000000E+00 0. -1.
          1   -1    0    0  501    0 -0.00000000000E+00 -0.00000000000E+00 -0.19546405920E+03  0.19546405920E+03  0.00000000000E+00 0. -1.
         25    2    1    2    0    0  0.73017749181E+02 -0.42492122095E+02 -0.68493670266E+02  0.16568483996E+03  0.12499164449E+03 0.  0.
          2    1    1    2  501    0 -0.32387266265E+02  0.41856871030E+02 -0.67880376929E+02  0.86073679140E+02  0.00000000000E+00 0. -1.
          1    1    1    2  502    0 -0.40630482916E+02  0.63525106534E+00  0.29393560169E+03  0.29673115379E+03  0.00000000000E+00 0. -1.
         22    1    3    3    0    0 -0.17482147725E+02  0.29138865604E+02 -0.62419802691E+01  0.34549403692E+02  0.00000000000E+00 0. -1.
         22    1    3    3    0    0  0.90499896907E+02 -0.71630987699E+02 -0.62251689997E+02  0.13113543627E+03  0.00000000000E+00 0. -1.
</event>
<event>
 7    1  0.6105960E-006  0.5868728E+02  0.7818608E-02  0.1415592E+00
          2   -1    0    0  502    0  0.00000000000E+00  0.00000000000E+00  0.19099260169E+04  0.19099260169E+04  0.00000000000E+00 0. -1.
          1   -1    0    0  501    0 -0.00000000000E+00 -0.00000000000E+00 -0.17773103192E+02  0.17773103192E+02  0.00000000000E+00 0. -1.
         25    2    1    2    0    0  0.50350601594E+02  0.78064382216E+02  0.84428878488E+03  0.85853235032E+03  0.12500005365E+03 0.  0.
          2    1    1    2  501    0 -0.50888006953E+02 -0.24698882738E+02  0.70686560137E+02  0.90532943419E+02  0.00000000000E+00 0. -1.
          1    1    1    2  502    0  0.53740535981E+00 -0.53365499478E+02  0.97717756872E+03  0.97863382639E+03  0.00000000000E+00 0. -1.
         22    1    3    3    0    0 -0.17951465910E+02 -0.25723835776E+02  0.18428107192E+03  0.18693176382E+03  0.00000000000E+00 0.  1.
         22    1    3    3    0    0  0.68302067503E+02  0.10378821799E+03  0.66000771296E+03  0.67160058650E+03  0.00000000000E+00 0.  1.
</event>
<event>
 7    1  0.6105960E-006  0.8819873E+02  0.7818608E-02  0.1328189E+00
          2   -1    0    0  502    0  0.00000000000E+00  0.00000000000E+00  0.11386232428E+04  0.11386232428E+04  0.00000000000E+00 0. -1.
          1   -1    0    0  501    0 -0.00000000000E+00 -0.00000000000E+00 -0.33088226351E+03  0.33088226351E+03  0.00000000000E+00 0. -1.
         25    2    1    2    0    0 -0.41563712410E+02  0.44102628408E+02  0.78123259124E+02  0.15936693692E+03  0.12498797120E+03 0.  0.
          2    1    1    2  501    0 -0.48588315683E+02 -0.54638025281E+02 -0.28359473457E+03  0.29286876191E+03  0.00000000000E+00 0. -1.
          1    1    1    2  502    0  0.90152028093E+02  0.10535396873E+02  0.10132124547E+04  0.10172698075E+04  0.00000000000E+00 0. -1.
         22    1    3    3    0    0 -0.52038478204E+02  0.83327074403E+02  0.57470724103E+02  0.11381690855E+03  0.00000000000E+00 0.  1.
         22    1    3    3    0    0  0.10474765794E+02 -0.39224445995E+02  0.20652535021E+02  0.45550028373E+02  0.00000000000E+00 0.  1.
</event>
<event>
 7    1  0.6105960E-006  0.6150935E+02  0.7818608E-02  0.1420920E+00
          2   -1    0    0  502    0  0.00000000000E+00  0.00000000000E+00  0.56352707772E+03  0.56352707772E+03  0.00000000000E+00 0. -1.
          1   -1    0    0  501    0 -0.00000000000E+00 -0.00000000000E+00 -0.13920651378E+04  0.13920651378E+04  0.00000000000E+00 0. -1.
         25    2    1    2    0    0  0.42411818312E+02 -0.54908069539E+02  0.68891930942E+02  0.15873473097E+03  0.12504782379E+03 0.  0.
          2    1    1    2  501    0  0.18799806375E+02  0.45109232820E+02 -0.13445614189E+04  0.13454492502E+04  0.00000000000E+00 0. -1.
          1    1    1    2  502    0 -0.61211624688E+02  0.97988367186E+01  0.44713142792E+03  0.45140823434E+03  0.00000000000E+00 0. -1.
         22    1    3    3    0    0 -0.40484615260E+02  0.19102818639E+01  0.32138471151E+02  0.51725569861E+02  0.00000000000E+00 0. -1.
         22    1    3    3    0    0  0.82896433572E+02 -0.56818351403E+02  0.36753459791E+02  0.10700916111E+03  0.00000000000E+00 0. -1.
</event>
<event>
 7    1  0.6105960E-006  0.1726113E+03  0.7818608E-02  0.1357084E+00
          2   -1    0    0  502    0  0.00000000000E+00  0.00000000000E+00  0.62613889420E+03  0.62613889420E+03  0.00000000000E+00 0. -1.
          1   -1    0    0  501    0 -0.00000000000E+00 -0.00000000000E+00 -0.99838844016E+03  0.99838844016E+03  0.00000000000E+00 0. -1.
         25    2    1    2    0    0 -0.16351465765E+03 -0.77352958653E+02  0.26654375216E+03  0.34553010586E+03  0.12499983503E+03 0.  0.
          2    1    1    2  501    0  0.14235267539E+03  0.97350731289E+02 -0.95045714572E+03  0.96597631178E+03  0.00000000000E+00 0. -1.
          1    1    1    2  502    0  0.21161982265E+02 -0.19997772636E+02  0.31166384760E+03  0.31302091672E+03  0.00000000000E+00 0. -1.
         22    1    3    3    0    0 -0.10284877189E+03 -0.11032430314E+03  0.18317953027E+03  0.23728476996E+03  0.00000000000E+00 0.  1.
         22    1    3    3    0    0 -0.60665885769E+02  0.32971344489E+02  0.83364221888E+02  0.10824533590E+03  0.00000000000E+00 0.  1.
</event>
<event>
 7    1  0.6105960E-006  0.4450468E+03  0.7818608E-02  0.1207413E+00
          2   -1    0    0  502    0  0.00000000000E+00  0.00000000000E+00  0.11556878268E+04  0.11556878268E+04  0.00000000000E+00 0. -1.
          1   -1    0    0  501    0 -0.00000000000E+00 -0.00000000000E+00 -0.83846400655E+03  0.83846400655E+03  0.00000000000E+00 0. -1.
         25    2    1    2    0    0  0.43654448355E+03  0.20343717307E+03 -0.41238889118E+02  0.49928321369E+03  0.12500124795E+03 0.  0.
          2    1    1    2  501    0 -0.32706544626E+02 -0.33627479464E+02 -0.51530082256E+03  0.51743160241E+03  0.00000000000E+00 0. -1.
          1    1    1    2  502    0 -0.40383793892E+03 -0.16980969360E+03  0.87376353195E+03  0.97743701726E+03  0.00000000000E+00 0. -1.
         22    1    3    3    0    0  0.16328584082E+03  0.43764661064E+02  0.37472973234E+02  0.17315263525E+03  0.00000000000E+00 0.  1.
         22    1    3    3    0    0  0.27325864273E+03  0.15967251200E+03 -0.78711862352E+02  0.32613057843E+03  0.00000000000E+00 0.  1.
</event>
<event>
 7    1  0.6105960E-006  0.5000759E+02  0.7818608E-02  0.1449582E+00
          2   -1    0    0  502    0  0.00000000000E+00  0.00000000000E+00  0.16198751676E+03  0.16198751676E+03  0.00000000000E+00 0. -1.
          1   -1    0    0  501    0 -0.00000000000E+00 -0.00000000000E+00 -0.19426307441E+04  0.19426307441E+04  0.00000000000E+00 0. -1.
         25    2    1    2    0    0  0.54993448954E+02 -0.55825667289E+02 -0.12855199157E+03  0.19568182145E+03  0.12499990461E+03 0.  0.
          2    1    1    2  501    0 -0.49269564978E+02  0.77157511520E+01 -0.17755817089E+04  0.17762819112E+04  0.00000000000E+00 0. -1.
          1    1    1    2  502    0 -0.57238839759E+01  0.48109916137E+02  0.12349047321E+03  0.13265452820E+03  0.00000000000E+00 0. -1.
         22    1    3    3    0    0  0.23569705292E+02 -0.70774306198E+02 -0.14034644759E+03  0.15893916690E+03  0.00000000000E+00 0.  1.
         22    1    3    3    0    0  0.31423743663E+02  0.14948638909E+02  0.11794456011E+02  0.36742654553E+02  0.00000000000E+00 0.  1.
</event>
<event>
 7    1  0.6105960E-006  0.2479188E+03  0.7818608E-02  0.1180514E+00
          2   -1    0    0  502    0  0.00000000000E+00  0.00000000000E+00  0.45197719067E+03  0.45197719067E+03  0.00000000000E+00 0. -1.
          1   -1    0    0  501    0 -0.00000000000E+00 -0.00000000000E+00 -0.15516543937E+04  0.15516543937E+04  0.00000000000E+00 0. -1.
         25    2    1    2    0    0 -0.69674523709E+02  0.29127946393E+03 -0.13629898549E+03  0.35199449346E+03  0.12499777844E+03 0.  0.
          2    1    1    2  501    0 -0.32235722001E+02 -0.24217248974E+03 -0.12863926717E+04  0.13093864068E+04  0.00000000000E+00 0. -1.
          1    1    1    2  502    0  0.10191024571E+03 -0.49106974190E+02  0.32301445422E+03  0.34225068405E+03  0.00000000000E+00 0. -1.
         22    1    3    3    0    0 -0.92179599124E+02  0.28345570078E+03 -0.13725058487E+03  0.32814925849E+03  0.00000000000E+00 0.  1.
         22    1    3    3    0    0  0.22505075415E+02  0.78237631473E+01  0.95159937415E+00  0.23845234966E+02  0.00000000000E+00 0.  1.
</event>
<event>
 7    1  0.6105960E-006  0.1007467E+03  0.7818608E-02  0.1329633E+00
          2   -1    0    0  502    0  0.00000000000E+00  0.00000000000E+00  0.21444082157E+03  0.21444082157E+03  0.00000000000E+00 0. -1.
          1   -1    0    0  501    0 -0.00000000000E+00 -0.00000000000E+00 -0.78333205095E+03  0.78333205095E+03  0.00000000000E+00 0. -1.
         25    2    1    2    0    0 -0.22391184796E+02  0.71884934189E+02 -0.37548356371E+02  0.15067831095E+03  0.12500106161E+03 0.  0.
          2    1    1    2  501    0  0.54910703794E+02  0.31292194472E+02 -0.66902089417E+03  0.67199951166E+03  0.00000000000E+00 0. -1.
          1    1    1    2  502    0 -0.32519518999E+02 -0.10317712866E+03  0.13767802117E+03  0.17509504992E+03  0.00000000000E+00 0. -1.
         22    1    3    3    0    0  0.14741268791E+02 -0.32197990825E+02 -0.96232629190E+01  0.36696359600E+02  0.00000000000E+00 0. -1.
         22    1    3    3    0    0 -0.37132453586E+02  0.10408292501E+03 -0.27925093452E+02  0.11398195135E+03  0.00000000000E+00 0. -1.
</event>
<event>
 7    1  0.6105960E-006  0.7984789E+02  0.7818608E-02  0.1349310E+00
          2   -1    0    0  502    0  0.00000000000E+00  0.00000000000E+00  0.91059906111E+03  0.91059906111E+03  0.00000000000E+00 0. -1.
          1   -1    0    0  501    0 -0.00000000000E+00 -0.00000000000E+00 -0.15805574061E+03  0.15805574061E+03  0.00000000000E+00 0. -1.
         25    2    1    2    0    0 -0.93802757845E+02 -0.23602694304E+02  0.32212316418E+03  0.35881011756E+03  0.12500129200E+03 0.  0.
          2    1    1    2  501    0  0.50402115811E+02 -0.44500595607E+02 -0.12854966468E+03  0.14507133616E+03  0.00000000000E+00 0. -1.
          1    1    1    2  502    0  0.43400642034E+02  0.68103289911E+02  0.55896982099E+03  0.56477334799E+03  0.00000000000E+00 0. -1.
         22    1    3    3    0    0 -0.96573839048E+02  0.10379810539E+02  0.12269015548E+03  0.15648361290E+03  0.00000000000E+00 0.  1.
         22    1    3    3    0    0  0.27710812029E+01 -0.33982504842E+02  0.19943300870E+03  0.20232650466E+03  0.00000000000E+00 0.  1.
</event>
<event>
 7    1  0.7330289E-006  0.5366212E+02  0.7818608E-02  0.1426535E+00
          2   -1    0    0  502    0  0.00000000000E+00  0.00000000000E+00  0.14989988127E+04  0.14989988127E+04  0.00000000000E+00 0. -1.
          1   -1    0    0  501    0 -0.00000000000E+00 -0.00000000000E+00 -0.39711732837E+03  0.39711732837E+03  0.00000000000E+00 0. -1.
         25    2    1    2    0    0 -0.17463249988E+01 -0.20969078370E+02 -0.56713472166E+02  0.13886603401E+03  0.12499842230E+03 0.  0.
          2    1    1    2  501    0 -0.51743336411E+02  0.14220209430E+02 -0.29641925515E+03  0.30123738487E+03  0.00000000000E+00 0. -1.
          1    1    1    2  502    0  0.53489661410E+02  0.67488689407E+01  0.14550142116E+04  0.14560127222E+04  0.00000000000E+00 0. -1.
         22    1    3    3    0    0  0.15594964641E+02 -0.50160439641E+02 -0.81406369741E+02  0.96882762458E+02  0.00000000000E+00 0.  1.
         22    1    3    3    0    0 -0.17341289640E+02  0.29191361271E+02  0.24692897575E+02  0.41983271548E+02  0.00000000000E+00 0.  1.
</event>
<event>
 7    1  0.6543965E-006  0.8469016E+02  0.7818608E-02  0.1499656E+00
          2   -1    0    0  502    0  0.00000000000E+00  0.00000000000E+00  0.95601540253E+03  0.95601540253E+03  0.00000000000E+00 0. -1.
          1   -1    0    0  501    0 -0.00000000000E+00 -0.00000000000E+00 -0.10348502826E+04  0.10348502826E+04  0.00000000000E+00 0. -1.
         25    2    1    2    0    0  0.65954008356E+02  0.91542463997E+01 -0.45942465654E+03  0.48075930144E+03  0.12499903778E+03 0.  0.
          2    1    1    2  501    0  0.18782573496E+02 -0.69581479460E+01 -0.56267962403E+03  0.56303602033E+03  0.00000000000E+00 0. -1.
          1    1    1    2  502    0 -0.84736581851E+02 -0.21960984537E+01  0.94326940052E+03  0.94707036333E+03  0.00000000000E+00 0. -1.
         22    1    3    3    0    0 -0.23767069437E+02  0.38131313159E+02 -0.10962481075E+03  0.11847560832E+03  0.00000000000E+00 0. -1.
         22    1    3    3    0    0  0.89721077793E+02 -0.28977066759E+02 -0.34979984578E+03  0.36228369313E+03  0.00000000000E+00 0. -1.
</event>
<event>
 7    1  0.6105960E-006  0.9891355E+02  0.7818608E-02  0.1377472E+00
          2   -1    0    0  502    0  0.00000000000E+00  0.00000000000E+00  0.26513275354E+03  0.26513275354E+03  0.00000000000E+00 0. -1.
          1   -1    0    0  501    0 -0.00000000000E+00 -0.00000000000E+00 -0.90433867960E+03  0.90433867960E+03  0.00000000000E+00 0. -1.
         25    2    1    2    0    0 -0.12894239729E+03  0.36564824531E+02 -0.40665084063E+03  0.44604100438E+03  0.12499817275E+03 0.  0.
          2    1    1    2  501    0  0.87669297428E+02 -0.24902517873E+02 -0.47172355058E+03  0.48044682253E+03  0.00000000000E+00 0. -1.
          1    1    1    2  502    0  0.41273099861E+02 -0.11662306658E+02  0.23916846516E+03  0.24298360623E+03  0.00000000000E+00 0. -1.
         22    1    3    3    0    0 -0.14288935752E+03  0.59362996319E+02 -0.36633054938E+03  0.39766745559E+03  0.00000000000E+00 0.  1.
         22    1    3    3    0    0  0.13946960227E+02 -0.22798171788E+02 -0.40320291254E+02  0.48373548798E+02  0.00000000000E+00 0.  1.
</event>
<event>
 7    1  0.6105960E-006  0.1207811E+03  0.7818608E-02  0.1445817E+00
          2   -1    0    0  502    0  0.00000000000E+00  0.00000000000E+00  0.58409844547E+03  0.58409844547E+03  0.00000000000E+00 0. -1.
          1   -1    0    0  501    0 -0.00000000000E+00 -0.00000000000E+00 -0.17401637776E+04  0.17401637776E+04  0.00000000000E+00 0. -1.
         25    2    1    2    0    0  0.11722882085E+03  0.62978426108E+02  0.34507262647E+03  0.39039597967E+03  0.12500009927E+03 0.  0.
          2    1    1    2  501    0 -0.98012009999E+02 -0.70470983532E+02 -0.17148838805E+04  0.17191274640E+04  0.00000000000E+00 0. -1.
          1    1    1    2  502    0 -0.19216810848E+02  0.74925574238E+01  0.21374592196E+03  0.21473877943E+03  0.00000000000E+00 0. -1.
         22    1    3    3    0    0  0.83883568611E+02  0.84248308568E+02  0.32495909831E+03  0.34602405430E+03  0.00000000000E+00 0.  1.
         22    1    3    3    0    0  0.33345252236E+02 -0.21269882460E+02  0.20113528154E+02  0.44371925374E+02  0.00000000000E+00 0.  1.
</event>
<event>
 7    1  0.6105960E-006  0.5460640E+02  0.7818608E-02  0.1472497E+00
          2   -1    0    0  502    0  0.00000000000E+00  0.00000000000E+00  0.28878892682E+04  0.28878892682E+04  0.00000000000E+00 0. -1.
          1   -1    0    0  501    0 -0.00000000000E+00 -0.00000000000E+00 -0.11012228962E+04  0.11012228962E+04  0.00000000000E+00 0. -1.
         25    2    1    2    0    0  0.29930570834E+02  0.36953123365E+02  0.66332577750E+03  0.67667447959E+03  0.12500356731E+03 0.  0.
          2    1    1    2  501    0  0.24943129034E+02 -0.28101261496E+02 -0.10938776755E+04  0.10945228227E+04  0.00000000000E+00 0. -1.
          1    1    1    2  502    0 -0.54873699868E+02 -0.88518618691E+01  0.22172182700E+04  0.22179148620E+04  0.00000000000E+00 0. -1.
         22    1    3    3    0    0  0.65028104893E+02  0.44268008803E+02  0.25699737775E+03  0.26876748911E+03  0.00000000000E+00 0. -1.
         22    1    3    3    0    0 -0.35097534059E+02 -0.73148854382E+01  0.40632839975E+03  0.40790699049E+03  0.00000000000E+00 0. -1.
</event>
<event>
 7    1  0.6105960E-006  0.3235063E+02  0.7818608E-02  0.1623296E+00
          2   -1    0    0  502    0  0.00000000000E+00  0.00000000000E+00  0.34244675403E+02  0.34244675403E+02  0.00000000000E+00 0. -1.
          1   -1    0    0  501    0 -0.00000000000E+00 -0.00000000000E+00 -0.11474973034E+04  0.11474973034E+04  0.00000000000E+00 0. -1.
         25    2    1    2    0    0  0.25777327789E+02 -0.47878646429E+02 -0.27429155659E+03  0.30629658603E+03  0.12499962076E+03 0.  0.
          2    1    1    2  501    0 -0.91732623550E+01  0.30612206850E+02 -0.84890681039E+03  0.84950810984E+03  0.00000000000E+00 0. -1.
          1    1    1    2  502    0 -0.16604065434E+02  0.17266439579E+02  0.99457389439E+01  0.25937282969E+02  0.00000000000E+00 0. -1.
         22    1    3    3    0    0 -0.49683220645E+02 -0.11348826168E+02 -0.82344767002E+02  0.96839449202E+02  0.00000000000E+00 0.  1.
         22    1    3    3    0    0  0.75460548434E+02 -0.36529820261E+02 -0.19194678958E+03  0.20945713683E+03  0.00000000000E+00 0.  1.
</event>
<event>
 7    1  0.6105960E-006  0.7241358E+02  0.7818608E-02  0.1425232E+00
          2   -1    0    0  502    0  0.00000000000E+00  0.00000000000E+00  0.33406072535E+03  0.33406072535E+03  0.00000000000E+00 0. -1.
          1   -1    0    0  501    0 -0.00000000000E+00 -0.00000000000E+00 -0.15701464818E+03  0.15701464818E+03  0.00000000000E+00 0. -1.
         25    2    1    2    0    0 -0.33216923405E+02 -0.16337639041E+02  0.12514256452E+03  0.18070625361E+03  0.12499522468E+03 0.  0.
          2    1    1    2  501    0  0.73376578894E+02  0.15812075527E+02 -0.11575812285E+03  0.13796407890E+03  0.00000000000E+00 0. -1.
          1    1    1    2  502    0 -0.40159655489E+02  0.52556351479E+00  0.16766163550E+03  0.17240504101E+03  0.00000000000E+00 0. -1.
         22    1    3    3    0    0 -0.80175992842E+02 -0.13736881608E+02  0.63632607148E+02  0.10327633048E+03  0.00000000000E+00 0. -1.
         22    1    3    3    0    0  0.46959069437E+02 -0.26007574330E+01  0.61509957368E+02  0.77429923137E+02  0.00000000000E+00 0. -1.
</event>
<event>
 7    1  0.6105960E-006  0.9062897E+02  0.7818608E-02  0.1376934E+00
          2   -1    0    0  502    0  0.00000000000E+00  0.00000000000E+00  0.97778599146E+02  0.97778599146E+02  0.00000000000E+00 0. -1.
          1   -1    0    0  501    0 -0.00000000000E+00 -0.00000000000E+00 -0.80688655166E+03  0.80688655166E+03  0.00000000000E+00 0. -1.
         25    2    1    2    0    0 -0.68309681478E+02 -0.11219051627E+03 -0.16362935317E+03  0.24423770281E+03  0.12499826291E+03 0.  0.
          2    1    1    2  501    0  0.25142143575E+02  0.39729210299E+02 -0.57051190297E+03  0.57244595288E+03  0.00000000000E+00 0. -1.
          1    1    1    2  502    0  0.43167537903E+02  0.72461305973E+02  0.25033303631E+02  0.87981495115E+02  0.00000000000E+00 0. -1.
         22    1    3    3    0    0 -0.74876082389E+01 -0.34771876328E+01  0.20402177657E+02  0.22009179088E+02  0.00000000000E+00 0.  1.
         22    1    3    3    0    0 -0.60822073239E+02 -0.10871332864E+03 -0.18403153083E+03  0.22222852372E+03  0.00000000000E+00 0.  1.
</event>
<event>
 7    1  0.6105960E-006  0.4414106E+02  0.7818608E-02  0.1535357E+00
          2   -1    0    0  502    0  0.00000000000E+00  0.00000000000E+00  0.12906385057E+04  0.12906385057E+04  0.00000000000E+00 0. -1.
          1   -1    0    0  501    0 -0.00000000000E+00 -0.00000000000E+00 -0.25665102259E+03  0.25665102259E+03  0.00000000000E+00 0. -1.
         25    2    1    2    0    0  0.11228326188E+02 -0.17672094256E+02 -0.13732605577E+03  0.18687371920E+03  0.12499985244E+03 0.  0.
          2    1    1    2  501    0  0.30166394504E+02  0.21579255724E+01 -0.91736069825E+02  0.96592828445E+02  0.00000000000E+00 0. -1.
          1    1    1    2  502    0 -0.41394720692E+02  0.15514168683E+02  0.12630496087E+04  0.12638229807E+04  0.00000000000E+00 0. -1.
         22    1    3    3    0    0 -0.42743592353E+02  0.28847050458E+01 -0.58071785944E+01  0.43232621175E+02  0.00000000000E+00 0.  1.
         22    1    3    3    0    0  0.53971918541E+02 -0.20556799302E+02 -0.13151887718E+03  0.14364109803E+03  0.00000000000E+00 0.  1.
</event>
<event>
 7    1  0.6105960E-006  0.1084474E+03  0.7818608E-02  0.1356068E+00
          2   -1    0    0  502    0  0.00000000000E+00  0.00000000000E+00  0.32425909982E+03  0.32425909982E+03  0.00000000000E+00 0. -1.
          1   -1    0    0  501    0 -0.00000000000E+00 -0.00000000000E+00 -0.21648749183E+04  0.21648749183E+04  0.00000000000E+00 0. -1.
         25    2    1    2    0    0 -0.50793150455E+01 -0.10970684156E+03  0.20484231399E+03  0.26390892899E+03  0.12500463460E+03 0.  0.
          2    1    1    2  501    0 -0.45732186247E+02  0.96646267320E+01 -0.20999616575E+04  0.21004818021E+04  0.00000000000E+00 0. -1.
          1    1    1    2  502    0  0.50811501293E+02  0.10004221483E+03  0.54503525064E+02  0.12474328701E+03  0.00000000000E+00 0. -1.
         22    1    3    3    0    0  0.15015011266E+02 -0.12625971697E+03  0.11879433954E+03  0.17400879805E+03  0.00000000000E+00 0.  1.
         22    1    3    3    0    0 -0.20094326311E+02  0.16552875413E+02  0.86047974454E+02  0.89900130934E+02  0.00000000000E+00 0.  1.
</event>
<event>
 7    1  0.6105960E-006  0.7851091E+02  0.7818608E-02  0.1391908E+00
          2   -1    0    0  502    0  0.00000000000E+00  0.00000000000E+00  0.80865830502E+03  0.80865830502E+03  0.00000000000E+00 0. -1.
          1   -1    0    0  501    0 -0.00000000000E+00 -0.00000000000E+00 -0.52375110028E+03  0.52375110028E+03  0.00000000000E+00 0. -1.
         25    2    1    2    0    0  0.10385705166E+03 -0.69077618196E+02  0.39487443624E+01  0.17663164061E+03  0.12500055746E+03 0.  0.
          2    1    1    2  501    0 -0.62383285391E+02  0.44769717757E+02 -0.43322554310E+03  0.43997769616E+03  0.00000000000E+00 0. -1.
          1    1    1    2  502    0 -0.41473766271E+02  0.24307900439E+02  0.71418400347E+03  0.71580006854E+03  0.00000000000E+00 0. -1.
         22    1    3    3    0    0  0.96975232933E+02 -0.12169028565E+01  0.33070413099E+02  0.10246623286E+03  0.00000000000E+00 0. -1.
         22    1    3    3    0    0  0.68818187292E+01 -0.67860715339E+02 -0.29121668736E+02  0.74165407741E+02  0.00000000000E+00 0. -1.
</event>
<event>
 7    1  0.6105960E-006  0.9442436E+02  0.7818608E-02  0.1320519E+00
          2   -1    0    0  502    0  0.00000000000E+00  0.00000000000E+00  0.28363250277E+02  0.28363250277E+02  0.00000000000E+00 0. -1.
          1   -1    0    0  501    0 -0.00000000000E+00 -0.00000000000E+00 -0.16418954950E+04  0.16418954950E+04  0.00000000000E+00 0. -1.
         25    2    1    2    0    0  0.30957155882E+02  0.25131477134E+02 -0.46541009772E+03  0.48355041854E+03  0.12499804627E+03 0.  0.
          2    1    1    2  501    0 -0.98242650198E+02 -0.53718283139E+02 -0.10830917265E+04  0.10888640688E+04  0.00000000000E+00 0. -1.
          1    1    1    2  502    0  0.67285494316E+02  0.28586806006E+02 -0.65030420488E+02  0.97844257940E+02  0.00000000000E+00 0. -1.
         22    1    3    3    0    0  0.23430297209E+02  0.11194555542E+02 -0.46691776170E+03  0.46763927667E+03  0.00000000000E+00 0. -1.
         22    1    3    3    0    0  0.75268586725E+01  0.13936921591E+02  0.15076639774E+01  0.15911141869E+02  0.00000000000E+00 0. -1.
</event>
<event>
 7    1  0.6105960E-006  0.3548210E+02  0.7818608E-02  0.1618566E+00
          2   -1    0    0  502    0  0.00000000000E+00  0.00000000000E+00  0.71677839850E+02  0.71677839850E+02  0.00000000000E+00 0. -1.
          1   -1    0    0  501    0 -0.00000000000E+00 -0.00000000000E+00 -0.15277170287E+04  0.15277170287E+04  0.00000000000E+00 0. -1.
         25    2    1    2    0    0 -0.24568349749E+02  0.15721946904E+01 -0.10580735159E+03  0.16561028035E+03  0.12500197479E+03 0.  0.
          2    1    1    2  501    0 -0.29478562328E+01  0.22259783325E+02 -0.13839700686E+04  0.13841522094E+04  0.00000000000E+00 0. -1.
          1    1    1    2  502    0  0.27516205982E+02 -0.23831978016E+02  0.33738231403E+02  0.49632378806E+02  0.00000000000E+00 0. -1.
         22    1    3    3    0    0  0.17980042779E+02  0.49568768551E+02 -0.81392793618E+02  0.96980057780E+02  0.00000000000E+00 0.  1.
         22    1    3    3    0    0 -0.42548392529E+02 -0.47996573861E+02 -0.24414557969E+02  0.68630222569E+02  0.00000000000E+00 0.  1.
</event>
<event>
 7    1  0.6105960E-006  0.1239426E+03  0.7818608E-02  0.1276304E+00
          2   -1    0    0  502    0  0.00000000000E+00  0.00000000000E+00  0.19003673726E+03  0.19003673726E+03  0.00000000000E+00 0. -1.
          1   -1    0    0  501    0 -0.00000000000E+00 -0.00000000000E+00 -0.15870676188E+04  0.15870676188E+04  0.00000000000E+00 0. -1.
         25    2    1    2    0    0 -0.72041868128E+02  0.11764700867E+03 -0.46484431217E+03  0.50073534703E+03  0.12499921518E+03 0.  0.
          2    1    1    2  501    0 -0.43634382843E+02 -0.71560617523E+02 -0.10799150943E+04  0.10831627266E+04  0.00000000000E+00 0. -1.
          1    1    1    2  502    0  0.11567625097E+03 -0.46086391143E+02  0.14772852496E+03  0.19320628244E+03  0.00000000000E+00 0. -1.
         22    1    3    3    0    0 -0.10124602005E+03  0.76381176532E+02 -0.39246856243E+03  0.41245171015E+03  0.00000000000E+00 0.  1.
         22    1    3    3    0    0  0.29204151923E+02  0.41265832135E+02 -0.72375749738E+02  0.88283636884E+02  0.00000000000E+00 0.  1.
</event>
<event>
 7    1  0.8348678E-006  0.7764718E+02  0.7818608E-02  0.1338853E+00
          2   -1    0    0  502    0  0.00000000000E+00  0.00000000000E+00  0.14578970487E+04  0.14578970487E+04  0.00000000000E+00 0. -1.
          1   -1    0    0  501    0 -0.00000000000E+00 -0.00000000000E+00 -0.11411635159E+04  0.11411635159E+04  0.00000000000E+00 0. -1.
         25    2    1    2    0    0 -0.76566007229E+02  0.10620566866E+03 -0.54578467881E+03  0.57501832739E+03  0.12499265456E+03 0.  0.
          2    1    1    2  501    0  0.53330126511E+01 -0.75466746753E+02 -0.57724933160E+03  0.58218593397E+03  0.00000000000E+00 0. -1.
          1    1    1    2  502    0  0.71232994578E+02 -0.30738921906E+02  0.14397675432E+04  0.14418563033E+04  0.00000000000E+00 0. -1.
         22    1    3    3    0    0 -0.33686946026E+02  0.31166491076E+01 -0.24144076700E+02  0.41562726979E+02  0.00000000000E+00 0. -1.
         22    1    3    3    0    0 -0.42879061204E+02  0.10308901955E+03 -0.52164060211E+03  0.53345560041E+03  0.00000000000E+00 0. -1.
</event>
<event>
 7    1  0.6105960E-006  0.6452025E+02  0.7818608E-02  0.1382494E+00
          2   -1    0    0  502    0  0.00000000000E+00  0.00000000000E+00  0.20990547665E+04  0.20990547665E+04  0.00000000000E+00 0. -1.
          1   -1    0    0  501    0 -0.00000000000E+00 -0.00000000000E+00 -0.35663163139E+02  0.35663163139E+02  0.00000000000E+00 0. -1.
         25    2    1    2    0    0  0.10554896245E+02 -0.28644264861E+02  0.75836240337E+03  0.76919899236E+03  0.12498662033E+03 0.  0.
          2    1    1    2  501    0 -0.55792356297E+02 -0.29503655932E+02  0.48987711293E+01  0.63302849012E+02  0.00000000000E+00 0. -1.
          1    1    1    2  502    0  0.45237460052E+02  0.58147920793E+02  0.13001304289E+04  0.13022160883E+04  0.00000000000E+00 0. -1.
         22    1    3    3    0    0 -0.48776394862E+02 -0.43038544271E+02  0.31444542152E+03  0.32110337292E+03  0.00000000000E+00 0.  1.
         22    1    3    3    0    0  0.59331291107E+02  0.14394279410E+02  0.44391698186E+03  0.44809561944E+03  0.00000000000E+00 0.  1.
</event>
<event>
 7    1  0.6105960E-006  0.6009223E+02  0.7818608E-02  0.1490506E+00
          2   -1    0    0  502    0  0.00000000000E+00  0.00000000000E+00  0.16707415211E+03  0.16707415211E+03  0.00000000000E+00 0. -1.
          1   -1    0    0  501    0 -0.00000000000E+00 -0.00000000000E+00 -0.16490819495E+03  0.16490819495E+03  0.00000000000E+00 0. -1.
         25    2    1    2    0    0 -0.56523271773E+02 -0.66348553971E+01  0.50609898813E+01  0.13744049286E+03  0.12500149559E+03 0.  0.
          2    1    1    2  501    0  0.56766978985E+02 -0.23437813888E+02 -0.86276320464E+02  0.10590290126E+03  0.00000000000E+00 0. -1.
          1    1    1    2  502    0 -0.24370721271E+00  0.30072669285E+02  0.83381287747E+02  0.88638952935E+02  0.00000000000E+00 0. -1.
         22    1    3    3    0    0 -0.39588866305E+02  0.57911881076E+02 -0.30596134151E+01  0.70216988965E+02  0.00000000000E+00 0. -1.
         22    1    3    3    0    0 -0.16934405468E+02 -0.64546736474E+02  0.81206032964E+01  0.67223503894E+02  0.00000000000E+00 0. -1.
</event>
<event>
 7    1  0.6105960E-006  0.1173086E+03  0.7818608E-02  0.1253218E+00
          2   -1    0    0  502    0  0.00000000000E+00  0.00000000000E+00  0.17643296356E+03  0.17643296356E+03  0.00000000000E+00 0. -1.
          1   -1    0    0  501    0 -0.00000000000E+00 -0.00000000000E+00 -0.45506996583E+03  0.45506996583E+03  0.00000000000E+00 0. -1.
         25    2    1    2    0    0 -0.74391391096E+02 -0.65453528322E+02 -0.19271569796E+03  0.25015794490E+03  0.12498565405E+03 0.  0.
          2    1    1    2  501    0  0.14157867216E+03 -0.30708680477E+02 -0.17993900175E+03  0.23100993013E+03  0.00000000000E+00 0. -1.
          1    1    1    2  502    0 -0.67187281067E+02  0.96162208798E+02  0.94017697442E+02  0.15033505436E+03  0.00000000000E+00 0. -1.
         22    1    3    3    0    0  0.97312302408E+01 -0.73479402926E+02 -0.77081448458E+02  0.10693675324E+03  0.00000000000E+00 0. -1.
         22    1    3    3    0    0 -0.84122621337E+02  0.80258746048E+01 -0.11563424950E+03  0.14322119166E+03  0.00000000000E+00 0. -1.
</event>
<event>
 7    1  0.6105960E-006  0.3879215E+03  0.7818608E-02  0.1178321E+00
          2   -1    0    0  502    0  0.00000000000E+00  0.00000000000E+00  0.35758209276E+04  0.35758209276E+04  0.00000000000E+00 0. -1.
          1   -1    0    0  501    0 -0.00000000000E+00 -0.00000000000E+00 -0.13305326080E+03  0.13305326080E+03  0.00000000000E+00 0. -1.
         25    2    1    2    0    0 -0.16890877727E+03 -0.37181034904E+03  0.14772797227E+04  0.15377754801E+04  0.12499975046E+03 0.  0.
          2    1    1    2  501    0  0.21806614799E+03  0.31635910004E+03  0.25984871448E+03  0.46385049261E+03  0.00000000000E+00 0. -1.
          1    1    1    2  502    0 -0.49157370727E+02  0.55451248999E+02  0.17056392296E+04  0.17072482156E+04  0.00000000000E+00 0. -1.
         22    1    3    3    0    0 -0.89239019172E+02 -0.20945076887E+03  0.10389327516E+04  0.10635856756E+04  0.00000000000E+00 0.  1.
         22    1    3    3    0    0 -0.79669758096E+02 -0.16235958016E+03  0.43834697110E+03  0.47418980451E+03  0.00000000000E+00 0.  1.
</event>
<event>
 7    1  0.6105960E-006  0.8702967E+02  0.7818608E-02  0.1443637E+00
          2   -1    0    0  502    0  0.00000000000E+00  0.00000000000E+00  0.36761633175E+03  0.36761633175E+03  0.00000000000E+00 0. -1.
          1   -1    0    0  501    0 -0.00000000000E+00 -0.00000000000E+00 -0.23473609846E+04  0.23473609846E+04  0.00000000000E+00 0. -1.
         25    2    1    2    0    0 -0.46742736600E+02  0.42721563107E+02  0.45144699816E+02  0.14721913395E+03  0.12500165639E+03 0.  0.
          2    1    1    2  501    0  0.49776914422E+02 -0.71654551777E+02 -0.22947128765E+04  0.22963708981E+04  0.00000000000E+00 0. -1.
          1    1    1    2  502    0 -0.30341778215E+01  0.28932988671E+02  0.26982352383E+03  0.27138728431E+03  0.00000000000E+00 0. -1.
         22    1    3    3    0    0  0.37071301166E+02  0.42059875942E+02  0.13848909204E+02  0.57750383726E+02  0.00000000000E+00 0. -1.
         22    1    3    3    0    0 -0.83814037766E+02  0.66168716468E+00  0.31295790612E+02  0.89468750224E+02  0.00000000000E+00 0. -1.
</event>
<event>
 7    1  0.6105960E-006  0.4486044E+02  0.7818608E-02  0.1516229E+00
          2   -1    0    0  502    0  0.00000000000E+00  0.00000000000E+00  0.11553370587E+04  0.11553370587E+04  0.00000000000E+00 0. -1.
          1   -1    0    0  501    0 -0.00000000000E+00 -0.00000000000E+00 -0.38310162883E+03  0.38310162883E+03  0.00000000000E+00 0. -1.
         25    2    1    2    0    0  0.38938840426E+02  0.59239521624E+02  0.27139327146E+03  0.30709451613E+03  0.12500871902E+03 0.  0.
          2    1    1    2  501    0 -0.29128087882E+01 -0.33659419079E+02 -0.36390450472E+03  0.36546946453E+03  0.00000000000E+00 0. -1.
          1    1    1    2  502    0 -0.36026031638E+02 -0.25580102545E+02  0.86474666316E+03  0.86587470690E+03  0.00000000000E+00 0. -1.
         22    1    3    3    0    0  0.12275896996E+01  0.87355661543E+02  0.11913123293E+03  0.14773208602E+03  0.00000000000E+00 0. -1.
         22    1    3    3    0    0  0.37711250727E+02 -0.28116139920E+02  0.15226203853E+03  0.15936243012E+03  0.00000000000E+00 0. -1.
</event>
<event>
 7    1  0.6105960E-006  0.1001274E+03  0.7818608E-02  0.1325272E+00
          2   -1    0    0  502    0  0.00000000000E+00  0.00000000000E+00  0.17004851668E+04  0.17004851668E+04  0.00000000000E+00 0. -1.
          1   -1    0    0  501    0 -0.00000000000E+00 -0.00000000000E+00 -0.17348961187E+03  0.17348961187E+03  0.00000000000E+00 0. -1.
         25    2    1    2    0    0  0.74118840863E+02 -0.11346840744E+03 -0.45404730953E+01  0.18442907972E+03  0.12499914996E+03 0.  0.
          2    1    1    2  501    0 -0.64560035101E+02  0.14133968615E+02 -0.63345800179E+02  0.91544839294E+02  0.00000000000E+00 0. -1.
          1    1    1    2  502    0 -0.95588057621E+01  0.99334438827E+02  0.15948818282E+04  0.15980008596E+04  0.00000000000E+00 0. -1.
         22    1    3    3    0    0  0.51985613500E+02 -0.24187461013E+02 -0.55053449674E+02  0.79488487231E+02  0.00000000000E+00 0. -1.
         22    1    3    3    0    0  0.22133227363E+02 -0.89280946429E+02  0.50512976579E+02  0.10494059249E+03  0.00000000000E+00 0. -1.
</event>
<event>
 7    1  0.6105960E-006  0.6163653E+02  0.7818608E-02  0.1427600E+00
          2   -1    0    0  502    0  0.00000000000E+00  0.00000000000E+00  0.19896741383E+04  0.19896741383E+04  0.00000000000E+00 0. -1.
          1   -1    0    0  501    0 -0.00000000000E+00 -0.00000000000E+00 -0.68336213534E+02  0.68336213534E+02  0.00000000000E+00 0. -1.
         25    2    1    2    0    0 -0.19845950819E+02  0.17140614284E+02  0.34990571600E+03  0.37248609371E+03  0.12499686995E+03 0.  0.
          2    1    1    2  501    0  0.63641925942E+02 -0.19924891528E+01 -0.38840728867E+02  0.74584629580E+02  0.00000000000E+00 0. -1.
          1    1    1    2  502    0 -0.43795975123E+02 -0.15148125131E+02  0.16102729376E+04  0.16109396285E+04  0.00000000000E+00 0. -1.
         22    1    3    3    0    0 -0.43446060488E+01 -0.17227146323E+02  0.32879797107E+03  0.32927762747E+03  0.00000000000E+00 0. -1.
         22    1    3    3    0    0 -0.15501344770E+02  0.34367760606E+02  0.21107744921E+02  0.43208466236E+02  0.00000000000E+00 0. -1.
</event>
<event>
 7    1  0.6105960E-006  0.3520521E+02  0.7818608E-02  0.1591988E+00
          2   -1    0    0  502    0  0.00000000000E+00  0.00000000000E+00  0.39371174367E+03  0.39371174367E+03  0.00000000000E+00 0. -1.
          1   -1    0    0  501    0 -0.00000000000E+00 -0.00000000000E+00 -0.11033699979E+03  0.11033699979E+03  0.00000000000E+00 0. -1.
         25    2    1    2    0    0  0.45400921692E+01 -0.13606102708E+02  0.13909878156E+03  0.18756296802E+03  0.12500262986E+03 0.  0.
          2    1    1    2  501    0 -0.30613949036E+02  0.18484767167E+02 -0.81581730968E+02  0.89075694331E+02  0.00000000000E+00 0. -1.
          1    1    1    2  502    0  0.26073856867E+02 -0.48786644591E+01  0.22585769328E+03  0.22741008111E+03  0.00000000000E+00 0. -1.
         22    1    3    3    0    0  0.20302419799E+02  0.35537733181E+02  0.12852073244E+03  0.13488030767E+03  0.00000000000E+00 0. -1.
         22    1    3    3    0    0 -0.15762327630E+02 -0.49143835889E+02  0.10578049122E+02  0.52682660349E+02  0.00000000000E+00 0. -1.
</event>
<event>
 7    1  0.6105960E-006  0.1205326E+03  0.7818608E-02  0.1434214E+00
          2   -1    0    0  502    0  0.00000000000E+00  0.00000000000E+00  0.15164355084E+03  0.15164355084E+03  0.00000000000E+00 0. -1.
          1   -1    0    0  501    0 -0.00000000000E+00 -0.00000000000E+00 -0.14675839305E+04  0.14675839305E+04  0.00000000000E+00 0. -1.
         25    2    1    2    0    0 -0.77529951748E+02 -0.67013644348E+02 -0.39314063766E+03  0.42507198333E+03  0.12499963232E+03 0.  0.
          2    1    1    2  501    0 -0.22390705594E+02 -0.25921411386E+01 -0.10310055097E+04  0.10312518722E+04  0.00000000000E+00 0. -1.
          1    1    1    2  502    0  0.99920657342E+02  0.69605785486E+02  0.10820576770E+03  0.16290362581E+03  0.00000000000E+00 0. -1.
         22    1    3    3    0    0 -0.52501963187E+02 -0.10395427465E+03 -0.29942034264E+03  0.32127167467E+03  0.00000000000E+00 0.  1.
         22    1    3    3    0    0 -0.25027988562E+02  0.36940630303E+02 -0.93720295023E+02  0.10380030866E+03  0.00000000000E+00 0.  1.
</event>
<event>
 7    1  0.6105960E-006  0.1722826E+03  0.7818608E-02  0.1222676E+00
          2   -1    0    0  502    0  0.00000000000E+00  0.00000000000E+00  0.32234748960E+03  0.32234748960E+03  0.00000000000E+00 0. -1.
          1   -1    0    0  501    0 -0.00000000000E+00 -0.00000000000E+00 -0.11083155927E+04  0.11083155927E+04  0.00000000000E+00 0. -1.
         25    2    1    2    0    0 -0.15101104497E+03  0.22336419230E+03 -0.51157704115E+03  0.59162668222E+03  0.12496064976E+03 0.  0.
          2    1    1    2  501    0  0.68001314746E+02 -0.77493585954E+02 -0.52631860390E+03  0.53632145909E+03  0.00000000000E+00 0. -1.
          1    1    1    2  502    0  0.83009730221E+02 -0.14587060634E+03  0.25192754195E+03  0.30271494099E+03  0.00000000000E+00 0. -1.
         22    1    3    3    0    0 -0.76707883268E+02  0.16632951096E+03 -0.22499263417E+03  0.29012288948E+03  0.00000000000E+00 0.  1.
         22    1    3    3    0    0 -0.74303161698E+02  0.57034681335E+02 -0.28658440698E+03  0.30150379274E+03  0.00000000000E+00 0.  1.
</event>
<event>
 7    1  0.6105960E-006  0.7620163E+02  0.7818608E-02  0.1374025E+00
          2   -1    0    0  502    0  0.00000000000E+00  0.00000000000E+00  0.36688457769E+03  0.36688457769E+03  0.00000000000E+00 0. -1.
          1   -1    0    0  501    0 -0.00000000000E+00 -0.00000000000E+00 -0.12998245802E+04  0.12998245802E+04  0.00000000000E+00 0. -1.
         25    2    1    2    0    0  0.70810388457E+02  0.99690408238E+02 -0.28167215658E+03  0.33153642810E+03  0.12499964303E+03 0.  0.
          2    1    1    2  501    0 -0.50632298309E+02 -0.26761360972E+02 -0.98819495514E+03  0.98985305447E+03  0.00000000000E+00 0. -1.
          1    1    1    2  502    0 -0.20178090148E+02 -0.72929047266E+02  0.33692710920E+03  0.34531967533E+03  0.00000000000E+00 0. -1.
         22    1    3    3    0    0  0.21273075210E+02 -0.28539603883E+02 -0.40342988232E+02  0.53801574496E+02  0.00000000000E+00 0.  1.
         22    1    3    3    0    0  0.49537313247E+02  0.12823001212E+03 -0.24132916835E+03  0.27773485361E+03  0.00000000000E+00 0.  1.
</event>
<event>
 7    1  0.6105960E-006  0.6131776E+02  0.7818608E-02  0.1460045E+00
          2   -1    0    0  502    0  0.00000000000E+00  0.00000000000E+00  0.20453008480E+04  0.20453008480E+04  0.00000000000E+00 0. -1.
          1   -1    0    0  501    0 -0.00000000000E+00 -0.00000000000E+00 -0.10675070423E+03  0.10675070423E+03  0.00000000000E+00 0. -1.
         25    2    1    2    0    0 -0.16116864998E+02  0.40630613356E+02  0.10161488841E+03  0.16691573760E+03  0.12499871132E+03 0.  0.
          2    1    1    2  501    0 -0.35854100911E+02 -0.73537163737E+01 -0.69050692317E+02  0.78151083205E+02  0.00000000000E+00 0. -1.
          1    1    1    2  502    0  0.51970965910E+02 -0.33276896982E+02  0.19059859476E+04  0.19069847314E+04  0.00000000000E+00 0. -1.
         22    1    3    3    0    0  0.35539834382E+02  0.57085430546E+02  0.22305900559E+02  0.70847578704E+02  0.00000000000E+00 0. -1.
         22    1    3    3    0    0 -0.51656699380E+02 -0.16454817189E+02  0.79308987851E+02  0.96068158895E+02  0.00000000000E+00 0. -1.
</event>
<event>
 7    1  0.6105960E-006  0.7958274E+02  0.7818608E-02  0.1392203E+00
          2   -1    0    0  502    0  0.00000000000E+00  0.00000000000E+00  0.11505447822E+04  0.11505447822E+04  0.00000000000E+00 0. -1.
          1   -1    0    0  501    0 -0.00000000000E+00 -0.00000000000E+00 -0.73270747733E+02  0.73270747733E+02  0.00000000000E+00 0. -1.
         25    2    1    2    0    0 -0.97045789714E+02  0.63624013748E+02  0.16657645154E+03  0.23840871669E+03  0.12500040624E+03 0.  0.
          2    1    1    2  501    0  0.50992847912E+02 -0.52776600262E+02 -0.94179791794E-01  0.73386980747E+02  0.00000000000E+00 0. -1.
          1    1    1    2  502    0  0.46052941802E+02 -0.10847413487E+02  0.91079176272E+03  0.91201983249E+03  0.00000000000E+00 0. -1.
         22    1    3    3    0    0  0.11711120806E+02  0.18938149720E+02  0.10171926388E+03  0.10412786616E+03  0.00000000000E+00 0.  1.
         22    1    3    3    0    0 -0.10875691052E+03  0.44685864028E+02  0.64857187661E+02  0.13428085054E+03  0.00000000000E+00 0.  1.
</event>
<event>
 7    1  0.6105960E-006  0.5549830E+02  0.7818608E-02  0.1563281E+00
          2   -1    0    0  502    0  0.00000000000E+00  0.00000000000E+00  0.31802183413E+02  0.31802183413E+02  0.00000000000E+00 0. -1.
          1   -1    0    0  501    0 -0.00000000000E+00 -0.00000000000E+00 -0.42760672562E+04  0.42760672562E+04  0.00000000000E+00 0. -1.
         25    2    1    2    0    0 -0.40197910549E+02  0.12815673349E+02 -0.25765613035E+03  0.28946445872E+03  0.12499151115E+03 0.  0.
          2    1    1    2  501    0  0.45409644147E+02 -0.32229663125E+02 -0.39958804644E+04  0.39962684435E+04  0.00000000000E+00 0. -1.
          1    1    1    2  502    0 -0.52117335986E+01  0.19413989776E+02  0.92715219770E+01  0.22136537351E+02  0.00000000000E+00 0. -1.
         22    1    3    3    0    0  0.27759537327E+01  0.47088722687E+02 -0.21437328219E+03  0.21950161238E+03  0.00000000000E+00 0.  1.
         22    1    3    3    0    0 -0.42973864281E+02 -0.34273049338E+02 -0.43282848158E+02  0.69962846332E+02  0.00000000000E+00 0.  1.
</event>
<event>
 7    1  0.6264933E-006  0.5763886E+02  0.7818608E-02  0.1415496E+00
          2   -1    0    0  502    0  0.00000000000E+00  0.00000000000E+00  0.12236074130E+04  0.12236074130E+04  0.00000000000E+00 0. -1.
          1   -1    0    0  501    0 -0.00000000000E+00 -0.00000000000E+00 -0.11489154279E+04  0.11489154279E+04  0.00000000000E+00 0. -1.
         25    2    1    2    0    0 -0.36650393100E+02  0.22273823315E+02 -0.16904147175E+02  0.13322143472E+03  0.12499130353E+03 0.  0.
          2    1    1    2  501    0  0.41143079497E+02  0.35557834491E+02 -0.10724415541E+04  0.10738193514E+04  0.00000000000E+00 0. -1.
          1    1    1    2  502    0 -0.44926863971E+01 -0.57831657806E+02  0.11640376863E+04  0.11654820548E+04  0.00000000000E+00 0. -1.
         22    1    3    3    0    0 -0.16789373276E+02  0.37602904149E+02 -0.66168410254E+02  0.77936640747E+02  0.00000000000E+00 0.  1.
         22    1    3    3    0    0 -0.19861019825E+02 -0.15329080834E+02  0.49264263079E+02  0.55284793971E+02  0.00000000000E+00 0.  1.
</event>
<event>
 7    1  0.6105960E-006  0.1266949E+03  0.7818608E-02  0.1417052E+00
          2   -1    0    0  502    0  0.00000000000E+00  0.00000000000E+00  0.29188206354E+04  0.29188206354E+04  0.00000000000E+00 0. -1.
          1   -1    0    0  501    0 -0.00000000000E+00 -0.00000000000E+00 -0.15025462984E+03  0.15025462984E+03  0.00000000000E+00 0. -1.
         25    2    1    2    0    0 -0.60583883747E+02 -0.10710168265E+03  0.86353496837E+01  0.17561447333E+03  0.12499878633E+03 0.  0.
          2    1    1    2  501    0 -0.21919013598E+02  0.10818778825E+02 -0.63056009547E+02  0.67628022834E+02  0.00000000000E+00 0. -1.
          1    1    1    2  502    0  0.82502897345E+02  0.96282903823E+02  0.28229866655E+04  0.28258327691E+04  0.00000000000E+00 0. -1.
         22    1    3    3    0    0 -0.30372619787E+02 -0.42869503683E+02 -0.57998378391E+02  0.78256643645E+02  0.00000000000E+00 0. -1.
         22    1    3    3    0    0 -0.30211263960E+02 -0.64232178966E+02  0.66633728074E+02  0.97357829689E+02  0.00000000000E+00 0. -1.
</event>
<event>
 7    1  0.6105960E-006  0.2784095E+03  0.7818608E-02  0.1161091E+00
          2   -1    0    0  502    0  0.00000000000E+00  0.00000000000E+00  0.23891192328E+04  0.23891192328E+04  0.00000000000E+00 0. -1.
          1   -1    0    0  501    0 -0.00000000000E+00 -0.00000000000E+00 -0.50358055677E+03  0.50358055677E+03  0.00000000000E+00 0. -1.
         25    2    1    2    0    0  0.36204510247E+03 -0.76348894729E+02  0.74103367936E+03  0.83765287103E+03  0.12500243380E+03 0.  0.
          2    1    1    2  501    0 -0.10256485806E+03  0.72764797240E+02 -0.43579771067E+03  0.45357900133E+03  0.00000000000E+00 0. -1.
          1    1    1    2  502    0 -0.25948024442E+03  0.35840974886E+01  0.15803027074E+04  0.16014679172E+04  0.00000000000E+00 0. -1.
         22    1    3    3    0    0  0.26512700797E+03 -0.32427328813E+02  0.40477732147E+03  0.48496241296E+03  0.00000000000E+00 0.  1.
         22    1    3    3    0    0  0.96918094502E+02 -0.43921565916E+02  0.33625635788E+03  0.35269045807E+03  0.00000000000E+00 0.  1.
</event>
<event>
 7    1  0.6105960E-006  0.1363827E+03  0.7818608E-02  0.1252211E+00
          2   -1    0    0  502    0  0.00000000000E+00  0.00000000000E+00  0.33971828710E+03  0.33971828710E+03  0.00000000000E+00 0. -1.
          1   -1    0    0  501    0 -0.00000000000E+00 -0.00000000000E+00 -0.13152077546E+04  0.13152077546E+04  0.00000000000E+00 0. -1.
         25    2    1    2    0    0  0.19817253715E+03  0.12934631417E+02 -0.15222731358E+03  0.27971017445E+03  0.12499987008E+03 0.  0.
          2    1    1    2  501    0 -0.11683316890E+03 -0.64605703352E+02 -0.10866152620E+04  0.10947861042E+04  0.00000000000E+00 0. -1.
          1    1    1    2  502    0 -0.81339368250E+02  0.51671071935E+02  0.26335310807E+03  0.28042976310E+03  0.00000000000E+00 0. -1.
         22    1    3    3    0    0  0.67311326937E+02 -0.20445319774E+00 -0.12990728751E+03  0.14631049136E+03  0.00000000000E+00 0. -1.
         22    1    3    3    0    0  0.13086121022E+03  0.13139084615E+02 -0.22320026072E+02  0.13339968309E+03  0.00000000000E+00 0. -1.
</event>
<event>
 7    1  0.6105960E-006  0.1439317E+03  0.7818608E-02  0.1386146E+00
          2   -1    0    0  502    0  0.00000000000E+00  0.00000000000E+00  0.11090295631E+04  0.11090295631E+04  0.00000000000E+00 0. -1.
          1   -1    0    0  501    0 -0.00000000000E+00 -0.00000000000E+00 -0.10520646000E+04  0.10520646000E+04  0.00000000000E+00 0. -1.
         25    2    1    2    0    0 -0.16150435759E+03  0.20074102068E+02  0.25110630948E+02  0.20672226169E+03  0.12496768621E+03 0.  0.
          2    1    1    2  501    0  0.22960195589E+02  0.15074621729E+02 -0.95591760450E+03  0.95631212551E+03  0.00000000000E+00 0. -1.
          1    1    1    2  502    0  0.13854416200E+03 -0.35148723797E+02  0.98777193664E+03  0.99805977598E+03  0.00000000000E+00 0. -1.
         22    1    3    3    0    0 -0.21769114566E+02 -0.41022832319E+01  0.57187819640E+02  0.61328376726E+02  0.00000000000E+00 0.  1.
         22    1    3    3    0    0 -0.13973524302E+03  0.24176385300E+02 -0.32077188692E+02  0.14539388496E+03  0.00000000000E+00 0.  1.
</event>
<event>
 7    1  0.6105960E-006  0.5018517E+02  0.7818608E-02  0.1450984E+00
          2   -1    0    0  502    0  0.00000000000E+00  0.00000000000E+00  0.10276725369E+04  0.10276725369E+04  0.00000000000E+00 0. -1.
          1   -1    0    0  501    0 -0.00000000000E+00 -0.00000000000E+00 -0.12981095844E+03  0.12981095844E+03  0.00000000000E+00 0. -1.
         25    2    1    2    0    0  0.18871682237E+02 -0.12836341734E+02  0.86823334712E+02  0.15389640751E+03  0.12499960294E+03 0.  0.
          2    1    1    2  501    0  0.86487390948E+01  0.51897173805E+02 -0.88404523426E+02  0.10287602782E+03  0.00000000000E+00 0. -1.
          1    1    1    2  502    0 -0.27520421332E+02 -0.39060832070E+02  0.89944276722E+03  0.90071106005E+03  0.00000000000E+00 0. -1.
         22    1    3    3    0    0 -0.10740778115E+02  0.16611063058E+02  0.10608011757E+03  0.10790867933E+03  0.00000000000E+00 0.  1.
         22    1    3    3    0    0  0.29612460352E+02 -0.29447404792E+02 -0.19256782862E+02  0.45987728181E+02  0.00000000000E+00 0.  1.
</event>
<event>
 7    1  0.6105960E-006  0.2300299E+03  0.7818608E-02  0.1255184E+00
          2   -1    0    0  502    0  0.00000000000E+00  0.00000000000E+00  0.46766495314E+03  0.46766495314E+03  0.00000000000E+00 0. -1.
          1   -1    0    0  501    0 -0.00000000000E+00 -0.00000000000E+00 -0.14690191008E+04  0.14690191008E+04  0.00000000000E+00 0. -1.
         25    2    1    2    0    0  0.19907466279E+03 -0.26163614359E+02 -0.61614346324E+03  0.65997887549E+03  0.12499637080E+03 0.  0.
          2    1    1    2  501    0  0.31737556565E+02  0.45494780408E+02 -0.79984355027E+03  0.80176477377E+03  0.00000000000E+00 0. -1.
          1    1    1    2  502    0 -0.23081221936E+03 -0.19331166049E+02  0.41463286584E+03  0.47494040470E+03  0.00000000000E+00 0. -1.
         22    1    3    3    0    0  0.20136064651E+03  0.67958328765E+01 -0.49554117536E+03  0.53493303299E+03  0.00000000000E+00 0. -1.
         22    1    3    3    0    0 -0.22859837164E+01 -0.32959447236E+02 -0.12060228788E+03  0.12504584250E+03  0.00000000000E+00 0. -1.
</event>
<event>
 7    1  0.6105960E-006  0.3162982E+02  0.7818608E-02  0.1601828E+00
          2   -1    0    0  502    0  0.00000000000E+00  0.00000000000E+00  0.12204449277E+04  0.12204449277E+04  0.00000000000E+00 0. -1.
          1   -1    0    0  501    0 -0.00000000000E+00 -0.00000000000E+00 -0.72582987439E+02  0.72582987439E+02  0.00000000000E+00 0. -1.
         25    2    1    2    0    0 -0.17666911889E+02  0.29959526514E+01  0.62658625337E+03  0.63918365363E+03  0.12499725858E+03 0.  0.
          2    1    1    2  501    0 -0.49362307540E+01 -0.27379671436E+02 -0.62871296281E+02  0.68751819452E+02  0.00000000000E+00 0. -1.
          1    1    1    2  502    0  0.22603142643E+02  0.24383718785E+02  0.58414698313E+03  0.58509244201E+03  0.00000000000E+00 0. -1.
         22    1    3    3    0    0 -0.65388856074E+01 -0.30674211422E+02  0.57894241835E+03  0.57979133146E+03  0.00000000000E+00 0.  1.
         22    1    3    3    0    0 -0.11128026281E+02  0.33670164073E+02  0.47643835017E+02  0.59392322170E+02  0.00000000000E+00 0.  1.
</event>
<event>
 7    1  0.6105960E-006  0.1560051E+03  0.7818608E-02  0.1364303E+00
          2   -1    0    0  502    0  0.00000000000E+00  0.00000000000E+00  0.22138657500E+04  0.22138657500E+04  0.00000000000E+00 0. -1.
          1   -1    0    0  501    0 -0.00000000000E+00 -0.00000000000E+00 -0.29247065161E+03  0.29247065161E+03  0.00000000000E+00 0. -1.
         25    2    1    2    0    0 -0.11678675276E+03  0.53064286689E+02  0.10529852369E+02  0.17941854443E+03  0.12500068861E+03 0.  0.
          2    1    1    2  501    0 -0.21300507975E+02  0.21579021800E+02 -0.20399708567E+03  0.20623815550E+03  0.00000000000E+00 0. -1.
          1    1    1    2  502    0  0.13808726073E+03 -0.74643308489E+02  0.21148623317E+04  0.21206797016E+04  0.00000000000E+00 0. -1.
         22    1    3    3    0    0 -0.47960818141E+02  0.89209043304E+02  0.32105023768E+01  0.10133509170E+03  0.00000000000E+00 0. -1.
         22    1    3    3    0    0 -0.68825934615E+02 -0.36144756615E+02  0.73193499926E+01  0.78083452733E+02  0.00000000000E+00 0. -1.
</event>
<event>
 7    1  0.6105960E-006  0.7191700E+02  0.7818608E-02  0.1434600E+00
          2   -1    0    0  502    0  0.00000000000E+00  0.00000000000E+00  0.21989087720E+03  0.21989087720E+03  0.00000000000E+00 0. -1.
          1   -1    0    0  501    0 -0.00000000000E+00 -0.00000000000E+00 -0.25285179520E+04  0.25285179520E+04  0.00000000000E+00 0. -1.
         25    2    1    2    0    0 -0.96775334480E+02  0.25302474271E+02  0.10974050065E+03  0.19409752724E+03  0.12500076812E+03 0.  0.
          2    1    1    2  501    0  0.36536652144E+02 -0.91622391928E+01 -0.24718612122E+04  0.24721482007E+04  0.00000000000E+00 0. -1.
          1    1    1    2  502    0  0.60238682335E+02 -0.16140235078E+02  0.53493636776E+02  0.82163101289E+02  0.00000000000E+00 0. -1.
         22    1    3    3    0    0  0.29679330456E+02  0.10174527571E+02  0.32376937905E+02  0.45084917387E+02  0.00000000000E+00 0.  1.
         22    1    3    3    0    0 -0.12645466494E+03  0.15127946700E+02  0.77363562746E+02  0.14901260986E+03  0.00000000000E+00 0.  1.
</event>
<event>
 7    1  0.6774338E-006  0.5471841E+02  0.7818608E-02  0.1465993E+00
          2   -1    0    0  502    0  0.00000000000E+00  0.00000000000E+00  0.26094915006E+04  0.26094915006E+04  0.00000000000E+00 0. -1.
          1   -1    0    0  501    0 -0.00000000000E+00 -0.00000000000E+00 -0.58733994749E+03  0.58733994749E+03  0.00000000000E+00 0. -1.
         25    2    1    2    0    0 -0.26609791811E+02 -0.26925859315E+02 -0.14662699784E+03  0.19636186358E+03  0.12500168820E+03 0.  0.
          2    1    1    2  501    0  0.10970729225E+01  0.56802431001E+02 -0.41375495393E+03  0.41763726084E+03  0.00000000000E+00 0. -1.
          1    1    1    2  502    0  0.25512718888E+02 -0.29876571686E+02  0.25825335049E+04  0.25828323237E+04  0.00000000000E+00 0. -1.
         22    1    3    3    0    0  0.25610529569E+02  0.37338936313E+02 -0.71052142160E+02  0.84252610021E+02  0.00000000000E+00 0. -1.
         22    1    3    3    0    0 -0.52220321380E+02 -0.64264795628E+02 -0.75574855684E+02  0.11210925356E+03  0.00000000000E+00 0. -1.
</event>
<event>
 7    1  0.6105960E-006  0.1147579E+03  0.7818608E-02  0.1295298E+00
          2   -1    0    0  502    0  0.00000000000E+00  0.00000000000E+00  0.49968531069E+03  0.49968531069E+03  0.00000000000E+00 0. -1.
          1   -1    0    0  501    0 -0.00000000000E+00 -0.00000000000E+00 -0.68610343464E+03  0.68610343464E+03  0.00000000000E+00 0. -1.
         25    2    1    2    0    0  0.15123101254E+03 -0.59578995944E+01  0.30957009294E+03  0.36656057423E+03  0.12500678548E+03 0.  0.
          2    1    1    2  501    0 -0.10216998104E+03 -0.51666901740E+02 -0.64340899207E+03  0.65351610909E+03  0.00000000000E+00 0. -1.
          1    1    1    2  502    0 -0.49061031497E+02  0.57624801334E+02  0.14742077519E+03  0.16571206201E+03  0.00000000000E+00 0. -1.
         22    1    3    3    0    0  0.98686056784E+02  0.15773274854E+02  0.28949436338E+03  0.30625923730E+03  0.00000000000E+00 0. -1.
         22    1    3    3    0    0  0.52544955753E+02 -0.21731174449E+02  0.20075729561E+02  0.60301336929E+02  0.00000000000E+00 0. -1.
</event>
<event>
 7    1  0.6105960E-006  0.1598120E+03  0.7818608E-02  0.1220412E+00
          2   -1    0    0  502    0  0.00000000000E+00  0.00000000000E+00  0.57557689372E+03  0.57557689372E+03  0.00000000000E+00 0. -1.
          1   -1    0    0  501    0 -0.00000000000E+00 -0.00000000000E+00 -0.53680547898E+03  0.53680547898E+03  0.00000000000E+00 0. -1.
         25    2    1    2    0    0  0.18303392520E+03 -0.63400849016E+02  0.11715984027E+02  0.23084190574E+03  0.12501854157E+03 0.  0.
          2    1    1    2  501    0 -0.91386139272E+02  0.13088090631E+03 -0.40469611672E+03  0.43504044062E+03  0.00000000000E+00 0. -1.
          1    1    1    2  502    0 -0.91647785926E+02 -0.67480057295E+02  0.43175154744E+03  0.44650002633E+03  0.00000000000E+00 0. -1.
         22    1    3    3    0    0  0.14014110071E+03 -0.56843087859E+02  0.62857043120E+02  0.16377323535E+03  0.00000000000E+00 0. -1.
         22    1    3    3    0    0  0.42892824487E+02 -0.65577611570E+01 -0.51141059094E+02  0.67068670399E+02  0.00000000000E+00 0. -1.
</event>
<event>
 7    1  0.6105960E-006  0.2083686E+03  0.7818608E-02  0.1205763E+00
          2   -1    0    0  502    0  0.00000000000E+00  0.00000000000E+00  0.86976766003E+03  0.86976766003E+03  0.00000000000E+00 0. -1.
          1   -1    0    0  501    0 -0.00000000000E+00 -0.00000000000E+00 -0.55432600620E+03  0.55432600620E+03  0.00000000000E+00 0. -1.
         25    2    1    2    0    0 -0.12071299082E+03 -0.28386517823E+02  0.59353420500E+01  0.17617518336E+03  0.12500018560E+03 0.  0.
          2    1    1    2  501    0 -0.10197679885E+03 -0.12327830399E+01 -0.44714190881E+03  0.45862476369E+03  0.00000000000E+00 0. -1.
          1    1    1    2  502    0  0.22268978968E+03  0.29619300863E+02  0.75664822059E+03  0.78929371918E+03  0.00000000000E+00 0. -1.
         22    1    3    3    0    0 -0.10349582398E+03 -0.36248004932E+02 -0.47486100809E+02  0.11949992976E+03  0.00000000000E+00 0. -1.
         22    1    3    3    0    0 -0.17217166850E+02  0.78614871091E+01  0.53421442859E+02  0.56675253604E+02  0.00000000000E+00 0. -1.
</event>
<event>
 7    1  0.6105960E-006  0.8001328E+02  0.7818608E-02  0.1354505E+00
          2   -1    0    0  502    0  0.00000000000E+00  0.00000000000E+00  0.12732884758E+03  0.12732884758E+03  0.00000000000E+00 0. -1.
          1   -1    0    0  501    0 -0.00000000000E+00 -0.00000000000E+00 -0.16734665537E+04  0.16734665537E+04  0.00000000000E+00 0. -1.
         25    2    1    2    0    0  0.29135093505E+02  0.20850229158E+02 -0.41218744752E+03  0.43221076389E+03  0.12499626714E+03 0.  0.
          2    1    1    2  501    0 -0.23706105158E+02 -0.84816657668E+02 -0.12408062156E+04  0.12439276142E+04  0.00000000000E+00 0. -1.
          1    1    1    2  502    0 -0.54289883470E+01  0.63966428511E+02  0.10685595695E+03  0.12465702318E+03  0.00000000000E+00 0. -1.
         22    1    3    3    0    0  0.45377248121E+02  0.34006783097E+02 -0.40665383259E+03  0.41058847464E+03  0.00000000000E+00 0. -1.
         22    1    3    3    0    0 -0.16242154615E+02 -0.13156553939E+02 -0.55336149228E+01  0.21622289245E+02  0.00000000000E+00 0. -1.
</event>
<event>
 7    1  0.6105960E-006  0.1215369E+03  0.7818608E-02  0.1294960E+00
          2   -1    0    0  502    0  0.00000000000E+00  0.00000000000E+00  0.17468881642E+04  0.17468881642E+04  0.00000000000E+00 0. -1.
          1   -1    0    0  501    0 -0.00000000000E+00 -0.00000000000E+00 -0.34817664284E+02  0.34817664284E+02  0.00000000000E+00 0. -1.
         25    2    1    2    0    0  0.50443327202E+02  0.47228200623E+02  0.66464400707E+03  0.67981619550E+03  0.12499348515E+03 0.  0.
          2    1    1    2  501    0 -0.12015593942E+03 -0.63924088022E+02  0.15372199882E+03  0.20531485998E+03  0.00000000000E+00 0. -1.
          1    1    1    2  502    0  0.69712612213E+02  0.16695887400E+02  0.89370449398E+03  0.89657477297E+03  0.00000000000E+00 0. -1.
         22    1    3    3    0    0  0.25143697376E+02  0.89781495218E+02  0.42311636085E+03  0.43326709686E+03  0.00000000000E+00 0. -1.
         22    1    3    3    0    0  0.25299629826E+02 -0.42553294595E+02  0.24152764622E+03  0.24654909863E+03  0.00000000000E+00 0. -1.
</event>
<event>
 7    1  0.6105960E-006  0.5486048E+02  0.7818608E-02  0.1534283E+00
          2   -1    0    0  502    0  0.00000000000E+00  0.00000000000E+00  0.49069279530E+03  0.49069279530E+03  0.00000000000E+00 0. -1.
          1   -1    0    0  501    0 -0.00000000000E+00 -0.00000000000E+00 -0.10699560677E+04  0.10699560677E+04  0.00000000000E+00 0. -1.
         25    2    1    2    0    0 -0.36147561976E+02  0.15284589503E+02  0.28059460972E+03  0.30967539635E+03  0.12500100475E+03 0.  0.
          2    1    1    2  501    0  0.37899442180E+02 -0.39727989970E+02 -0.10539305005E+04  0.10553597400E+04  0.00000000000E+00 0. -1.
          1    1    1    2  502    0 -0.17518802040E+01  0.24443400467E+02  0.19407261831E+03  0.19561372674E+03  0.00000000000E+00 0. -1.
         22    1    3    3    0    0 -0.75149179044E+02 -0.20297697936E+02  0.15546024868E+03  0.17385995678E+03  0.00000000000E+00 0.  1.
         22    1    3    3    0    0  0.39001617067E+02  0.35582287439E+02  0.12513436103E+03  0.13581543957E+03  0.00000000000E+00 0.  1.
</event>
<event>
 7    1  0.6105960E-006  0.5972748E+02  0.7818608E-02  0.1485608E+00
          2   -1    0    0  502    0  0.00000000000E+00  0.00000000000E+00  0.76184040778E+03  0.76184040778E+03  0.00000000000E+00 0. -1.
          1   -1    0    0  501    0 -0.00000000000E+00 -0.00000000000E+00 -0.37628825321E+03  0.37628825321E+03  0.00000000000E+00 0. -1.
         25    2    1    2    0    0 -0.76214299066E+02 -0.33739190551E+01  0.81889109610E+02  0.16777660661E+03  0.12499264274E+03 0.  0.
          2    1    1    2  501    0  0.53853767087E+02  0.25290698376E+02 -0.33030027162E+03  0.33561602627E+03  0.00000000000E+00 0. -1.
          1    1    1    2  502    0  0.22360531979E+02 -0.21916779321E+02  0.63396331658E+03  0.63473602811E+03  0.00000000000E+00 0. -1.
         22    1    3    3    0    0 -0.29124720893E+02 -0.52509790221E+02 -0.15947233443E+01  0.60067217171E+02  0.00000000000E+00 0.  1.
         22    1    3    3    0    0 -0.47089578174E+02  0.49135871166E+02  0.83483832955E+02  0.10770938944E+03  0.00000000000E+00 0.  1.
</event>
<event>
 7    1  0.6105960E-006  0.5132748E+02  0.7818608E-02  0.1489250E+00
          2   -1    0    0  502    0  0.00000000000E+00  0.00000000000E+00  0.57256034540E+03  0.57256034540E+03  0.00000000000E+00 0. -1.
          1   -1    0    0  501    0 -0.00000000000E+00 -0.00000000000E+00 -0.49765046194E+02  0.49765046194E+02  0.00000000000E+00 0. -1.
         25    2    1    2    0    0 -0.72680484885E+02  0.16710709369E+02  0.45983784972E+03  0.48232513807E+03  0.12499996036E+03 0.  0.
          2    1    1    2  501    0  0.30688961888E+02 -0.17881428892E+02 -0.24383239181E+02  0.43082481752E+02  0.00000000000E+00 0. -1.
          1    1    1    2  502    0  0.41991522997E+02  0.11707195227E+01  0.87340688667E+02  0.96917771769E+02  0.00000000000E+00 0. -1.
         22    1    3    3    0    0 -0.40378583696E+02 -0.53510810316E+02  0.18269802446E+03  0.19460833740E+03  0.00000000000E+00 0. -1.
         22    1    3    3    0    0 -0.32301901189E+02  0.70221519686E+02  0.27713982525E+03  0.28771680067E+03  0.00000000000E+00 0. -1.
</event>
<event>
 7    1  0.6105960E-006  0.5072426E+02  0.7818608E-02  0.1456732E+00
          2   -1    0    0  502    0  0.00000000000E+00  0.00000000000E+00  0.72026400093E+03  0.72026400093E+03  0.00000000000E+00 0. -1.
          1   -1    0    0  501    0 -0.00000000000E+00 -0.00000000000E+00 -0.66647466972E+02  0.66647466972E+02  0.00000000000E+00 0. -1.
         25    2    1    2    0    0  0.31268512335E+02 -0.77026771937E+02  0.12362850059E+03  0.19447233680E+03  0.12499856064E+03 0.  0.
          2    1    1    2  501    0 -0.36180413909E+02  0.27299725035E+02 -0.13003825058E+02  0.47152908752E+02  0.00000000000E+00 0. -1.
          1    1    1    2  502    0  0.49119015744E+01  0.49727046902E+02  0.54299185843E+03  0.54528622236E+03  0.00000000000E+00 0. -1.
         22    1    3    3    0    0  0.86554162289E+01 -0.36619593869E+02 -0.20666117623E+02  0.42930167748E+02  0.00000000000E+00 0. -1.
         22    1    3    3    0    0  0.22613096106E+02 -0.40407178068E+02  0.14429461821E+03  0.15154216905E+03  0.00000000000E+00 0. -1.
</event>
<event>
 7    1  0.6105960E-006  0.3364248E+02  0.7818608E-02  0.1617917E+00
          2   -1    0    0  502    0  0.00000000000E+00  0.00000000000E+00  0.10311341786E+04  0.10311341786E+04  0.00000000000E+00 0. -1.
          1   -1    0    0  501    0 -0.00000000000E+00 -0.00000000000E+00 -0.60143909534E+03  0.60143909534E+03  0.00000000000E+00 0. -1.
         25    2    1    2    0    0  0.32771246591E+02 -0.30670185240E+02  0.79495338858E+03  0.80597177172E+03  0.12499996775E+03 0.  0.
          2    1    1    2  501    0 -0.32924794376E+02  0.68982095719E+01 -0.59484093444E+03  0.59579137679E+03  0.00000000000E+00 0. -1.
          1    1    1    2  502    0  0.15354778497E+00  0.23771975668E+02  0.22958262908E+03  0.23081012539E+03  0.00000000000E+00 0. -1.
         22    1    3    3    0    0  0.13322646601E+02 -0.33288609423E+02  0.54370427007E+02  0.65128855070E+02  0.00000000000E+00 0. -1.
         22    1    3    3    0    0  0.19448599990E+02  0.26184241829E+01  0.74058296157E+03  0.74084291665E+03  0.00000000000E+00 0. -1.
</event>
<event>
 7    1  0.6105960E-006  0.7601308E+02  0.7818608E-02  0.1397879E+00
          2   -1    0    0  502    0  0.00000000000E+00  0.00000000000E+00  0.33762161316E+03  0.33762161316E+03  0.00000000000E+00 0. -1.
          1   -1    0    0  501    0 -0.00000000000E+00 -0.00000000000E+00 -0.34641229248E+03  0.34641229248E+03  0.00000000000E+00 0. -1.
         25    2    1    2    0    0 -0.10634057495E+03 -0.24273188676E+02 -0.41993366326E+02  0.17113492176E+03  0.12500485215E+03 0.  0.
          2    1    1    2  501    0  0.73021049969E+02 -0.93590427079E+01 -0.23205344222E+03  0.24345115623E+03  0.00000000000E+00 0. -1.
          1    1    1    2  502    0  0.33319524979E+02  0.33632231384E+02  0.26525612924E+03  0.26944782766E+03  0.00000000000E+00 0. -1.
         22    1    3    3    0    0 -0.80552647512E+02 -0.54414367056E+02 -0.72355261141E+02  0.12118141845E+03  0.00000000000E+00 0. -1.
         22    1    3    3    0    0 -0.25787927436E+02  0.30141178380E+02  0.30361894815E+02  0.49953503304E+02  0.00000000000E+00 0. -1.
</event>
<event>
 7    1  0.6105960E-006  0.1814436E+03  0.7818608E-02  0.1236246E+00
          2   -1    0    0  502    0  0.00000000000E+00  0.00000000000E+00  0.20901151187E+04  0.20901151187E+04  0.00000000000E+00 0. -1.
          1   -1    0    0  501    0 -0.00000000000E+00 -0.00000000000E+00 -0.12817475816E+03  0.12817475816E+03  0.00000000000E+00 0. -1.
         25    2    1    2    0    0  0.86538384440E+02  0.20485786017E+03  0.90415746241E+03  0.93945833245E+03  0.12500242686E+03 0.  0.
          2    1    1    2  501    0 -0.54210113570E+01 -0.17917985265E+03 -0.35079587604E+02  0.18266194028E+03  0.00000000000E+00 0. -1.
          1    1    1    2  502    0 -0.81117373083E+02 -0.25678007517E+02  0.10928624857E+04  0.10961696041E+04  0.00000000000E+00 0. -1.
         22    1    3    3    0    0  0.39957704021E+02  0.89458420579E+02  0.18237933696E+03  0.20703055251E+03  0.00000000000E+00 0. -1.
         22    1    3    3    0    0  0.46580680419E+02  0.11539943959E+03  0.72177812546E+03  0.73242777995E+03  0.00000000000E+00 0. -1.
</event>
<event>
 7    1  0.7315844E-006  0.4354428E+02  0.7818608E-02  0.1484605E+00
          2   -1    0    0  502    0  0.00000000000E+00  0.00000000000E+00  0.24747105862E+04  0.24747105862E+04  0.00000000000E+00 0. -1.
          1   -1    0    0  501    0 -0.00000000000E+00 -0.00000000000E+00 -0.35832221575E+03  0.35832221575E+03  0.00000000000E+00 0. -1.
         25    2    1    2    0    0  0.50651547820E+01  0.28370626958E+02 -0.16528665050E+03  0.20924894841E+03  0.12503958297E+03 0.  0.
          2    1    1    2  501    0 -0.45872455760E+02 -0.13176276817E+02 -0.16752791919E+03  0.17419385804E+03  0.00000000000E+00 0. -1.
          1    1    1    2  502    0  0.40807300979E+02 -0.15194350142E+02  0.24492029402E+04  0.24495899955E+04  0.00000000000E+00 0. -1.
         22    1    3    3    0    0 -0.41958593002E+02 -0.23566018168E+02 -0.10977849097E+03  0.11986324632E+03  0.00000000000E+00 0.  1.
         22    1    3    3    0    0  0.47023747784E+02  0.51936645126E+02 -0.55508159528E+02  0.89385702083E+02  0.00000000000E+00 0.  1.
</event>
<event>
 7    1  0.6105960E-006  0.6483586E+02  0.7818608E-02  0.1506018E+00
          2   -1    0    0  502    0  0.00000000000E+00  0.00000000000E+00  0.13676247508E+04  0.13676247508E+04  0.00000000000E+00 0. -1.
          1   -1    0    0  501    0 -0.00000000000E+00 -0.00000000000E+00 -0.26136370159E+03  0.26136370159E+03  0.00000000000E+00 0. -1.
         25    2    1    2    0    0 -0.88043659414E+02  0.30667289566E+01  0.94786971027E+02  0.17992267929E+03  0.12500603929E+03 0.  0.
          2    1    1    2  501    0  0.24307260085E+02  0.60493860552E+01 -0.21723327753E+03  0.21867266594E+03  0.00000000000E+00 0. -1.
          1    1    1    2  502    0  0.63736399330E+02 -0.91161150118E+01  0.12287073557E+04  0.12303931072E+04  0.00000000000E+00 0. -1.
         22    1    3    3    0    0 -0.16078210704E+02  0.58839241669E+02  0.47617801516E+02  0.77382299274E+02  0.00000000000E+00 0. -1.
         22    1    3    3    0    0 -0.71965448710E+02 -0.55772512713E+02  0.47169169511E+02  0.10254038002E+03  0.00000000000E+00 0. -1.
</event>
<event>
 7    1  0.6105960E-006  0.1179851E+03  0.7818608E-02  0.1259328E+00
          2   -1    0    0  502    0  0.00000000000E+00  0.00000000000E+00  0.20974163505E+04  0.20974163505E+04  0.00000000000E+00 0. -1.
          1   -1    0    0  501    0 -0.00000000000E+00 -0.00000000000E+00 -0.10411383012E+03  0.10411383012E+03  0.00000000000E+00 0. -1.
         25    2    1    2    0    0 -0.15394211241E+02  0.63107057710E+02  0.24273245920E+03  0.28065202861E+03  0.12500812750E+03 0.  0.
          2    1    1    2  501    0 -0.10266442120E+03 -0.15409749266E+02 -0.50407410517E+02  0.11540515927E+03  0.00000000000E+00 0. -1.
          1    1    1    2  502    0  0.11805863244E+03 -0.47697308444E+02  0.18009774717E+04  0.18054729927E+04  0.00000000000E+00 0. -1.
         22    1    3    3    0    0 -0.45512534770E+02  0.54836341672E+02  0.54154058911E+02  0.89504621588E+02  0.00000000000E+00 0. -1.
         22    1    3    3    0    0  0.30118323529E+02  0.82707160386E+01  0.18857840028E+03  0.19114740702E+03  0.00000000000E+00 0. -1.
</event>
<event>
 7    1  0.6105960E-006  0.5584333E+02  0.7818608E-02  0.1422827E+00
          2   -1    0    0  502    0  0.00000000000E+00  0.00000000000E+00  0.15431668107E+04  0.15431668107E+04  0.00000000000E+00 0. -1.
          1   -1    0    0  501    0 -0.00000000000E+00 -0.00000000000E+00 -0.40696135189E+02  0.40696135189E+02  0.00000000000E+00 0. -1.
         25    2    1    2    0    0 -0.98339332985E+02 -0.93079660692E+01  0.53672117497E+03  0.55986779879E+03  0.12500027926E+03 0.  0.
          2    1    1    2  501    0  0.47804506608E+02  0.25439304659E+02 -0.25803729009E+01  0.54213350735E+02  0.00000000000E+00 0. -1.
          1    1    1    2  502    0  0.50534826377E+02 -0.16131338590E+02  0.96832987342E+03  0.96978179634E+03  0.00000000000E+00 0. -1.
         22    1    3    3    0    0  0.23210038815E+02  0.23666906154E+02  0.10013658813E+03  0.10548063628E+03  0.00000000000E+00 0.  1.
         22    1    3    3    0    0 -0.12154937180E+03 -0.32974872223E+02  0.43658458684E+03  0.45438716251E+03  0.00000000000E+00 0.  1.
</event>
<event>
 7    1  0.6105960E-006  0.1407579E+03  0.7818608E-02  0.1300515E+00
          2   -1    0    0  502    0  0.00000000000E+00  0.00000000000E+00  0.39579075708E+04  0.39579075708E+04  0.00000000000E+00 0. -1.
          1   -1    0    0  501    0 -0.00000000000E+00 -0.00000000000E+00 -0.22742693077E+03  0.22742693077E+03  0.00000000000E+00 0. -1.
         25    2    1    2    0    0  0.71593551755E+02 -0.10106904986E+03  0.56140841472E+02  0.18470721372E+03  0.12499748489E+03 0.  0.
          2    1    1    2  501    0  0.50562464702E+02  0.30005684048E+02 -0.15650083683E+03  0.16718078789E+03  0.00000000000E+00 0. -1.
          1    1    1    2  502    0 -0.12215601646E+03  0.71063365810E+02  0.38308406354E+04  0.38334465000E+04  0.00000000000E+00 0. -1.
         22    1    3    3    0    0 -0.17956045224E+02 -0.59188869751E+02 -0.14095049506E+02  0.63438255674E+02  0.00000000000E+00 0.  1.
         22    1    3    3    0    0  0.89549596978E+02 -0.41880180108E+02  0.70235890979E+02  0.12126895805E+03  0.00000000000E+00 0.  1.
</event>
<event>
 7    1  0.6105960E-006  0.1064484E+03  0.7818608E-02  0.1303160E+00
          2   -1    0    0  502    0  0.00000000000E+00  0.00000000000E+00  0.15372335647E+04  0.15372335647E+04  0.00000000000E+00 0. -1.
          1   -1    0    0  501    0 -0.00000000000E+00 -0.00000000000E+00 -0.41844318053E+03  0.41844318053E+03  0.00000000000E+00 0. -1.
         25    2    1    2    0    0  0.17127078156E+03  0.42967817876E+02 -0.47080663589E+01  0.21639617084E+03  0.12500089150E+03 0.  0.
          2    1    1    2  501    0 -0.96662196569E+02 -0.29143422043E+02 -0.29857592665E+03  0.31518328520E+03  0.00000000000E+00 0. -1.
          1    1    1    2  502    0 -0.74608584989E+02 -0.13824395833E+02  0.14220743772E+04  0.14240972892E+04  0.00000000000E+00 0. -1.
         22    1    3    3    0    0  0.33328731158E+02  0.19231572613E+02 -0.55466957594E+02  0.67507341012E+02  0.00000000000E+00 0. -1.
         22    1    3    3    0    0  0.13794205040E+03  0.23736245263E+02  0.50758891235E+02  0.14888882983E+03  0.00000000000E+00 0. -1.
</event>
<event>
 7    1  0.6105960E-006  0.2361251E+02  0.7818608E-02  0.1706052E+00
          2   -1    0    0  502    0  0.00000000000E+00  0.00000000000E+00  0.29535945458E+02  0.29535945458E+02  0.00000000000E+00 0. -1.
          1   -1    0    0  501    0 -0.00000000000E+00 -0.00000000000E+00 -0.76866742371E+03  0.76866742371E+03  0.00000000000E+00 0. -1.
         25    2    1    2    0    0 -0.62907229978E+01 -0.37335390820E+01 -0.40947636992E+03  0.42819356079E+03  0.12500126188E+03 0.  0.
          2    1    1    2  501    0  0.22916246954E+02 -0.86594936171E+01 -0.34395153022E+03  0.34482284777E+03  0.00000000000E+00 0. -1.
          1    1    1    2  502    0 -0.16625523957E+02  0.12393032699E+02  0.14296421881E+02  0.25186960613E+02  0.00000000000E+00 0. -1.
         22    1    3    3    0    0 -0.27728638868E+02  0.53946740813E+02 -0.25010144297E+03  0.25735162722E+03  0.00000000000E+00 0. -1.
         22    1    3    3    0    0  0.21437915870E+02 -0.57680279895E+02 -0.15937492695E+03  0.17084193357E+03  0.00000000000E+00 0. -1.
</event>
<event>
 7    1  0.6105960E-006  0.1326121E+03  0.7818608E-02  0.1232742E+00
          2   -1    0    0  502    0  0.00000000000E+00  0.00000000000E+00  0.23142115371E+03  0.23142115371E+03  0.00000000000E+00 0. -1.
          1   -1    0    0  501    0 -0.00000000000E+00 -0.00000000000E+00 -0.79988639237E+03  0.79988639237E+03  0.00000000000E+00 0. -1.
         25    2    1    2    0    0  0.22296915214E+02 -0.52583527649E+02 -0.65656795657E+02  0.15231166583E+03  0.12500339565E+03 0.  0.
          2    1    1    2  501    0 -0.12031211215E+03 -0.55775944733E+02 -0.65484126397E+03  0.66813399953E+03  0.00000000000E+00 0. -1.
          1    1    1    2  502    0  0.98015196932E+02  0.10835947238E+03  0.15203282097E+03  0.21086188071E+03  0.00000000000E+00 0. -1.
         22    1    3    3    0    0 -0.52485326871E+01 -0.72856529652E+01  0.36300497187E+02  0.37394570870E+02  0.00000000000E+00 0.  1.
         22    1    3    3    0    0  0.27545447901E+02 -0.45297874683E+02 -0.10195729284E+03  0.11491709496E+03  0.00000000000E+00 0.  1.
</event>
<event>
 7    1  0.6105960E-006  0.4876786E+02  0.7818608E-02  0.1561955E+00
          2   -1    0    0  502    0  0.00000000000E+00  0.00000000000E+00  0.16339481998E+04  0.16339481998E+04  0.00000000000E+00 0. -1.
          1   -1    0    0  501    0 -0.00000000000E+00 -0.00000000000E+00 -0.48339991999E+02  0.48339991999E+02  0.00000000000E+00 0. -1.
         25    2    1    2    0    0  0.42049142434E+02  0.31092532407E+02  0.57551377512E+03  0.59124989215E+03  0.12500181461E+03 0.  0.
          2    1    1    2  501    0 -0.22488713824E+02 -0.43320575730E+02 -0.25580186405E+02  0.55106809629E+02  0.00000000000E+00 0. -1.
          1    1    1    2  502    0 -0.19560428610E+02  0.12228043323E+02  0.10356746191E+04  0.10359314901E+04  0.00000000000E+00 0. -1.
         22    1    3    3    0    0  0.55831995193E+02 -0.10991123575E+02  0.11200902820E+03  0.12563454494E+03  0.00000000000E+00 0. -1.
         22    1    3    3    0    0 -0.13782852759E+02  0.42083655982E+02  0.46350474692E+03  0.46561534721E+03  0.00000000000E+00 0. -1.
</event>
<event>
 7    1  0.6105960E-006  0.7229132E+02  0.7818608E-02  0.1457596E+00
          2   -1    0    0  502    0  0.00000000000E+00  0.00000000000E+00  0.18568703439E+04  0.18568703439E+04  0.00000000000E+00 0. -1.
          1   -1    0    0  501    0 -0.00000000000E+00 -0.00000000000E+00 -0.41580042347E+02  0.41580042347E+02  0.00000000000E+00 0. -1.
         25    2    1    2    0    0 -0.11159264040E+02  0.80308813410E+02  0.95532223041E+03  0.96687067694E+03  0.12499722921E+03 0.  0.
          2    1    1    2  501    0  0.36935688221E+02 -0.62024654885E+02  0.11684461646E+01  0.72198809854E+02  0.00000000000E+00 0. -1.
          1    1    1    2  502    0 -0.25776424181E+02 -0.18284158525E+02  0.85879962496E+03  0.85938089945E+03  0.00000000000E+00 0. -1.
         22    1    3    3    0    0 -0.43100640999E+01 -0.94430692034E+01  0.60754123844E+03  0.60762990760E+03  0.00000000000E+00 0.  1.
         22    1    3    3    0    0 -0.68491999398E+01  0.89751882613E+02  0.34778099198E+03  0.35924076934E+03  0.00000000000E+00 0.  1.
</event>
<event>
 7    1  0.6105960E-006  0.9270792E+02  0.7818608E-02  0.1309426E+00
          2   -1    0    0  502    0  0.00000000000E+00  0.00000000000E+00  0.16485303908E+04  0.16485303908E+04  0.00000000000E+00 0. -1.
          1   -1    0    0  501    0 -0.00000000000E+00 -0.00000000000E+00 -0.21579634936E+03  0.21579634936E+03  0.00000000000E+00 0. -1.
         25    2    1    2    0    0  0.61379334306E+02  0.98117670315E+02  0.12732904049E+04  0.12846356045E+04  0.12500272437E+03 0.  0.
          2    1    1    2  501    0  0.20547772351E+02 -0.90488905792E+02 -0.19493066365E+03  0.21588982526E+03  0.00000000000E+00 0. -1.
          1    1    1    2  502    0 -0.81927106656E+02 -0.76287645224E+01  0.35437430017E+03  0.36380131044E+03  0.00000000000E+00 0. -1.
         22    1    3    3    0    0  0.19281266668E+01 -0.13023523755E+02  0.56920846613E+03  0.56936070093E+03  0.00000000000E+00 0. -1.
         22    1    3    3    0    0  0.59451207639E+02  0.11114119407E+03  0.70408193878E+03  0.71527490353E+03  0.00000000000E+00 0. -1.
</event>
<event>
 7    1  0.6105960E-006  0.9230457E+02  0.7818608E-02  0.1409677E+00
          2   -1    0    0  502    0  0.00000000000E+00  0.00000000000E+00  0.18648635103E+04  0.18648635103E+04  0.00000000000E+00 0. -1.
          1   -1    0    0  501    0 -0.00000000000E+00 -0.00000000000E+00 -0.14845994506E+03  0.14845994506E+03  0.00000000000E+00 0. -1.
         25    2    1    2    0    0 -0.37704491121E+02 -0.11229434047E+03  0.75911103482E+02  0.18820325432E+03  0.12500528690E+03 0.  0.
          2    1    1    2  501    0  0.12235603600E+02  0.87524026114E+02 -0.70936065335E+02  0.11332294784E+03  0.00000000000E+00 0. -1.
          1    1    1    2  502    0  0.25468887521E+02  0.24770314352E+02  0.17114285271E+04  0.17117972532E+04  0.00000000000E+00 0. -1.
         22    1    3    3    0    0 -0.12529393740E+02 -0.13345130255E+03  0.40829707020E+02  0.14011888108E+03  0.00000000000E+00 0.  1.
         22    1    3    3    0    0 -0.25175097381E+02  0.21156962079E+02  0.35081396462E+02  0.48084373244E+02  0.00000000000E+00 0.  1.
</event>
<event>
 7    1  0.6105960E-006  0.2548880E+02  0.7818608E-02  0.1676894E+00
          2   -1    0    0  502    0  0.00000000000E+00  0.00000000000E+00  0.16084440075E+04  0.16084440075E+04  0.00000000000E+00 0. -1.
          1   -1    0    0  501    0 -0.00000000000E+00 -0.00000000000E+00 -0.39908575538E+02  0.39908575538E+02  0.00000000000E+00 0. -1.
         25    2    1    2    0    0 -0.15109637735E+02  0.88231709358E+01  0.37071686141E+03  0.39161501687E+03  0.12500072243E+03 0.  0.
          2    1    1    2  501    0 -0.74127336030E+01 -0.21204541739E+02 -0.25022759280E+02  0.33626175694E+02  0.00000000000E+00 0. -1.
          1    1    1    2  502    0  0.22522371338E+02  0.12381370803E+02  0.12228413299E+04  0.12231113905E+04  0.00000000000E+00 0. -1.
         22    1    3    3    0    0 -0.68216333872E+02  0.75406165219E+01  0.15609854974E+03  0.17052004673E+03  0.00000000000E+00 0. -1.
         22    1    3    3    0    0  0.53106696137E+02  0.12825544140E+01  0.21461831167E+03  0.22109497015E+03  0.00000000000E+00 0. -1.
</event>
<event>
 7    1  0.6105960E-006  0.1105068E+03  0.7818608E-02  0.1307028E+00
          2   -1    0    0  502    0  0.00000000000E+00  0.00000000000E+00  0.19231572441E+04  0.19231572441E+04  0.00000000000E+00 0. -1.
          1   -1    0    0  501    0 -0.00000000000E+00 -0.00000000000E+00 -0.73452271653E+02  0.73452271653E+02  0.00000000000E+00 0. -1.
         25    2    1    2    0    0 -0.15432570547E+03 -0.39511993714E+02  0.31675640348E+03  0.37594838715E+03  0.12499979856E+03 0.  0.
          2    1    1    2  501    0  0.10269309367E+03 -0.85667485650E+01  0.18654738573E+02  0.10472468639E+03  0.00000000000E+00 0. -1.
          1    1    1    2  502    0  0.51632611803E+02  0.48078742279E+02  0.15142938304E+04  0.15159364422E+04  0.00000000000E+00 0. -1.
         22    1    3    3    0    0 -0.11640814224E+03 -0.82694963845E+02  0.24962130025E+03  0.28757626148E+03  0.00000000000E+00 0. -1.
         22    1    3    3    0    0 -0.37917563226E+02  0.43182970131E+02  0.67135103224E+02  0.88372125669E+02  0.00000000000E+00 0. -1.
</event>
<event>
 7    1  0.8472329E-006  0.8667074E+02  0.7818608E-02  0.1344943E+00
          2   -1    0    0  502    0  0.00000000000E+00  0.00000000000E+00  0.67164301208E+03  0.67164301208E+03  0.00000000000E+00 0. -1.
          1   -1    0    0  501    0 -0.00000000000E+00 -0.00000000000E+00 -0.13223767852E+04  0.13223767852E+04  0.00000000000E+00 0. -1.
         25    2    1    2    0    0  0.18469135811E+01  0.63272318773E+02 -0.74564637361E+03  0.75869769316E+03  0.12500751068E+03 0.  0.
          2    1    1    2  501    0  0.63963627195E+02 -0.66189922494E+01 -0.56554054805E+03  0.56918473992E+03  0.00000000000E+00 0. -1.
          1    1    1    2  502    0 -0.65810540776E+02 -0.56653326524E+02  0.66045314850E+03  0.66613736424E+03  0.00000000000E+00 0. -1.
         22    1    3    3    0    0 -0.27031826021E+02 -0.85057725708E+01 -0.50766632317E+03  0.50845664856E+03  0.00000000000E+00 0. -1.
         22    1    3    3    0    0  0.28878739602E+02  0.71778091344E+02 -0.23798005044E+03  0.25024104461E+03  0.00000000000E+00 0. -1.
</event>
<event>
 7    1  0.6105960E-006  0.1002409E+03  0.7818608E-02  0.1438729E+00
          2   -1    0    0  502    0  0.00000000000E+00  0.00000000000E+00  0.20393291858E+04  0.20393291858E+04  0.00000000000E+00 0. -1.
          1   -1    0    0  501    0 -0.00000000000E+00 -0.00000000000E+00 -0.20252942644E+04  0.20252942644E+04  0.00000000000E+00 0. -1.
         25    2    1    2    0    0 -0.77137894643E+02  0.44137426575E+01 -0.29767897477E+03  0.33197538521E+03  0.12500059380E+03 0.  0.
          2    1    1    2  501    0 -0.22843334272E+02 -0.12829315649E+02 -0.17091220442E+04  0.17093228400E+04  0.00000000000E+00 0. -1.
          1    1    1    2  502    0  0.99981228914E+02  0.84155729912E+01  0.20208359404E+04  0.20233252250E+04  0.00000000000E+00 0. -1.
         22    1    3    3    0    0  0.42412344600E+01 -0.48501246519E+02 -0.12018717218E+03  0.12967388072E+03  0.00000000000E+00 0. -1.
         22    1    3    3    0    0 -0.81379129103E+02  0.52914989177E+02 -0.17749180258E+03  0.20230150449E+03  0.00000000000E+00 0. -1.
</event>
<event>
 7    1  0.1178797E-005  0.1547359E+03  0.7818608E-02  0.1285711E+00
          2   -1    0    0  502    0  0.00000000000E+00  0.00000000000E+00  0.12890456138E+04  0.12890456138E+04  0.00000000000E+00 0. -1.
          1   -1    0    0  501    0 -0.00000000000E+00 -0.00000000000E+00 -0.17773161158E+04  0.17773161158E+04  0.00000000000E+00 0. -1.
         25    2    1    2    0    0  0.67201691292E+01  0.96309629117E+02 -0.45474469833E+03  0.48139394833E+03  0.12500674980E+03 0.  0.
          2    1    1    2  501    0  0.26312481513E+02  0.55471622140E+02 -0.13037932843E+04  0.13052380533E+04  0.00000000000E+00 0. -1.
          1    1    1    2  502    0 -0.33032650642E+02 -0.15178125126E+03  0.12702674806E+04  0.12797297280E+04  0.00000000000E+00 0. -1.
         22    1    3    3    0    0 -0.22393703903E+02  0.11896464596E+03 -0.34988833993E+03  0.37023764717E+03  0.00000000000E+00 0.  1.
         22    1    3    3    0    0  0.29113873032E+02 -0.22655016841E+02 -0.10485635840E+03  0.11115630116E+03  0.00000000000E+00 0.  1.
</event>
<event>
 7    1  0.6105960E-006  0.2284688E+03  0.7818608E-02  0.1203984E+00
          2   -1    0    0  502    0  0.00000000000E+00  0.00000000000E+00  0.23749016461E+03  0.23749016461E+03  0.00000000000E+00 0. -1.
          1   -1    0    0  501    0 -0.00000000000E+00 -0.00000000000E+00 -0.94295094600E+03  0.94295094600E+03  0.00000000000E+00 0. -1.
         25    2    1    2    0    0  0.14188121995E+03  0.13870122861E+03 -0.33143240551E+03  0.40600647957E+03  0.12500204254E+03 0.  0.
          2    1    1    2  501    0 -0.23250627449E+03 -0.11084092461E+03 -0.53149970309E+03  0.59062408742E+03  0.00000000000E+00 0. -1.
          1    1    1    2  502    0  0.90625054538E+02 -0.27860303993E+02  0.15747132722E+03  0.18381054362E+03  0.00000000000E+00 0. -1.
         22    1    3    3    0    0  0.62123294255E+02  0.21506602905E+02 -0.20765580793E+03  0.21781361809E+03  0.00000000000E+00 0. -1.
         22    1    3    3    0    0  0.79757925699E+02  0.11719462570E+03 -0.12377659759E+03  0.18819286149E+03  0.00000000000E+00 0. -1.
</event>
<event>
 7    1  0.6105960E-006  0.1219829E+03  0.7818608E-02  0.1401193E+00
          2   -1    0    0  502    0  0.00000000000E+00  0.00000000000E+00  0.25750998345E+04  0.25750998345E+04  0.00000000000E+00 0. -1.
          1   -1    0    0  501    0 -0.00000000000E+00 -0.00000000000E+00 -0.29556488303E+04  0.29556488303E+04  0.00000000000E+00 0. -1.
         25    2    1    2    0    0  0.10894456428E+03 -0.89469299400E+02 -0.14354460201E+04  0.14477582903E+04  0.12500046751E+03 0.  0.
          2    1    1    2  501    0 -0.28642067081E+02 -0.23302288000E+01 -0.15124624695E+04  0.15127354427E+04  0.00000000000E+00 0. -1.
          1    1    1    2  502    0 -0.80302497196E+02  0.91799528200E+02  0.25673594938E+04  0.25702549319E+04  0.00000000000E+00 0. -1.
         22    1    3    3    0    0  0.76231747761E+02 -0.11998931141E+03 -0.10074313356E+04  0.10174117210E+04  0.00000000000E+00 0.  1.
         22    1    3    3    0    0  0.32712816515E+02  0.30520012008E+02 -0.42801468456E+03  0.43034656929E+03  0.00000000000E+00 0.  1.
</event>
<event>
 7    1  0.6105960E-006  0.1205443E+03  0.7818608E-02  0.1275026E+00
          2   -1    0    0  502    0  0.00000000000E+00  0.00000000000E+00  0.13659941567E+04  0.13659941567E+04  0.00000000000E+00 0. -1.
          1   -1    0    0  501    0 -0.00000000000E+00 -0.00000000000E+00 -0.23097974808E+03  0.23097974808E+03  0.00000000000E+00 0. -1.
         25    2    1    2    0    0 -0.42811670014E+02  0.12277667263E+03  0.12691713641E+03  0.22054292413E+03  0.12499708571E+03 0.  0.
          2    1    1    2  501    0 -0.44036904614E+02 -0.11453012341E+03 -0.16192256871E+03  0.20316327521E+03  0.00000000000E+00 0. -1.
          1    1    1    2  502    0  0.86848574628E+02 -0.82465492189E+01  0.11700198409E+04  0.11732677055E+04  0.00000000000E+00 0. -1.
         22    1    3    3    0    0 -0.63289703045E+02  0.16652873508E+02  0.78250450306E+02  0.10200998814E+03  0.00000000000E+00 0. -1.
         22    1    3    3    0    0  0.20478033031E+02  0.10612379913E+03  0.48666686100E+02  0.11853293599E+03  0.00000000000E+00 0. -1.
</event>
<event>
 7    1  0.6105960E-006  0.8494280E+02  0.7818608E-02  0.1327608E+00
          2   -1    0    0  502    0  0.00000000000E+00  0.00000000000E+00  0.12414052757E+03  0.12414052757E+03  0.00000000000E+00 0. -1.
          1   -1    0    0  501    0 -0.00000000000E+00 -0.00000000000E+00 -0.69428168176E+03  0.69428168176E+03  0.00000000000E+00 0. -1.
         25    2    1    2    0    0  0.13654890566E+03  0.74716261440E+02 -0.20973627059E+03  0.28956239614E+03  0.12501581780E+03 0.  0.
          2    1    1    2  501    0 -0.68080539100E+02 -0.34471297367E+02 -0.42169257174E+03  0.42854154432E+03  0.00000000000E+00 0. -1.
          1    1    1    2  502    0 -0.68468366556E+02 -0.40244964072E+02  0.61287688134E+02  0.10031826887E+03  0.00000000000E+00 0. -1.
         22    1    3    3    0    0  0.52794810429E+02  0.33841171061E+02 -0.29893648937E+01  0.62780993696E+02  0.00000000000E+00 0.  1.
         22    1    3    3    0    0  0.83754095226E+02  0.40875090379E+02 -0.20674690569E+03  0.22678140244E+03  0.00000000000E+00 0.  1.
</event>
<event>
 7    1  0.6105960E-006  0.5620912E+02  0.7818608E-02  0.1484425E+00
          2   -1    0    0  502    0  0.00000000000E+00  0.00000000000E+00  0.16949178711E+04  0.16949178711E+04  0.00000000000E+00 0. -1.
          1   -1    0    0  501    0 -0.00000000000E+00 -0.00000000000E+00 -0.38748241986E+03  0.38748241986E+03  0.00000000000E+00 0. -1.
         25    2    1    2    0    0 -0.20583591514E+02 -0.51758484974E+02 -0.18720664192E+03  0.23189321094E+03  0.12500203796E+03 0.  0.
          2    1    1    2  501    0 -0.12604989081E+02  0.56652463048E+02 -0.17302662979E+03  0.18250096420E+03  0.00000000000E+00 0. -1.
          1    1    1    2  502    0  0.33188580595E+02 -0.48939780741E+01  0.16676687230E+04  0.16680061158E+04  0.00000000000E+00 0. -1.
         22    1    3    3    0    0 -0.13718267432E+02 -0.52700639731E+02 -0.20536235542E+03  0.21245998520E+03  0.00000000000E+00 0. -1.
         22    1    3    3    0    0 -0.68653240822E+01  0.94215475687E+00  0.18155713491E+02  0.19433225742E+02  0.00000000000E+00 0. -1.
</event>
<event>
 7    1  0.6105960E-006  0.6783007E+02  0.7818608E-02  0.1449314E+00
          2   -1    0    0  502    0  0.00000000000E+00  0.00000000000E+00  0.12476353331E+04  0.12476353331E+04  0.00000000000E+00 0. -1.
          1   -1    0    0  501    0 -0.00000000000E+00 -0.00000000000E+00 -0.80235790890E+03  0.80235790890E+03  0.00000000000E+00 0. -1.
         25    2    1    2    0    0  0.63975384108E+02 -0.61966599328E+02 -0.10632936610E+01  0.15348778422E+03  0.12499864042E+03 0.  0.
          2    1    1    2  501    0 -0.62214001394E+02  0.26220139437E+02 -0.72323647007E+03  0.72638080187E+03  0.00000000000E+00 0. -1.
          1    1    1    2  502    0 -0.17613827136E+01  0.35746459891E+02  0.11695771879E+04  0.11701246559E+04  0.00000000000E+00 0. -1.
         22    1    3    3    0    0  0.82214404718E+02 -0.81086001254E+02  0.23008290846E+02  0.11774348980E+03  0.00000000000E+00 0.  1.
         22    1    3    3    0    0 -0.18239020611E+02  0.19119401926E+02 -0.24071584507E+02  0.35744294419E+02  0.00000000000E+00 0.  1.
</event>
<event>
 7    1  0.6105960E-006  0.5237092E+02  0.7818608E-02  0.1522347E+00
          2   -1    0    0  502    0  0.00000000000E+00  0.00000000000E+00  0.29450079039E+03  0.29450079039E+03  0.00000000000E+00 0. -1.
          1   -1    0    0  501    0 -0.00000000000E+00 -0.00000000000E+00 -0.47968208468E+03  0.47968208468E+03  0.00000000000E+00 0. -1.
         25    2    1    2    0    0 -0.13119012878E+02  0.75167755709E+02 -0.31518009076E+03  0.34754348266E+03  0.12500273090E+03 0.  0.
          2    1    1    2  501    0 -0.68351568439E+01 -0.26924940572E+02 -0.14453777422E+03  0.14718301523E+03  0.00000000000E+00 0. -1.
          1    1    1    2  502    0  0.19954169721E+02 -0.48242815137E+02  0.27453657069E+03  0.27945637718E+03  0.00000000000E+00 0. -1.
         22    1    3    3    0    0  0.16304346021E+02  0.98757079355E+02 -0.27397223289E+03  0.29168403593E+03  0.00000000000E+00 0. -1.
         22    1    3    3    0    0 -0.29423358899E+02 -0.23589323646E+02 -0.41207857878E+02  0.55859446738E+02  0.00000000000E+00 0. -1.
</event>
<event>
 7    1  0.6105960E-006  0.6804456E+02  0.7818608E-02  0.1389745E+00
          2   -1    0    0  502    0  0.00000000000E+00  0.00000000000E+00  0.29420320889E+03  0.29420320889E+03  0.00000000000E+00 0. -1.
          1   -1    0    0  501    0 -0.00000000000E+00 -0.00000000000E+00 -0.43687685100E+03  0.43687685100E+03  0.00000000000E+00 0. -1.
         25    2    1    2    0    0 -0.60641042399E+02 -0.98187583820E+02 -0.78928050843E+02  0.18754550008E+03  0.12500215898E+03 0.  0.
          2    1    1    2  501    0  0.16385067148E+02  0.63163542769E+02 -0.29672561091E+03  0.30381604916E+03  0.00000000000E+00 0. -1.
          1    1    1    2  502    0  0.44255975251E+02  0.35024041052E+02  0.23298001964E+03  0.23971851065E+03  0.00000000000E+00 0. -1.
         22    1    3    3    0    0 -0.85415408258E+02 -0.90807415403E+02 -0.24163949039E+02  0.12698690914E+03  0.00000000000E+00 0.  1.
         22    1    3    3    0    0  0.24774365859E+02 -0.73801684172E+01 -0.54764101803E+02  0.60558590934E+02  0.00000000000E+00 0.  1.
</event>
<event>
 7    1  0.6105960E-006  0.2078539E+03  0.7818608E-02  0.1321991E+00
          2   -1    0    0  502    0  0.00000000000E+00  0.00000000000E+00  0.63267626159E+03  0.63267626159E+03  0.00000000000E+00 0. -1.
          1   -1    0    0  501    0 -0.00000000000E+00 -0.00000000000E+00 -0.21814878153E+03  0.21814878153E+03  0.00000000000E+00 0. -1.
         25    2    1    2    0    0  0.22290855766E+03 -0.78818251113E+02 -0.21431111687E+02  0.26830176385E+03  0.12500400853E+03 0.  0.
          2    1    1    2  501    0 -0.31722819619E+02  0.82501674733E+01 -0.47589034645E+02  0.57785108517E+02  0.00000000000E+00 0. -1.
          1    1    1    2  502    0 -0.19118573804E+03  0.70568083640E+02  0.48354762639E+03  0.52473817076E+03  0.00000000000E+00 0. -1.
         22    1    3    3    0    0  0.22001354778E+03 -0.46377660056E+02  0.71611586518E+01  0.22496250966E+03  0.00000000000E+00 0. -1.
         22    1    3    3    0    0  0.28950098762E+01 -0.32440591058E+02 -0.28592270338E+02  0.43339254187E+02  0.00000000000E+00 0. -1.
</event>
<event>
 7    1  0.6105960E-006  0.6759247E+02  0.7818608E-02  0.1488914E+00
          2   -1    0    0  502    0  0.00000000000E+00  0.00000000000E+00  0.12933897233E+04  0.12933897233E+04  0.00000000000E+00 0. -1.
          1   -1    0    0  501    0 -0.00000000000E+00 -0.00000000000E+00 -0.35522304547E+03  0.35522304547E+03  0.00000000000E+00 0. -1.
         25    2    1    2    0    0 -0.15856462126E+02  0.37767044954E+02  0.10160829491E+04  0.10245619241E+04  0.12499919887E+03 0.  0.
          2    1    1    2  501    0  0.31009158760E+02 -0.60156215781E+02 -0.34703750315E+03  0.35357512189E+03  0.00000000000E+00 0. -1.
          1    1    1    2  502    0 -0.15152696634E+02  0.22389170826E+02  0.26912123182E+03  0.27047572276E+03  0.00000000000E+00 0. -1.
         22    1    3    3    0    0  0.26736388233E+02 -0.96071460191E+01  0.76485820334E+03  0.76538565634E+03  0.00000000000E+00 0. -1.
         22    1    3    3    0    0 -0.42592850359E+02  0.47374190974E+02  0.25122474578E+03  0.25917626775E+03  0.00000000000E+00 0. -1.
</event>
<event>
 7    1  0.6105960E-006  0.8310106E+02  0.7818608E-02  0.1412990E+00
          2   -1    0    0  502    0  0.00000000000E+00  0.00000000000E+00  0.75424411474E+03  0.75424411474E+03  0.00000000000E+00 0. -1.
          1   -1    0    0  501    0 -0.00000000000E+00 -0.00000000000E+00 -0.14483805825E+03  0.14483805825E+03  0.00000000000E+00 0. -1.
         25    2    1    2    0    0 -0.93166069917E+02  0.53564655988E+02 -0.40804563421E+02  0.16981934237E+03  0.12499803075E+03 0.  0.
          2    1    1    2  501    0  0.66160670671E+02 -0.26184353717E+02 -0.64789857583E+01  0.71448106901E+02  0.00000000000E+00 0. -1.
          1    1    1    2  502    0  0.27005399245E+02 -0.27380302271E+02  0.65668960567E+03  0.65781472372E+03  0.00000000000E+00 0. -1.
         22    1    3    3    0    0  0.20802357077E+02 -0.52412172505E-01  0.20967588416E+02  0.29536089297E+02  0.00000000000E+00 0.  1.
         22    1    3    3    0    0 -0.11396842699E+03  0.53617068161E+02 -0.61772151837E+02  0.14028325307E+03  0.00000000000E+00 0.  1.
</event>
<event>
 7    1  0.6105960E-006  0.7769262E+02  0.7818608E-02  0.1435046E+00
          2   -1    0    0  502    0  0.00000000000E+00  0.00000000000E+00  0.16120997399E+04  0.16120997399E+04  0.00000000000E+00 0. -1.
          1   -1    0    0  501    0 -0.00000000000E+00 -0.00000000000E+00 -0.34305136587E+03  0.34305136587E+03  0.00000000000E+00 0. -1.
         25    2    1    2    0    0 -0.84255698857E+02  0.39145610654E+02 -0.11229468059E+03  0.19200606986E+03  0.12499933581E+03 0.  0.
          2    1    1    2  501    0  0.52929915304E+02 -0.54189378720E+02 -0.18318599210E+03  0.19823009964E+03  0.00000000000E+00 0. -1.
          1    1    1    2  502    0  0.31325783553E+02  0.15043768067E+02  0.15645290468E+04  0.15649149363E+04  0.00000000000E+00 0. -1.
         22    1    3    3    0    0 -0.76371713086E+01 -0.26974305246E+02  0.13034923305E+02  0.30916803759E+02  0.00000000000E+00 0. -1.
         22    1    3    3    0    0 -0.76618527549E+02  0.66119915900E+02 -0.12532960389E+03  0.16108926611E+03  0.00000000000E+00 0. -1.
</event>
<event>
 7    1  0.6105960E-006  0.1407221E+03  0.7818608E-02  0.1221032E+00
          2   -1    0    0  502    0  0.00000000000E+00  0.00000000000E+00  0.15230341555E+04  0.15230341555E+04  0.00000000000E+00 0. -1.
          1   -1    0    0  501    0 -0.00000000000E+00 -0.00000000000E+00 -0.11433864710E+04  0.11433864710E+04  0.00000000000E+00 0. -1.
         25    2    1    2    0    0  0.12114948542E+03  0.14129664427E+03 -0.78441339230E+02  0.23752759661E+03  0.12499750377E+03 0.  0.
          2    1    1    2  501    0  0.72606566056E+01 -0.14068503502E+03 -0.97748670278E+03  0.98758556608E+03  0.00000000000E+00 0. -1.
          1    1    1    2  502    0 -0.12841014202E+03 -0.61160925065E+00  0.14355757265E+04  0.14413074638E+04  0.00000000000E+00 0. -1.
         22    1    3    3    0    0 -0.67678567193E+01  0.78883483557E+01  0.24040420221E+02  0.26191062001E+02  0.00000000000E+00 0.  1.
         22    1    3    3    0    0  0.12791734214E+03  0.13340829592E+03 -0.10248175945E+03  0.21133653461E+03  0.00000000000E+00 0.  1.
</event>
<event>
 7    1  0.6105960E-006  0.7085105E+02  0.7818608E-02  0.1461469E+00
          2   -1    0    0  502    0  0.00000000000E+00  0.00000000000E+00  0.11498668966E+04  0.11498668966E+04  0.00000000000E+00 0. -1.
          1   -1    0    0  501    0 -0.00000000000E+00 -0.00000000000E+00 -0.37449391835E+03  0.37449391835E+03  0.00000000000E+00 0. -1.
         25    2    1    2    0    0  0.39243800531E+01 -0.53566355189E+02  0.93538024936E+02  0.16510233334E+03  0.12499865279E+03 0.  0.
          2    1    1    2  501    0 -0.28135430487E+02 -0.13828516052E+02 -0.33672649776E+03  0.33818273847E+03  0.00000000000E+00 0. -1.
          1    1    1    2  502    0  0.24211050434E+02  0.67394871241E+02  0.10185614511E+04  0.10210757432E+04  0.00000000000E+00 0. -1.
         22    1    3    3    0    0  0.38957441304E+02 -0.50957526956E+02 -0.11018810753E+01  0.64152676704E+02  0.00000000000E+00 0.  1.
         22    1    3    3    0    0 -0.35033061251E+02 -0.26088282330E+01  0.94639906011E+02  0.10094965664E+03  0.00000000000E+00 0.  1.
</event>
<event>
 7    1  0.6105960E-006  0.1140821E+03  0.7818608E-02  0.1338248E+00
          2   -1    0    0  502    0  0.00000000000E+00  0.00000000000E+00  0.28813974734E+04  0.28813974734E+04  0.00000000000E+00 0. -1.
          1   -1    0    0  501    0 -0.00000000000E+00 -0.00000000000E+00 -0.17975502050E+03  0.17975502050E+03  0.00000000000E+00 0. -1.
         25    2    1    2    0    0  0.19810225011E+01 -0.64702168973E+02  0.27314785039E+02  0.14338533033E+03  0.12499184115E+03 0.  0.
          2    1    1    2  501    0 -0.14347879894E+02 -0.49735484599E+02 -0.11497520183E+03  0.12609035301E+03  0.00000000000E+00 0. -1.
          1    1    1    2  502    0  0.12366857393E+02  0.11443765357E+03  0.27893028697E+04  0.27916768105E+04  0.00000000000E+00 0. -1.
         22    1    3    3    0    0  0.36970903197E+02 -0.89247586340E+02  0.94570484643E+01  0.97063974349E+02  0.00000000000E+00 0.  1.
         22    1    3    3    0    0 -0.34989880696E+02  0.24545417366E+02  0.17857736575E+02  0.46321355986E+02  0.00000000000E+00 0.  1.
</event>
<event>
 7    1  0.6105960E-006  0.1599906E+03  0.7818608E-02  0.1380819E+00
          2   -1    0    0  502    0  0.00000000000E+00  0.00000000000E+00  0.29227354037E+03  0.29227354037E+03  0.00000000000E+00 0. -1.
          1   -1    0    0  501    0 -0.00000000000E+00 -0.00000000000E+00 -0.16829447079E+04  0.16829447079E+04  0.00000000000E+00 0. -1.
         25    2    1    2    0    0  0.17823980690E+03  0.10697927037E+02 -0.73587265836E+03  0.76747548012E+03  0.12500467534E+03 0.  0.
          2    1    1    2  501    0 -0.20896051136E+02  0.15134335067E+02 -0.90808217247E+03  0.90844863642E+03  0.00000000000E+00 0. -1.
          1    1    1    2  502    0 -0.15734375577E+03 -0.25832262103E+02  0.25328366325E+03  0.29929413178E+03  0.00000000000E+00 0. -1.
         22    1    3    3    0    0  0.14962872770E+03  0.58750271590E+02 -0.58043211598E+03  0.60228049265E+03  0.00000000000E+00 0.  1.
         22    1    3    3    0    0  0.28611079205E+02 -0.48052344553E+02 -0.15544054237E+03  0.16519498747E+03  0.00000000000E+00 0.  1.
</event>
<event>
 7    1  0.6105960E-006  0.9754786E+02  0.7818608E-02  0.1452864E+00
          2   -1    0    0  502    0  0.00000000000E+00  0.00000000000E+00  0.95887855659E+03  0.95887855659E+03  0.00000000000E+00 0. -1.
          1   -1    0    0  501    0 -0.00000000000E+00 -0.00000000000E+00 -0.47818373011E+03  0.47818373011E+03  0.00000000000E+00 0. -1.
         25    2    1    2    0    0 -0.30131549991E+01  0.84828468007E+02 -0.22420070668E+03  0.27036048013E+03  0.12499553691E+03 0.  0.
          2    1    1    2  501    0 -0.22289783596E+02  0.95388792016E+01 -0.22770775173E+03  0.22899485773E+03  0.00000000000E+00 0. -1.
          1    1    1    2  502    0  0.25302938595E+02 -0.94367347208E+02  0.93260328489E+03  0.93770694884E+03  0.00000000000E+00 0. -1.
         22    1    3    3    0    0 -0.52396847618E+02  0.86590992873E+01 -0.12543495677E+03  0.13621430916E+03  0.00000000000E+00 0.  1.
         22    1    3    3    0    0  0.49383692619E+02  0.76169368719E+02 -0.98765749913E+02  0.13414617096E+03  0.00000000000E+00 0.  1.
</event>
<event>
 7    1  0.6105960E-006  0.9321144E+02  0.7818608E-02  0.1395777E+00
          2   -1    0    0  502    0  0.00000000000E+00  0.00000000000E+00  0.25684152869E+02  0.25684152869E+02  0.00000000000E+00 0. -1.
          1   -1    0    0  501    0 -0.00000000000E+00 -0.00000000000E+00 -0.11045011370E+04  0.11045011370E+04  0.00000000000E+00 0. -1.
         25    2    1    2    0    0 -0.15916870776E+01 -0.60093202945E+02 -0.82256383496E+03  0.83417508081E+03  0.12499230517E+03 0.  0.
          2    1    1    2  501    0 -0.78370185614E+01 -0.38468086110E+02 -0.12860556124E+03  0.13446413236E+03  0.00000000000E+00 0. -1.
          1    1    1    2  502    0  0.94287056390E+01  0.98561289055E+02 -0.12764758790E+03  0.16154607666E+03  0.00000000000E+00 0. -1.
         22    1    3    3    0    0  0.13627474002E+02 -0.45949461445E+02 -0.80647363508E+03  0.80789651883E+03  0.00000000000E+00 0. -1.
         22    1    3    3    0    0 -0.15219161079E+02 -0.14143741500E+02 -0.16090199874E+02  0.26278561977E+02  0.00000000000E+00 0. -1.
</event>
<event>
 7    1  0.6105960E-006  0.5700268E+02  0.7818608E-02  0.1440823E+00
          2   -1    0    0  502    0  0.00000000000E+00  0.00000000000E+00  0.24254824074E+04  0.24254824074E+04  0.00000000000E+00 0. -1.
          1   -1    0    0  501    0 -0.00000000000E+00 -0.00000000000E+00 -0.25495428570E+03  0.25495428570E+03  0.00000000000E+00 0. -1.
         25    2    1    2    0    0 -0.10535437830E+02 -0.62677175380E+01  0.26047628791E+02  0.12827443051E+03  0.12500228327E+03 0.  0.
          2    1    1    2  501    0 -0.43528536800E+02 -0.12748286259E+02 -0.20096339036E+03  0.20601829187E+03  0.00000000000E+00 0. -1.
          1    1    1    2  502    0  0.54063974630E+02  0.19016003797E+02  0.23454438832E+04  0.23461439707E+04  0.00000000000E+00 0. -1.
         22    1    3    3    0    0  0.46494648592E+02 -0.36063020720E+01 -0.23913887814E+02  0.52408317973E+02  0.00000000000E+00 0. -1.
         22    1    3    3    0    0 -0.57030086422E+02 -0.26614154660E+01  0.49961516605E+02  0.75866112535E+02  0.00000000000E+00 0. -1.
</event>
<event>
 7    1  0.6105960E-006  0.7898000E+02  0.7818608E-02  0.1403574E+00
          2   -1    0    0  502    0  0.00000000000E+00  0.00000000000E+00  0.38959411473E+03  0.38959411473E+03  0.00000000000E+00 0. -1.
          1   -1    0    0  501    0 -0.00000000000E+00 -0.00000000000E+00 -0.22756867097E+03  0.22756867097E+03  0.00000000000E+00 0. -1.
         25    2    1    2    0    0  0.99092838075E+01  0.10163694799E+03 -0.13975678743E+03  0.21350716827E+03  0.12500035267E+03 0.  0.
          2    1    1    2  501    0 -0.26010313969E+02 -0.61164747731E+02 -0.27190259476E+02  0.71812067288E+02  0.00000000000E+00 0. -1.
          1    1    1    2  502    0  0.16101030162E+02 -0.40472200258E+02  0.32897249065E+03  0.33184355015E+03  0.00000000000E+00 0. -1.
         22    1    3    3    0    0  0.55731350003E+02  0.41386696185E+02 -0.20724746734E+02  0.72445545905E+02  0.00000000000E+00 0. -1.
         22    1    3    3    0    0 -0.45822066195E+02  0.60250251803E+02 -0.11903204069E+03  0.14106162236E+03  0.00000000000E+00 0. -1.
</event>
<event>
 7    1  0.6105960E-006  0.1994897E+03  0.7818608E-02  0.1175966E+00
          2   -1    0    0  502    0  0.00000000000E+00  0.00000000000E+00  0.84772118584E+03  0.84772118584E+03  0.00000000000E+00 0. -1.
          1   -1    0    0  501    0 -0.00000000000E+00 -0.00000000000E+00 -0.37612984208E+03  0.37612984208E+03  0.00000000000E+00 0. -1.
         25    2    1    2    0    0 -0.13640440819E+02  0.99060198921E+02  0.55602856797E+02  0.16946706597E+03  0.12501369576E+03 0.  0.
          2    1    1    2  501    0 -0.10469354487E+03  0.10458532852E+03 -0.28159529690E+03  0.31811120778E+03  0.00000000000E+00 0. -1.
          1    1    1    2  502    0  0.11833398569E+03 -0.20364552745E+03  0.69758378387E+03  0.73627275417E+03  0.00000000000E+00 0. -1.
         22    1    3    3    0    0  0.44766049268E+02  0.85244561749E+02  0.51787053539E+02  0.10932764238E+03  0.00000000000E+00 0.  1.
         22    1    3    3    0    0 -0.58406490086E+02  0.13815637171E+02  0.38158032585E+01  0.60139423585E+02  0.00000000000E+00 0.  1.
</event>
<event>
 7    1  0.6105960E-006  0.6448293E+02  0.7818608E-02  0.1453430E+00
          2   -1    0    0  502    0  0.00000000000E+00  0.00000000000E+00  0.14562918090E+04  0.14562918090E+04  0.00000000000E+00 0. -1.
          1   -1    0    0  501    0 -0.00000000000E+00 -0.00000000000E+00 -0.60473603288E+02  0.60473603288E+02  0.00000000000E+00 0. -1.
         25    2    1    2    0    0 -0.78990315330E+02  0.57931286757E+02  0.45268987682E+03  0.47973938618E+03  0.12500500062E+03 0.  0.
          2    1    1    2  501    0  0.55334988361E+02 -0.30101207869E+02 -0.25318888024E+02  0.67890277234E+02  0.00000000000E+00 0. -1.
          1    1    1    2  502    0  0.23655326968E+02 -0.27830078889E+02  0.96844721690E+03  0.96913574886E+03  0.00000000000E+00 0. -1.
         22    1    3    3    0    0 -0.50638276435E+01 -0.78535875459E+01 -0.55953703324E+01  0.10891710467E+02  0.00000000000E+00 0. -1.
         22    1    3    3    0    0 -0.73926487686E+02  0.65784874303E+02  0.45828524715E+03  0.46884767572E+03  0.00000000000E+00 0. -1.
</event>
<event>
 7    1  0.6105960E-006  0.8684711E+02  0.7818608E-02  0.1311134E+00
          2   -1    0    0  502    0  0.00000000000E+00  0.00000000000E+00  0.28330196700E+03  0.28330196700E+03  0.00000000000E+00 0. -1.
          1   -1    0    0  501    0 -0.00000000000E+00 -0.00000000000E+00 -0.10352572418E+04  0.10352572418E+04  0.00000000000E+00 0. -1.
         25    2    1    2    0    0 -0.41802154270E+02 -0.51303026661E+02 -0.36343372903E+03  0.38998462843E+03  0.12499805744E+03 0.  0.
          2    1    1    2  501    0 -0.32563597976E+02  0.95453547149E+02 -0.64761860590E+03  0.65542476782E+03  0.00000000000E+00 0. -1.
          1    1    1    2  502    0  0.74365752246E+02 -0.44150520488E+02  0.25909706010E+03  0.27314981259E+03  0.00000000000E+00 0. -1.
         22    1    3    3    0    0 -0.35880612855E+02 -0.47511066552E+02 -0.53719009414E+02  0.80190097868E+02  0.00000000000E+00 0. -1.
         22    1    3    3    0    0 -0.59215414150E+01 -0.37919601091E+01 -0.30971471962E+03  0.30979453056E+03  0.00000000000E+00 0. -1.
</event>
<event>
 7    1  0.6105960E-006  0.1328263E+03  0.7818608E-02  0.1277699E+00
          2   -1    0    0  502    0  0.00000000000E+00  0.00000000000E+00  0.11382446336E+04  0.11382446336E+04  0.00000000000E+00 0. -1.
          1   -1    0    0  501    0 -0.00000000000E+00 -0.00000000000E+00 -0.40048464327E+03  0.40048464327E+03  0.00000000000E+00 0. -1.
         25    2    1    2    0    0  0.11094103143E+03 -0.13383849501E+03  0.29930200268E+02  0.21619935776E+03  0.12500276079E+03 0.  0.
          2    1    1    2  501    0 -0.11662156121E+03  0.56875205588E+02 -0.29210272865E+03  0.31962381268E+03  0.00000000000E+00 0. -1.
          1    1    1    2  502    0  0.56805297756E+01  0.76963289426E+02  0.99993251872E+03  0.10029061064E+04  0.00000000000E+00 0. -1.
         22    1    3    3    0    0  0.10005154740E+03 -0.15157164590E+03  0.48854108654E+02  0.18807179456E+03  0.00000000000E+00 0.  1.
         22    1    3    3    0    0  0.10889484032E+02  0.17733150887E+02 -0.18923908386E+02  0.28127563198E+02  0.00000000000E+00 0.  1.
</event>
<event>
 7    1  0.6105960E-006  0.5354164E+02  0.7818608E-02  0.1452062E+00
          2   -1    0    0  502    0  0.00000000000E+00  0.00000000000E+00  0.29897092314E+04  0.29897092314E+04  0.00000000000E+00 0. -1.
          1   -1    0    0  501    0 -0.00000000000E+00 -0.00000000000E+00 -0.52046020817E+02  0.52046020817E+02  0.00000000000E+00 0. -1.
         25    2    1    2    0    0  0.94709385710E+01 -0.15312126578E+02  0.35270615946E+03  0.37462758664E+03  0.12498013382E+03 0.  0.
          2    1    1    2  501    0  0.11616611876E+02  0.54422421575E+02 -0.21965368732E+02  0.59826608337E+02  0.00000000000E+00 0. -1.
          1    1    1    2  502    0 -0.21087550447E+02 -0.39110294997E+02  0.26069224199E+04  0.26073010572E+04  0.00000000000E+00 0. -1.
         22    1    3    3    0    0 -0.13788093209E+02 -0.60476680078E+02  0.27412355342E+03  0.28105384339E+03  0.00000000000E+00 0. -1.
         22    1    3    3    0    0  0.23259031780E+02  0.45164553500E+02  0.78582606042E+02  0.93573743243E+02  0.00000000000E+00 0. -1.
</event>
<event>
 7    1  0.6105960E-006  0.9329619E+02  0.7818608E-02  0.1302812E+00
          2   -1    0    0  502    0  0.00000000000E+00  0.00000000000E+00  0.12046935572E+04  0.12046935572E+04  0.00000000000E+00 0. -1.
          1   -1    0    0  501    0 -0.00000000000E+00 -0.00000000000E+00 -0.71586398519E+02  0.71586398519E+02  0.00000000000E+00 0. -1.
         25    2    1    2    0    0 -0.31619689259E+02  0.20167247911E+02  0.19727001934E+03  0.23653206466E+03  0.12500173778E+03 0.  0.
          2    1    1    2  501    0  0.25341392355E+02  0.83073066716E+02 -0.10760436745E+02  0.87516327499E+02  0.00000000000E+00 0. -1.
          1    1    1    2  502    0  0.62782969047E+01 -0.10324031463E+03  0.94659757613E+03  0.95223156360E+03  0.00000000000E+00 0. -1.
         22    1    3    3    0    0 -0.60156606358E+02  0.57571119613E+02  0.11978268690E+03  0.14588057850E+03  0.00000000000E+00 0.  1.
         22    1    3    3    0    0  0.28536917099E+02 -0.37403871702E+02  0.77487332440E+02  0.90651486168E+02  0.00000000000E+00 0.  1.
</event>
<event>
 7    1  0.6105960E-006  0.2778440E+02  0.7818608E-02  0.1638922E+00
          2   -1    0    0  502    0  0.00000000000E+00  0.00000000000E+00  0.25292636517E+03  0.25292636517E+03  0.00000000000E+00 0. -1.
          1   -1    0    0  501    0 -0.00000000000E+00 -0.00000000000E+00 -0.35101363213E+03  0.35101363213E+03  0.00000000000E+00 0. -1.
         25    2    1    2    0    0 -0.39875451565E+02  0.18105181699E+02 -0.26726138842E+03  0.29828005691E+03  0.12499797346E+03 0.  0.
          2    1    1    2  501    0  0.25829891353E+02  0.31561539375E+01 -0.65045862691E+02  0.70057896402E+02  0.00000000000E+00 0. -1.
          1    1    1    2  502    0  0.14045560212E+02 -0.21261335637E+02  0.23421998415E+03  0.23560204399E+03  0.00000000000E+00 0. -1.
         22    1    3    3    0    0 -0.28721969391E+02 -0.52987721456E+02 -0.11342178612E+03  0.12844123839E+03  0.00000000000E+00 0.  1.
         22    1    3    3    0    0 -0.11153482174E+02  0.71092903156E+02 -0.15383960229E+03  0.16983881852E+03  0.00000000000E+00 0.  1.
</event>
<event>
 7    1  0.6105960E-006  0.6151511E+02  0.7818608E-02  0.1504469E+00
          2   -1    0    0  502    0  0.00000000000E+00  0.00000000000E+00  0.35432486415E+04  0.35432486415E+04  0.00000000000E+00 0. -1.
          1   -1    0    0  501    0 -0.00000000000E+00 -0.00000000000E+00 -0.14274454530E+03  0.14274454530E+03  0.00000000000E+00 0. -1.
         25    2    1    2    0    0  0.25229487177E+02 -0.73349796887E+02  0.21418331215E+04  0.21468799631E+04  0.12501094348E+03 0.  0.
          2    1    1    2  501    0 -0.36748959941E+02  0.49283185520E+02 -0.13334899328E+03  0.14683757163E+03  0.00000000000E+00 0. -1.
          1    1    1    2  502    0  0.11519472764E+02  0.24066611367E+02  0.13920199680E+04  0.13922756521E+04  0.00000000000E+00 0. -1.
         22    1    3    3    0    0  0.59325663482E+02  0.63486098126E+01  0.98311271477E+03  0.98492154466E+03  0.00000000000E+00 0. -1.
         22    1    3    3    0    0 -0.34096176305E+02 -0.79698406700E+02  0.11587204067E+04  0.11619584185E+04  0.00000000000E+00 0. -1.
</event>
<event>
 7    1  0.6105960E-006  0.6648631E+02  0.7818608E-02  0.1401017E+00
          2   -1    0    0  502    0  0.00000000000E+00  0.00000000000E+00  0.99232368263E+02  0.99232368263E+02  0.00000000000E+00 0. -1.
          1   -1    0    0  501    0 -0.00000000000E+00 -0.00000000000E+00 -0.45466181034E+03  0.45466181034E+03  0.00000000000E+00 0. -1.
         25    2    1    2    0    0 -0.90293766215E+02 -0.14048612832E+02 -0.20625672031E+03  0.25790074260E+03  0.12498252126E+03 0.  0.
          2    1    1    2  501    0  0.46793402036E+02  0.43969020311E+02 -0.20756595273E+03  0.21727061917E+03  0.00000000000E+00 0. -1.
          1    1    1    2  502    0  0.43500364179E+02 -0.29920407479E+02  0.58393230965E+02  0.78722816832E+02  0.00000000000E+00 0. -1.
         22    1    3    3    0    0 -0.41883883007E+02  0.19472734071E+02 -0.29998309718E+01  0.46286564074E+02  0.00000000000E+00 0. -1.
         22    1    3    3    0    0 -0.48409883207E+02 -0.33521346903E+02 -0.20325688934E+03  0.21161417853E+03  0.00000000000E+00 0. -1.
</event>
<event>
 7    1  0.6105960E-006  0.1176691E+03  0.7818608E-02  0.1298365E+00
          2   -1    0    0  502    0  0.00000000000E+00  0.00000000000E+00  0.47567623915E+03  0.47567623915E+03  0.00000000000E+00 0. -1.
          1   -1    0    0  501    0 -0.00000000000E+00 -0.00000000000E+00 -0.10666785276E+04  0.10666785276E+04  0.00000000000E+00 0. -1.
         25    2    1    2    0    0 -0.67731334050E+02  0.19062837317E+02  0.73143335459E+02  0.16103040604E+03  0.12501967353E+03 0.  0.
          2    1    1    2  501    0 -0.63530946893E+02 -0.33325364936E+02 -0.10092643916E+04  0.10118109375E+04  0.00000000000E+00 0. -1.
          1    1    1    2  502    0  0.13126228094E+03  0.14262527620E+02  0.34511876769E+03  0.36951342317E+03  0.00000000000E+00 0. -1.
         22    1    3    3    0    0  0.18006845042E+02  0.35610946180E+02  0.60966484555E+02  0.72864931175E+02  0.00000000000E+00 0.  1.
         22    1    3    3    0    0 -0.85738179091E+02 -0.16548108863E+02  0.12176850905E+02  0.88165474869E+02  0.00000000000E+00 0.  1.
</event>
<event>
 7    1  0.6254331E-006  0.6306088E+02  0.7818608E-02  0.1462929E+00
          2   -1    0    0  502    0  0.00000000000E+00  0.00000000000E+00  0.16780468479E+04  0.16780468479E+04  0.00000000000E+00 0. -1.
          1   -1    0    0  501    0 -0.00000000000E+00 -0.00000000000E+00 -0.78518178389E+03  0.78518178389E+03  0.00000000000E+00 0. -1.
         25    2    1    2    0    0  0.13332449134E+02 -0.27004033764E+02 -0.80720192915E+02  0.15181187964E+03  0.12499650082E+03 0.  0.
          2    1    1    2  501    0 -0.35681787128E+02  0.53747495152E+02 -0.66717475922E+03  0.67028661221E+03  0.00000000000E+00 0. -1.
          1    1    1    2  502    0  0.22349337994E+02 -0.26743461387E+02  0.16407600161E+04  0.16411301399E+04  0.00000000000E+00 0. -1.
         22    1    3    3    0    0  0.18189680973E+02  0.14578864627E+02 -0.10215295878E+03  0.10477898060E+03  0.00000000000E+00 0. -1.
         22    1    3    3    0    0 -0.48572318392E+01 -0.41582898391E+02  0.21432765864E+02  0.47032899042E+02  0.00000000000E+00 0. -1.
</event>
<event>
 7    1  0.6105960E-006  0.5328304E+02  0.7818608E-02  0.1513580E+00
          2   -1    0    0  502    0  0.00000000000E+00  0.00000000000E+00  0.15809220682E+03  0.15809220682E+03  0.00000000000E+00 0. -1.
          1   -1    0    0  501    0 -0.00000000000E+00 -0.00000000000E+00 -0.94264085828E+03  0.94264085828E+03  0.00000000000E+00 0. -1.
         25    2    1    2    0    0 -0.60788554021E+02 -0.27633324961E+02 -0.52898266446E+02  0.15127074566E+03  0.12500305177E+03 0.  0.
          2    1    1    2  501    0  0.26227479707E+02 -0.12271889834E+02 -0.83389277867E+03  0.83439537768E+03  0.00000000000E+00 0. -1.
          1    1    1    2  502    0  0.34561074314E+02  0.39905214795E+02  0.10224239365E+03  0.11506694176E+03  0.00000000000E+00 0. -1.
         22    1    3    3    0    0 -0.68245248222E+02  0.18537676190E+02  0.11535109381E+02  0.71652760532E+02  0.00000000000E+00 0.  1.
         22    1    3    3    0    0  0.74566942015E+01 -0.46171001150E+02 -0.64433375827E+02  0.79617985130E+02  0.00000000000E+00 0.  1.
</event>
<event>
 7    1  0.9364135E-006  0.5160254E+02  0.7818608E-02  0.1462867E+00
          2   -1    0    0  502    0  0.00000000000E+00  0.00000000000E+00  0.18460526826E+04  0.18460526826E+04  0.00000000000E+00 0. -1.
          1   -1    0    0  501    0 -0.00000000000E+00 -0.00000000000E+00 -0.22202868472E+04  0.22202868472E+04  0.00000000000E+00 0. -1.
         25    2    1    2    0    0 -0.90222188452E+02  0.21031513864E+02 -0.46005068930E+03  0.48564716446E+03  0.12499665498E+03 0.  0.
          2    1    1    2  501    0  0.42592245440E+02 -0.12562569592E+01 -0.17468153540E+04  0.17473349875E+04  0.00000000000E+00 0. -1.
          1    1    1    2  502    0  0.47629943012E+02 -0.19775256905E+02  0.18326318787E+04  0.18333573779E+04  0.00000000000E+00 0. -1.
         22    1    3    3    0    0 -0.65379759214E+02  0.23257799847E+02 -0.45492096047E+03  0.46018313576E+03  0.00000000000E+00 0. -1.
         22    1    3    3    0    0 -0.24842429238E+02 -0.22262859831E+01 -0.51297288376E+01  0.25464028701E+02  0.00000000000E+00 0. -1.
</event>
<event>
 7    1  0.6105960E-006  0.2409064E+03  0.7818608E-02  0.1273811E+00
          2   -1    0    0  502    0  0.00000000000E+00  0.00000000000E+00  0.22974076786E+04  0.22974076786E+04  0.00000000000E+00 0. -1.
          1   -1    0    0  501    0 -0.00000000000E+00 -0.00000000000E+00 -0.82592649956E+03  0.82592649956E+03  0.00000000000E+00 0. -1.
         25    2    1    2    0    0 -0.26632547601E+03 -0.90856609443E+02  0.14458105051E+04  0.14782343376E+04  0.12499823019E+03 0.  0.
          2    1    1    2  501    0  0.22217216860E+03  0.91872950979E+02 -0.79125881080E+03  0.82697739829E+03  0.00000000000E+00 0. -1.
          1    1    1    2  502    0  0.44153307411E+02 -0.10163415362E+01  0.81692948475E+03  0.81812244228E+03  0.00000000000E+00 0. -1.
         22    1    3    3    0    0 -0.28378892994E+02  0.29771587360E+02  0.19080840240E+03  0.19519107409E+03  0.00000000000E+00 0.  1.
         22    1    3    3    0    0 -0.23794658301E+03 -0.12062819680E+03  0.12550021027E+04  0.12830432635E+04  0.00000000000E+00 0.  1.
</event>
<event>
 7    1  0.6105960E-006  0.6131625E+02  0.7818608E-02  0.1503399E+00
          2   -1    0    0  502    0  0.00000000000E+00  0.00000000000E+00  0.12279543677E+04  0.12279543677E+04  0.00000000000E+00 0. -1.
          1   -1    0    0  501    0 -0.00000000000E+00 -0.00000000000E+00 -0.14496126856E+03  0.14496126856E+03  0.00000000000E+00 0. -1.
         25    2    1    2    0    0 -0.45756391717E+02  0.40530402108E+02 -0.10625892645E+02  0.13955059182E+03  0.12500038882E+03 0.  0.
          2    1    1    2  501    0  0.24660255158E+02 -0.57324259518E+02 -0.55750170773E+02  0.83679629869E+02  0.00000000000E+00 0. -1.
          1    1    1    2  502    0  0.21096136559E+02  0.16793857410E+02  0.11493691625E+04  0.11496854145E+04  0.00000000000E+00 0. -1.
         22    1    3    3    0    0 -0.61291948354E+02 -0.28176353850E+02 -0.14514661481E+02  0.69002066978E+02  0.00000000000E+00 0.  1.
         22    1    3    3    0    0  0.15535556637E+02  0.68706755958E+02  0.38887688361E+01  0.70548524842E+02  0.00000000000E+00 0.  1.
</event>
<event>
 7    1  0.6105960E-006  0.1171005E+03  0.7818608E-02  0.1394935E+00
          2   -1    0    0  502    0  0.00000000000E+00  0.00000000000E+00  0.24247708874E+04  0.24247708874E+04  0.00000000000E+00 0. -1.
          1   -1    0    0  501    0 -0.00000000000E+00 -0.00000000000E+00 -0.18020132301E+03  0.18020132301E+03  0.00000000000E+00 0. -1.
         25    2    1    2    0    0  0.14265666352E+03 -0.89514995298E+01  0.18484101034E+03  0.26499836442E+03  0.12500752399E+03 0.  0.
          2    1    1    2  501    0 -0.28611331304E+02 -0.13081487128E+02 -0.13680275235E+03  0.14037352541E+03  0.00000000000E+00 0. -1.
          1    1    1    2  502    0 -0.11404533221E+03  0.22032986657E+02  0.21965313064E+04  0.21996003206E+04  0.00000000000E+00 0. -1.
         22    1    3    3    0    0  0.18226902341E+02  0.71849214319E+01 -0.17922535368E+02  0.26552972319E+02  0.00000000000E+00 0. -1.
         22    1    3    3    0    0  0.12442976117E+03 -0.16136420962E+02  0.20276354571E+03  0.23844539210E+03  0.00000000000E+00 0. -1.
</event>
<event>
 7    1  0.6105960E-006  0.7576225E+02  0.7818608E-02  0.1385806E+00
          2   -1    0    0  502    0  0.00000000000E+00  0.00000000000E+00  0.33463408910E+04  0.33463408910E+04  0.00000000000E+00 0. -1.
          1   -1    0    0  501    0 -0.00000000000E+00 -0.00000000000E+00 -0.73041422956E+02  0.73041422956E+02  0.00000000000E+00 0. -1.
         25    2    1    2    0    0  0.32339138133E+02 -0.11348712967E+03  0.16564366076E+04  0.16653324671E+04  0.12499937078E+03 0.  0.
          2    1    1    2  501    0 -0.27771002669E+02  0.44346472048E+02 -0.57793225522E+02  0.77960856130E+02  0.00000000000E+00 0. -1.
          1    1    1    2  502    0 -0.45681354645E+01  0.69140657622E+02  0.16746560860E+04  0.16760889907E+04  0.00000000000E+00 0. -1.
         22    1    3    3    0    0 -0.49117900810E+01  0.25647857581E+02  0.35213906522E+03  0.35310601741E+03  0.00000000000E+00 0. -1.
         22    1    3    3    0    0  0.37250928214E+02 -0.13913498725E+03  0.13042975423E+04  0.13122264497E+04  0.00000000000E+00 0. -1.
</event>
<event>
 7    1  0.6105960E-006  0.9399176E+02  0.7818608E-02  0.1421014E+00
          2   -1    0    0  502    0  0.00000000000E+00  0.00000000000E+00  0.29594966188E+02  0.29594966188E+02  0.00000000000E+00 0. -1.
          1   -1    0    0  501    0 -0.00000000000E+00 -0.00000000000E+00 -0.17663147251E+04  0.17663147251E+04  0.00000000000E+00 0. -1.
         25    2    1    2    0    0  0.11805591714E+03 -0.19884644778E+02 -0.62646051036E+03  0.64993131255E+03  0.12500136526E+03 0.  0.
          2    1    1    2  501    0 -0.86526801451E+02  0.25103101737E+02 -0.11103710136E+04  0.11140201260E+04  0.00000000000E+00 0. -1.
          1    1    1    2  502    0 -0.31529115690E+02 -0.52184569592E+01  0.11176510361E+00  0.31958252778E+02  0.00000000000E+00 0. -1.
         22    1    3    3    0    0  0.97218300967E+02 -0.23365578495E+02 -0.20643375320E+03  0.22937358776E+03  0.00000000000E+00 0.  1.
         22    1    3    3    0    0  0.20837616174E+02  0.34809337165E+01 -0.42002675716E+03  0.42055772478E+03  0.00000000000E+00 0.  1.
</event>
<event>
 7    1  0.6105960E-006  0.2897029E+03  0.7818608E-02  0.1228153E+00
          2   -1    0    0  502    0  0.00000000000E+00  0.00000000000E+00  0.14276118854E+04  0.14276118854E+04  0.00000000000E+00 0. -1.
          1   -1    0    0  501    0 -0.00000000000E+00 -0.00000000000E+00 -0.62974831399E+03  0.62974831399E+03  0.00000000000E+00 0. -1.
         25    2    1    2    0    0  0.12037440828E+03 -0.24011383078E+03 -0.13113706051E+03  0.32398598151E+03  0.12500135069E+03 0.  0.
          2    1    1    2  501    0 -0.17799056521E+03  0.24599455802E+03 -0.34412659524E+03  0.45893036229E+03  0.00000000000E+00 0. -1.
          1    1    1    2  502    0  0.57616156923E+02 -0.58807272412E+01  0.12731272272E+04  0.12744438556E+04  0.00000000000E+00 0. -1.
         22    1    3    3    0    0  0.10946605465E+03 -0.14478561637E+03 -0.13767093009E+03  0.22781346936E+03  0.00000000000E+00 0.  1.
         22    1    3    3    0    0  0.10908353631E+02 -0.95328214414E+02  0.65338695825E+01  0.96172512154E+02  0.00000000000E+00 0.  1.
</event>
<event>
 7    1  0.6105960E-006  0.7640873E+02  0.7818608E-02  0.1347612E+00
          2   -1    0    0  502    0  0.00000000000E+00  0.00000000000E+00  0.16418150766E+04  0.16418150766E+04  0.00000000000E+00 0. -1.
          1   -1    0    0  501    0 -0.00000000000E+00 -0.00000000000E+00 -0.59104857881E+02  0.59104857881E+02  0.00000000000E+00 0. -1.
         25    2    1    2    0    0  0.43094026378E+02 -0.23531177780E+02  0.39348985944E+03  0.41577612135E+03  0.12499880863E+03 0.  0.
          2    1    1    2  501    0 -0.68387697671E+02 -0.43120689140E+02 -0.12067168518E+02  0.81742813633E+02  0.00000000000E+00 0. -1.
          1    1    1    2  502    0  0.25293671293E+02  0.66651866920E+02  0.12012875278E+04  0.12034009995E+04  0.00000000000E+00 0. -1.
         22    1    3    3    0    0 -0.16226027422E+02  0.11033832480E+02  0.29537373965E+03  0.29602478866E+03  0.00000000000E+00 0. -1.
         22    1    3    3    0    0  0.59320053800E+02 -0.34565010260E+02  0.98116119790E+02  0.11975133268E+03  0.00000000000E+00 0. -1.
</event>
<event>
 7    1  0.6105960E-006  0.7360982E+02  0.7818608E-02  0.1443540E+00
          2   -1    0    0  502    0  0.00000000000E+00  0.00000000000E+00  0.86334985314E+03  0.86334985314E+03  0.00000000000E+00 0. -1.
          1   -1    0    0  501    0 -0.00000000000E+00 -0.00000000000E+00 -0.21488678913E+03  0.21488678913E+03  0.00000000000E+00 0. -1.
         25    2    1    2    0    0 -0.68710829644E+01  0.63831043473E+02  0.22435141065E+03  0.26472150359E+03  0.12498921997E+03 0.  0.
          2    1    1    2  501    0  0.41216800915E+02 -0.61565594997E+02 -0.18715185320E+03  0.20128329121E+03  0.00000000000E+00 0. -1.
          1    1    1    2  502    0 -0.34345717950E+02 -0.22654484754E+01  0.61126350656E+03  0.61223184747E+03  0.00000000000E+00 0. -1.
         22    1    3    3    0    0  0.18172043079E+02  0.80290863590E+02  0.21941486492E+03  0.23434958689E+03  0.00000000000E+00 0.  1.
         22    1    3    3    0    0 -0.25043126043E+02 -0.16459820117E+02  0.49365457289E+01  0.30371916700E+02  0.00000000000E+00 0.  1.
</event>
<event>
 7    1  0.6105960E-006  0.1230298E+03  0.7818608E-02  0.1302816E+00
          2   -1    0    0  502    0  0.00000000000E+00  0.00000000000E+00  0.15299330003E+04  0.15299330003E+04  0.00000000000E+00 0. -1.
          1   -1    0    0  501    0 -0.00000000000E+00 -0.00000000000E+00 -0.13394256917E+04  0.13394256917E+04  0.00000000000E+00 0. -1.
         25    2    1    2    0    0 -0.16717698898E+03  0.83414674339E+01 -0.78361485836E+03  0.81098448128E+03  0.12500342761E+03 0.  0.
          2    1    1    2  501    0  0.10361325418E+03 -0.25577339163E+02 -0.53614898733E+03  0.54666776321E+03  0.00000000000E+00 0. -1.
          1    1    1    2  502    0  0.63563734799E+02  0.17235871730E+02  0.15102711543E+04  0.15117064474E+04  0.00000000000E+00 0. -1.
         22    1    3    3    0    0 -0.13162199317E+03  0.10860226011E+02 -0.32250906238E+03  0.34850306873E+03  0.00000000000E+00 0. -1.
         22    1    3    3    0    0 -0.35554995807E+02 -0.25187585768E+01 -0.46110579598E+03  0.46248141255E+03  0.00000000000E+00 0. -1.
</event>
<event>
 7    1  0.6105960E-006  0.1765636E+03  0.7818608E-02  0.1256269E+00
          2   -1    0    0  502    0  0.00000000000E+00  0.00000000000E+00  0.41667747991E+03  0.41667747991E+03  0.00000000000E+00 0. -1.
          1   -1    0    0  501    0 -0.00000000000E+00 -0.00000000000E+00 -0.29791097299E+03  0.29791097299E+03  0.00000000000E+00 0. -1.
         25    2    1    2    0    0  0.13169750875E+03  0.17166625556E+03  0.17728080102E+03  0.30637799850E+03  0.12500183378E+03 0.  0.
          2    1    1    2  501    0 -0.64341387290E+02 -0.31177349331E+02 -0.19084349479E+03  0.20379666517E+03  0.00000000000E+00 0. -1.
          1    1    1    2  502    0 -0.67356121464E+02 -0.14048890623E+03  0.13232920069E+03  0.20441378923E+03  0.00000000000E+00 0. -1.
         22    1    3    3    0    0  0.10237274542E+02 -0.19630585191E+02  0.80417378450E+01  0.23554855392E+02  0.00000000000E+00 0. -1.
         22    1    3    3    0    0  0.12146023421E+03  0.19129684075E+03  0.16923906317E+03  0.28282314311E+03  0.00000000000E+00 0. -1.
</event>
<event>
 7    1  0.6105960E-006  0.3251223E+02  0.7818608E-02  0.1583789E+00
          2   -1    0    0  502    0  0.00000000000E+00  0.00000000000E+00  0.89419802405E+03  0.89419802405E+03  0.00000000000E+00 0. -1.
          1   -1    0    0  501    0 -0.00000000000E+00 -0.00000000000E+00 -0.19229165272E+04  0.19229165272E+04  0.00000000000E+00 0. -1.
         25    2    1    2    0    0  0.15283520552E+02 -0.15169372249E+02  0.61607575181E+03  0.62899665475E+03  0.12499505538E+03 0.  0.
          2    1    1    2  501    0 -0.22305057106E+02 -0.20358967452E+02 -0.19151295185E+04  0.19153676085E+04  0.00000000000E+00 0. -1.
          1    1    1    2  502    0  0.70215365540E+01  0.35528339702E+02  0.27033526353E+03  0.27275028800E+03  0.00000000000E+00 0. -1.
         22    1    3    3    0    0 -0.40434849970E+01 -0.51181665553E+02  0.54172927385E+03  0.54415670428E+03  0.00000000000E+00 0. -1.
         22    1    3    3    0    0  0.19327005549E+02  0.36012293303E+02  0.74346477951E+02  0.84839950473E+02  0.00000000000E+00 0. -1.
</event>
<event>
 7    1  0.6105960E-006  0.5342894E+02  0.7818608E-02  0.1507710E+00
          2   -1    0    0  502    0  0.00000000000E+00  0.00000000000E+00  0.13160742439E+03  0.13160742439E+03  0.00000000000E+00 0. -1.
          1   -1    0    0  501    0 -0.00000000000E+00 -0.00000000000E+00 -0.60605907795E+03  0.60605907795E+03  0.00000000000E+00 0. -1.
         25    2    1    2    0    0  0.41013465855E+02  0.71132753584E+02 -0.77668362908E+02  0.16852239764E+03  0.12500180357E+03 0.  0.
          2    1    1    2  501    0 -0.22491218939E+02 -0.47471690403E+02 -0.47886373483E+03  0.48173633125E+03  0.00000000000E+00 0. -1.
          1    1    1    2  502    0 -0.18522246916E+02 -0.23661063180E+02  0.82080444181E+02  0.87407773445E+02  0.00000000000E+00 0. -1.
         22    1    3    3    0    0  0.80120762370E+02  0.19130724882E+02 -0.29227859141E+02  0.87404742133E+02  0.00000000000E+00 0.  1.
         22    1    3    3    0    0 -0.39107296515E+02  0.52002028702E+02 -0.48440503767E+02  0.81117655507E+02  0.00000000000E+00 0.  1.
</event>
<event>
 7    1  0.6105960E-006  0.9803195E+02  0.7818608E-02  0.1420097E+00
          2   -1    0    0  502    0  0.00000000000E+00  0.00000000000E+00  0.16997552457E+04  0.16997552457E+04  0.00000000000E+00 0. -1.
          1   -1    0    0  501    0 -0.00000000000E+00 -0.00000000000E+00 -0.42995827705E+03  0.42995827705E+03  0.00000000000E+00 0. -1.
         25    2    1    2    0    0 -0.46420292465E+02 -0.66408504457E+02 -0.21736773819E+02  0.15053843953E+03  0.12499760567E+03 0.  0.
          2    1    1    2  501    0 -0.30448406084E+02  0.50091118009E+01 -0.34164508289E+03  0.34303579885E+03  0.00000000000E+00 0. -1.
          1    1    1    2  502    0  0.76868698549E+02  0.61399392656E+02  0.16331788254E+04  0.16361392844E+04  0.00000000000E+00 0. -1.
         22    1    3    3    0    0  0.35640831768E+02 -0.22614862398E+02  0.22172806726E+02  0.47679495053E+02  0.00000000000E+00 0.  1.
         22    1    3    3    0    0 -0.82061124232E+02 -0.43793642059E+02 -0.43909580545E+02  0.10285894448E+03  0.00000000000E+00 0.  1.
</event>
<event>
 7    1  0.6105960E-006  0.7619110E+02  0.7818608E-02  0.1456293E+00
          2   -1    0    0  502    0  0.00000000000E+00  0.00000000000E+00  0.36709853879E+03  0.36709853879E+03  0.00000000000E+00 0. -1.
          1   -1    0    0  501    0 -0.00000000000E+00 -0.00000000000E+00 -0.10064663362E+03  0.10064663362E+03  0.00000000000E+00 0. -1.
         25    2    1    2    0    0 -0.71746813080E+02  0.74441873193E+01  0.18796953312E+03  0.23698298511E+03  0.12500147494E+03 0.  0.
          2    1    1    2  501    0 -0.46216574715E+01 -0.29916708085E+02 -0.62167942303E+02  0.69146382339E+02  0.00000000000E+00 0. -1.
          1    1    1    2  502    0  0.76368470552E+02  0.22472520766E+02  0.14065031435E+03  0.16161580496E+03  0.00000000000E+00 0. -1.
         22    1    3    3    0    0 -0.76509325196E+00 -0.33131515209E+02  0.12688923984E+01  0.33164631095E+02  0.00000000000E+00 0.  1.
         22    1    3    3    0    0 -0.70981719828E+02  0.40575702529E+02  0.18670064072E+03  0.20381835401E+03  0.00000000000E+00 0.  1.
</event>
<event>
 7    1  0.6105960E-006  0.3466580E+02  0.7818608E-02  0.1642537E+00
          2   -1    0    0  502    0  0.00000000000E+00  0.00000000000E+00  0.42208923753E+03  0.42208923753E+03  0.00000000000E+00 0. -1.
          1   -1    0    0  501    0 -0.00000000000E+00 -0.00000000000E+00 -0.34367458959E+03  0.34367458959E+03  0.00000000000E+00 0. -1.
         25    2    1    2    0    0  0.40675402948E+01  0.14278841902E+02  0.10842026889E+03  0.16612693555E+03  0.12499109487E+03 0.  0.
          2    1    1    2  501    0 -0.74813314646E+01 -0.33991472144E+02 -0.31350570258E+03  0.31543179302E+03  0.00000000000E+00 0. -1.
          1    1    1    2  502    0  0.34137911698E+01  0.19712630242E+02  0.28350008163E+03  0.28420509856E+03  0.00000000000E+00 0. -1.
         22    1    3    3    0    0 -0.20596553770E+02 -0.10663293104E+02  0.12513814011E+03  0.12726931271E+03  0.00000000000E+00 0.  1.
         22    1    3    3    0    0  0.24664094065E+02  0.24942135007E+02 -0.16717871218E+02  0.38857622840E+02  0.00000000000E+00 0.  1.
</event>
<event>
 7    1  0.6105960E-006  0.1935223E+03  0.7818608E-02  0.1176616E+00
          2   -1    0    0  502    0  0.00000000000E+00  0.00000000000E+00  0.21083567863E+04  0.21083567863E+04  0.00000000000E+00 0. -1.
          1   -1    0    0  501    0 -0.00000000000E+00 -0.00000000000E+00 -0.14575143359E+04  0.14575143359E+04  0.00000000000E+00 0. -1.
         25    2    1    2    0    0 -0.19625585832E+03 -0.26132537546E+03  0.29915611334E+03  0.46036056249E+03  0.12502061257E+03 0.  0.
          2    1    1    2  501    0  0.69638828211E+02  0.17826771038E+03 -0.13669162580E+04  0.13802496148E+04  0.00000000000E+00 0. -1.
          1    1    1    2  502    0  0.12661703011E+03  0.83057665078E+02  0.17186025951E+04  0.17252609449E+04  0.00000000000E+00 0. -1.
         22    1    3    3    0    0 -0.11022917488E+03 -0.19819192432E+03  0.13304477342E+03  0.26292854846E+03  0.00000000000E+00 0. -1.
         22    1    3    3    0    0 -0.86026683434E+02 -0.63133451140E+02  0.16611133992E+03  0.19743201403E+03  0.00000000000E+00 0. -1.
</event>
<event>
 7    1  0.6105960E-006  0.2042646E+03  0.7818608E-02  0.1264865E+00
          2   -1    0    0  502    0  0.00000000000E+00  0.00000000000E+00  0.26620193656E+03  0.26620193656E+03  0.00000000000E+00 0. -1.
          1   -1    0    0  501    0 -0.00000000000E+00 -0.00000000000E+00 -0.23385756476E+04  0.23385756476E+04  0.00000000000E+00 0. -1.
         25    2    1    2    0    0  0.83866483536E+02  0.20213586992E+03 -0.27185415950E+03  0.37070556325E+03  0.12500173447E+03 0.  0.
          2    1    1    2  501    0 -0.12362111974E+03 -0.16156835285E+03 -0.20083461764E+04  0.20186235107E+04  0.00000000000E+00 0. -1.
          1    1    1    2  502    0  0.39754636204E+02 -0.40567517075E+02  0.20782662484E+03  0.21544851017E+03  0.00000000000E+00 0. -1.
         22    1    3    3    0    0  0.38882113742E+02  0.56914229992E+02 -0.12463557487E+02  0.70045618064E+02  0.00000000000E+00 0.  1.
         22    1    3    3    0    0  0.44984369793E+02  0.14522163993E+03 -0.25939060201E+03  0.30065994519E+03  0.00000000000E+00 0.  1.
</event>
<event>
 7    1  0.6105960E-006  0.8857550E+02  0.7818608E-02  0.1395324E+00
          2   -1    0    0  502    0  0.00000000000E+00  0.00000000000E+00  0.59478478458E+03  0.59478478458E+03  0.00000000000E+00 0. -1.
          1   -1    0    0  501    0 -0.00000000000E+00 -0.00000000000E+00 -0.59498630603E+03  0.59498630603E+03  0.00000000000E+00 0. -1.
         25    2    1    2    0    0 -0.26996493048E+02  0.50564452212E+02 -0.14118050889E+02  0.13823918980E+03  0.12500071909E+03 0.  0.
          2    1    1    2  501    0  0.14419489867E+02  0.38874552209E+02 -0.51413888778E+03  0.51580805386E+03  0.00000000000E+00 0. -1.
          1    1    1    2  502    0  0.12577003181E+02 -0.89439004421E+02  0.52805541723E+03  0.53572384694E+03  0.00000000000E+00 0. -1.
         22    1    3    3    0    0  0.11061397384E+02  0.73991065074E+02  0.24966315200E+02  0.78869189914E+02  0.00000000000E+00 0. -1.
         22    1    3    3    0    0 -0.38057890432E+02 -0.23426612862E+02 -0.39084366090E+02  0.59369999890E+02  0.00000000000E+00 0. -1.
</event>
<event>
 7    1  0.6105960E-006  0.1668088E+03  0.7818608E-02  0.1297471E+00
          2   -1    0    0  502    0  0.00000000000E+00  0.00000000000E+00  0.12679221407E+03  0.12679221407E+03  0.00000000000E+00 0. -1.
          1   -1    0    0  501    0 -0.00000000000E+00 -0.00000000000E+00 -0.24820465362E+04  0.24820465362E+04  0.00000000000E+00 0. -1.
         25    2    1    2    0    0 -0.33377429569E+01  0.12061275024E+03 -0.87804538402E+03  0.89506634108E+03  0.12498592912E+03 0.  0.
          2    1    1    2  501    0  0.13922984677E+02  0.49090809392E+02 -0.15337394358E+04  0.15345880274E+04  0.00000000000E+00 0. -1.
          1    1    1    2  502    0 -0.10585241720E+02 -0.16970355963E+03  0.56530497690E+02  0.17918438175E+03  0.00000000000E+00 0. -1.
         22    1    3    3    0    0 -0.22756958585E+02  0.35074335625E+02 -0.64886965983E+02  0.77190715361E+02  0.00000000000E+00 0.  1.
         22    1    3    3    0    0  0.19419215628E+02  0.85538414612E+02 -0.81315841804E+03  0.81787562572E+03  0.00000000000E+00 0.  1.
</event>
<event>
 7    1  0.6105960E-006  0.9019228E+02  0.7818608E-02  0.1371100E+00
          2   -1    0    0  502    0  0.00000000000E+00  0.00000000000E+00  0.11294870699E+04  0.11294870699E+04  0.00000000000E+00 0. -1.
          1   -1    0    0  501    0 -0.00000000000E+00 -0.00000000000E+00 -0.90739531303E+02  0.90739531303E+02  0.00000000000E+00 0. -1.
         25    2    1    2    0    0 -0.94839256212E+02  0.42533050933E+02  0.66929627611E+03  0.68875663615E+03  0.12499861474E+03 0.  0.
          2    1    1    2  501    0  0.89873803995E+02  0.67845877970E+01 -0.54039358624E+02  0.10508845587E+03  0.00000000000E+00 0. -1.
          1    1    1    2  502    0  0.49654522166E+01 -0.49317638730E+02  0.42349062107E+03  0.42638150914E+03  0.00000000000E+00 0. -1.
         22    1    3    3    0    0 -0.19256506217E+02  0.19914312578E+02  0.51233214556E+03  0.51308052024E+03  0.00000000000E+00 0.  1.
         22    1    3    3    0    0 -0.75582749995E+02  0.22618738355E+02  0.15696413055E+03  0.17567611591E+03  0.00000000000E+00 0.  1.
</event>
<event>
 7    1  0.6105960E-006  0.8071278E+02  0.7818608E-02  0.1498151E+00
          2   -1    0    0  502    0  0.00000000000E+00  0.00000000000E+00  0.39718042703E+03  0.39718042703E+03  0.00000000000E+00 0. -1.
          1   -1    0    0  501    0 -0.00000000000E+00 -0.00000000000E+00 -0.65287378260E+03  0.65287378260E+03  0.00000000000E+00 0. -1.
         25    2    1    2    0    0  0.43720259004E+02  0.86539554986E+02 -0.90184608821E+02  0.18209584081E+03  0.12500030379E+03 0.  0.
          2    1    1    2  501    0  0.26100110077E+01 -0.21074879111E+02 -0.51193220732E+03  0.51237246958E+03  0.00000000000E+00 0. -1.
          1    1    1    2  502    0 -0.46330270012E+02 -0.65464675875E+02  0.34642346057E+03  0.35558589924E+03  0.00000000000E+00 0. -1.
         22    1    3    3    0    0  0.99080357414E+01  0.11218456419E+03 -0.80868330106E+02  0.13864787207E+03  0.00000000000E+00 0.  1.
         22    1    3    3    0    0  0.33812223262E+02 -0.25645009202E+02 -0.93162787152E+01  0.43447968744E+02  0.00000000000E+00 0.  1.
</event>
<event>
 7    1  0.6105960E-006  0.2556899E+03  0.7818608E-02  0.1310603E+00
          2   -1    0    0  502    0  0.00000000000E+00  0.00000000000E+00  0.57312204191E+03  0.57312204191E+03  0.00000000000E+00 0. -1.
          1   -1    0    0  501    0 -0.00000000000E+00 -0.00000000000E+00 -0.19092624160E+04  0.19092624160E+04  0.00000000000E+00 0. -1.
         25    2    1    2    0    0 -0.42472046899E+02  0.28020479332E+03 -0.89233810073E+03  0.94456887813E+03  0.12499791416E+03 0.  0.
          2    1    1    2  501    0 -0.25115451439E+01 -0.29409699909E+02 -0.96089866009E+03  0.96135189877E+03  0.00000000000E+00 0. -1.
          1    1    1    2  502    0  0.44983592042E+02 -0.25079509341E+03  0.51709638670E+03  0.57646368105E+03  0.00000000000E+00 0. -1.
         22    1    3    3    0    0  0.36798981174E+02  0.61154416059E+02 -0.29255630757E+03  0.30113654829E+03  0.00000000000E+00 0. -1.
         22    1    3    3    0    0 -0.79271028073E+02  0.21905037726E+03 -0.59978179316E+03  0.64343232984E+03  0.00000000000E+00 0. -1.
</event>
<event>
 7    1  0.6105960E-006  0.8578246E+02  0.7818608E-02  0.1316577E+00
          2   -1    0    0  502    0  0.00000000000E+00  0.00000000000E+00  0.36115216106E+04  0.36115216106E+04  0.00000000000E+00 0. -1.
          1   -1    0    0  501    0 -0.00000000000E+00 -0.00000000000E+00 -0.14258997894E+03  0.14258997894E+03  0.00000000000E+00 0. -1.
         25    2    1    2    0    0  0.98113302749E+02 -0.11951156573E+03  0.24164526958E+03  0.31293021981E+03  0.12499460643E+03 0.  0.
          2    1    1    2  501    0 -0.22862731148E+02  0.80166486788E+02 -0.90076423522E+02  0.12273195246E+03  0.00000000000E+00 0. -1.
          1    1    1    2  502    0 -0.75250571601E+02  0.39345078942E+02  0.33173627856E+04  0.33184494173E+04  0.00000000000E+00 0. -1.
         22    1    3    3    0    0  0.31517996111E+02 -0.12243885928E+03  0.19168934754E+03  0.22962897095E+03  0.00000000000E+00 0. -1.
         22    1    3    3    0    0  0.66595306639E+02  0.29272935469E+01  0.49955922044E+02  0.83301248857E+02  0.00000000000E+00 0. -1.
</event>
<event>
 7    1  0.6105960E-006  0.7581600E+02  0.7818608E-02  0.1371828E+00
          2   -1    0    0  502    0  0.00000000000E+00  0.00000000000E+00  0.57156622739E+03  0.57156622739E+03  0.00000000000E+00 0. -1.
          1   -1    0    0  501    0 -0.00000000000E+00 -0.00000000000E+00 -0.42379852750E+03  0.42379852750E+03  0.00000000000E+00 0. -1.
         25    2    1    2    0    0  0.35074782058E+02  0.12917608167E+03  0.33931024331E+03  0.38558213660E+03  0.12500176974E+03 0.  0.
          2    1    1    2  501    0 -0.20176704033E+02 -0.72488741419E+02 -0.39291432108E+03  0.40005422224E+03  0.00000000000E+00 0. -1.
          1    1    1    2  502    0 -0.14898078026E+02 -0.56687340251E+02  0.20137177766E+03  0.20972839606E+03  0.00000000000E+00 0. -1.
         22    1    3    3    0    0 -0.27611119687E+01  0.10468992493E+03  0.10998112834E+03  0.15186656220E+03  0.00000000000E+00 0. -1.
         22    1    3    3    0    0  0.37835894027E+02  0.24486156740E+02  0.22932911496E+03  0.23371557440E+03  0.00000000000E+00 0. -1.
</event>
<event>
 7    1  0.6105960E-006  0.1522066E+03  0.7818608E-02  0.1264709E+00
          2   -1    0    0  502    0  0.00000000000E+00  0.00000000000E+00  0.75617809567E+03  0.75617809567E+03  0.00000000000E+00 0. -1.
          1   -1    0    0  501    0 -0.00000000000E+00 -0.00000000000E+00 -0.91975248305E+03  0.91975248305E+03  0.00000000000E+00 0. -1.
         25    2    1    2    0    0 -0.22507404063E+03  0.13412799171E+02  0.93504487518E+02  0.27423814824E+03  0.12500098325E+03 0.  0.
          2    1    1    2  501    0  0.14875207216E+03 -0.15133527628E+02 -0.82004960278E+03  0.83356916549E+03  0.00000000000E+00 0. -1.
          1    1    1    2  502    0  0.76321968466E+02  0.17207284573E+01  0.56297072788E+03  0.56812326500E+03  0.00000000000E+00 0. -1.
         22    1    3    3    0    0 -0.34111137074E+02  0.41138532069E+02  0.56475355532E+02  0.77752262191E+02  0.00000000000E+00 0.  1.
         22    1    3    3    0    0 -0.19096290356E+03 -0.27725732898E+02  0.37029131985E+02  0.19648588605E+03  0.00000000000E+00 0.  1.
</event>
<event>
 7    1  0.6105960E-006  0.9686236E+02  0.7818608E-02  0.1314271E+00
          2   -1    0    0  502    0  0.00000000000E+00  0.00000000000E+00  0.26072102708E+04  0.26072102708E+04  0.00000000000E+00 0. -1.
          1   -1    0    0  501    0 -0.00000000000E+00 -0.00000000000E+00 -0.34956170591E+03  0.34956170591E+03  0.00000000000E+00 0. -1.
         25    2    1    2    0    0  0.16975033127E+03  0.77474221840E+01  0.88004451941E+00  0.21095112630E+03  0.12499762274E+03 0.  0.
          2    1    1    2  501    0 -0.74897844994E+02  0.84667915328E+01 -0.23776781820E+03  0.24942916653E+03  0.00000000000E+00 0. -1.
          1    1    1    2  502    0 -0.94852486274E+02 -0.16214213717E+02  0.24945363386E+04  0.24963916839E+04  0.00000000000E+00 0. -1.
         22    1    3    3    0    0  0.15140406366E+03  0.48199639579E+02 -0.22957105377E+02  0.16054103661E+03  0.00000000000E+00 0. -1.
         22    1    3    3    0    0  0.18346267610E+02 -0.40452217395E+02  0.23837149896E+02  0.50410089690E+02  0.00000000000E+00 0. -1.
</event>
<event>
 7    1  0.6105960E-006  0.4549002E+02  0.7818608E-02  0.1488254E+00
          2   -1    0    0  502    0  0.00000000000E+00  0.00000000000E+00  0.24156005491E+04  0.24156005491E+04  0.00000000000E+00 0. -1.
          1   -1    0    0  501    0 -0.00000000000E+00 -0.00000000000E+00 -0.72573425606E+01  0.72573425606E+01  0.00000000000E+00 0. -1.
         25    2    1    2    0    0  0.11685452405E+02  0.28308865713E+02  0.16880887883E+04  0.16929874657E+04  0.12499944128E+03 0.  0.
          2    1    1    2  501    0  0.45403609378E+02 -0.28024801534E+01  0.45850746977E+03  0.46075855008E+03  0.00000000000E+00 0. -1.
          1    1    1    2  502    0 -0.57089061783E+02 -0.25506385560E+02  0.26174694848E+03  0.26911187584E+03  0.00000000000E+00 0. -1.
         22    1    3    3    0    0  0.63207164980E+02  0.32633785254E+02  0.71606996873E+03  0.71959454540E+03  0.00000000000E+00 0.  1.
         22    1    3    3    0    0 -0.51521712575E+02 -0.43249195409E+01  0.97201881957E+03  0.97339292035E+03  0.00000000000E+00 0.  1.
</event>
<event>
 7    1  0.6105960E-006  0.7281971E+02  0.7818608E-02  0.1361413E+00
          2   -1    0    0  502    0  0.00000000000E+00  0.00000000000E+00  0.13144861413E+04  0.13144861413E+04  0.00000000000E+00 0. -1.
          1   -1    0    0  501    0 -0.00000000000E+00 -0.00000000000E+00 -0.11105290037E+03  0.11105290037E+03  0.00000000000E+00 0. -1.
         25    2    1    2    0    0 -0.95927412231E+01 -0.26837195235E+02 -0.21448577495E+02  0.12999058053E+03  0.12500101527E+03 0.  0.
          2    1    1    2  501    0  0.61456829365E+02 -0.25528550454E+02 -0.18800119789E+01  0.66574643889E+02  0.00000000000E+00 0. -1.
          1    1    1    2  502    0 -0.51864088142E+02  0.52365745689E+02  0.12267618304E+04  0.12289738173E+04  0.00000000000E+00 0. -1.
         22    1    3    3    0    0 -0.20276453705E+02 -0.65455920919E+02  0.20948245008E+02  0.71655014669E+02  0.00000000000E+00 0. -1.
         22    1    3    3    0    0  0.10683712482E+02  0.38618725684E+02 -0.42396822504E+02  0.58335565861E+02  0.00000000000E+00 0. -1.
</event>
<event>
 7    1  0.6105960E-006  0.1049424E+03  0.7818608E-02  0.1275443E+00
          2   -1    0    0  502    0  0.00000000000E+00  0.00000000000E+00  0.75843753770E+03  0.75843753770E+03  0.00000000000E+00 0. -1.
          1   -1    0    0  501    0 -0.00000000000E+00 -0.00000000000E+00 -0.14217350746E+03  0.14217350746E+03  0.00000000000E+00 0. -1.
         25    2    1    2    0    0  0.41963756500E+02  0.42477125256E+02  0.78363720423E+02  0.15915908867E+03  0.12500191918E+03 0.  0.
          2    1    1    2  501    0 -0.88601130581E+02  0.56238295479E+02 -0.68487917386E+02  0.12531361078E+03  0.00000000000E+00 0. -1.
          1    1    1    2  502    0  0.46637374081E+02 -0.98715420735E+02  0.60638822720E+03  0.61613834570E+03  0.00000000000E+00 0. -1.
         22    1    3    3    0    0  0.58814634758E+02 -0.20852388364E+02  0.68880303612E+02  0.92943421434E+02  0.00000000000E+00 0.  1.
         22    1    3    3    0    0 -0.16850878258E+02  0.63329513620E+02  0.94834168114E+01  0.66215667238E+02  0.00000000000E+00 0.  1.
</event>
<event>
 7    1  0.6105960E-006  0.1185649E+03  0.7818608E-02  0.1357246E+00
          2   -1    0    0  502    0  0.00000000000E+00  0.00000000000E+00  0.10795542184E+04  0.10795542184E+04  0.00000000000E+00 0. -1.
          1   -1    0    0  501    0 -0.00000000000E+00 -0.00000000000E+00 -0.52533836229E+03  0.52533836229E+03  0.00000000000E+00 0. -1.
         25    2    1    2    0    0 -0.13905600915E+03 -0.81845051503E+01  0.59351586734E+02  0.19635145397E+03  0.12501089082E+03 0.  0.
          2    1    1    2  501    0  0.11464723440E+03 -0.26399502149E+02 -0.44878178173E+03  0.46394612799E+03  0.00000000000E+00 0. -1.
          1    1    1    2  502    0  0.24408774748E+02  0.34584007299E+02  0.94364605114E+03  0.94459499876E+03  0.00000000000E+00 0. -1.
         22    1    3    3    0    0  0.20465042821E+02  0.81913737909E+01 -0.65236737855E+01  0.22988581990E+02  0.00000000000E+00 0.  1.
         22    1    3    3    0    0 -0.15952105197E+03 -0.16375878941E+02  0.65875260519E+02  0.17336287198E+03  0.00000000000E+00 0.  1.
</event>
<event>
 7    1  0.6105960E-006  0.6237593E+02  0.7818608E-02  0.1388193E+00
          2   -1    0    0  502    0  0.00000000000E+00  0.00000000000E+00  0.11438678961E+04  0.11438678961E+04  0.00000000000E+00 0. -1.
          1   -1    0    0  501    0 -0.00000000000E+00 -0.00000000000E+00 -0.87693691173E+02  0.87693691173E+02  0.00000000000E+00 0. -1.
         25    2    1    2    0    0  0.20742015343E+02  0.22700263409E+02  0.17131484422E+02  0.12985964949E+03  0.12499803057E+03 0.  0.
          2    1    1    2  501    0 -0.63847511487E+02 -0.67737144162E+02  0.41000556465E+02  0.10171465505E+03  0.00000000000E+00 0. -1.
          1    1    1    2  502    0  0.43105496144E+02  0.45036880753E+02  0.99804216401E+03  0.99998728270E+03  0.00000000000E+00 0. -1.
         22    1    3    3    0    0 -0.52040760101E+02  0.79810753374E+01 -0.35750281981E+01  0.52770437767E+02  0.00000000000E+00 0.  1.
         22    1    3    3    0    0  0.72782775444E+02  0.14719188072E+02  0.20706512620E+02  0.77089211721E+02  0.00000000000E+00 0.  1.
</event>
<event>
 7    1  0.6105960E-006  0.5909227E+02  0.7818608E-02  0.1477361E+00
          2   -1    0    0  502    0  0.00000000000E+00  0.00000000000E+00  0.10527660696E+04  0.10527660696E+04  0.00000000000E+00 0. -1.
          1   -1    0    0  501    0 -0.00000000000E+00 -0.00000000000E+00 -0.13428856770E+03  0.13428856770E+03  0.00000000000E+00 0. -1.
         25    2    1    2    0    0  0.33831893031E+02  0.45384877471E+02  0.40875270654E+03  0.43117089389E+03  0.12500072219E+03 0.  0.
          2    1    1    2  501    0 -0.32693365371E+01 -0.59202979596E+02 -0.11546267026E+03  0.12979718632E+03  0.00000000000E+00 0. -1.
          1    1    1    2  502    0 -0.30562556494E+02  0.13818102125E+02  0.62518746556E+03  0.62608655704E+03  0.00000000000E+00 0. -1.
         22    1    3    3    0    0  0.75801026616E+02  0.29271981741E+02  0.17251459310E+03  0.19069328615E+03  0.00000000000E+00 0. -1.
         22    1    3    3    0    0 -0.41969133585E+02  0.16112895729E+02  0.23623811344E+03  0.24047760774E+03  0.00000000000E+00 0. -1.
</event>
<event>
 7    1  0.6105960E-006  0.2253171E+03  0.7818608E-02  0.1169038E+00
          2   -1    0    0  502    0  0.00000000000E+00  0.00000000000E+00  0.26887847901E+04  0.26887847901E+04  0.00000000000E+00 0. -1.
          1   -1    0    0  501    0 -0.00000000000E+00 -0.00000000000E+00 -0.85593534423E+02  0.85593534423E+02  0.00000000000E+00 0. -1.
         25    2    1    2    0    0 -0.18406270070E+03 -0.81668627865E+02  0.53585304703E+03  0.58592691858E+03  0.12499209313E+03 0.  0.
          2    1    1    2  501    0 -0.51770845718E+02  0.13198507695E+03  0.40678205934E+02  0.14749575398E+03  0.00000000000E+00 0. -1.
          1    1    1    2  502    0  0.23583354641E+03 -0.50316449088E+02  0.20266600028E+04  0.20409556520E+04  0.00000000000E+00 0. -1.
         22    1    3    3    0    0  0.76137084501E+00 -0.17825916795E+02  0.26982960202E+01  0.18045049087E+02  0.00000000000E+00 0. -1.
         22    1    3    3    0    0 -0.18482407154E+03 -0.63842711070E+02  0.53315475101E+03  0.56788186949E+03  0.00000000000E+00 0. -1.
</event>
<event>
 7    1  0.6105960E-006  0.7461819E+02  0.7818608E-02  0.1486072E+00
          2   -1    0    0  502    0  0.00000000000E+00  0.00000000000E+00  0.19038267240E+04  0.19038267240E+04  0.00000000000E+00 0. -1.
          1   -1    0    0  501    0 -0.00000000000E+00 -0.00000000000E+00 -0.62117786997E+02  0.62117786997E+02  0.00000000000E+00 0. -1.
         25    2    1    2    0    0 -0.34700962672E+02  0.66249062137E+02  0.12541807006E+04  0.12626059911E+04  0.12494624368E+03 0.  0.
          2    1    1    2  501    0  0.54525854601E+02 -0.51049891431E+02 -0.33461596407E+02  0.81846433454E+02  0.00000000000E+00 0. -1.
          1    1    1    2  502    0 -0.19824891928E+02 -0.15199170706E+02  0.62098983283E+03  0.62149208652E+03  0.00000000000E+00 0. -1.
         22    1    3    3    0    0  0.18516699904E+02 -0.20068625630E+02  0.90870191889E+02  0.94884190906E+02  0.00000000000E+00 0. -1.
         22    1    3    3    0    0 -0.53217662577E+02  0.86317687768E+02  0.11633105087E+04  0.11677218002E+04  0.00000000000E+00 0. -1.
</event>
<event>
 7    1  0.6105960E-006  0.1390129E+03  0.7818608E-02  0.1303477E+00
          2   -1    0    0  502    0  0.00000000000E+00  0.00000000000E+00  0.31589742130E+03  0.31589742130E+03  0.00000000000E+00 0. -1.
          1   -1    0    0  501    0 -0.00000000000E+00 -0.00000000000E+00 -0.18461629225E+04  0.18461629225E+04  0.00000000000E+00 0. -1.
         25    2    1    2    0    0 -0.86284549414E+02  0.12801671194E+03 -0.22900211030E+03  0.30315563758E+03  0.12501228767E+03 0.  0.
          2    1    1    2  501    0  0.28843280952E+02 -0.13556216842E+03 -0.15739962199E+04  0.15800864333E+04  0.00000000000E+00 0. -1.
          1    1    1    2  502    0  0.57441268462E+02  0.75454564862E+01  0.27273282908E+03  0.27881827288E+03  0.00000000000E+00 0. -1.
         22    1    3    3    0    0 -0.35719506438E+02 -0.79503268962E+01 -0.59409926115E+01  0.37072715454E+02  0.00000000000E+00 0.  1.
         22    1    3    3    0    0 -0.50565042976E+02  0.13596703883E+03 -0.22306111769E+03  0.26608292212E+03  0.00000000000E+00 0.  1.
</event>
<event>
 7    1  0.6105960E-006  0.5102277E+02  0.7818608E-02  0.1457002E+00
          2   -1    0    0  502    0  0.00000000000E+00  0.00000000000E+00  0.39127192269E+03  0.39127192269E+03  0.00000000000E+00 0. -1.
          1   -1    0    0  501    0 -0.00000000000E+00 -0.00000000000E+00 -0.68774538534E+02  0.68774538534E+02  0.00000000000E+00 0. -1.
         25    2    1    2    0    0 -0.65098806885E+01 -0.99181316079E+01  0.78601892895E+02  0.14813601704E+03  0.12500109638E+03 0.  0.
          2    1    1    2  501    0  0.50948730253E+02 -0.15151996036E+02 -0.90075199474E+01  0.53911886573E+02  0.00000000000E+00 0. -1.
          1    1    1    2  502    0 -0.44438849564E+02  0.25070127644E+02  0.25290301121E+03  0.25799855761E+03  0.00000000000E+00 0. -1.
         22    1    3    3    0    0  0.39648489985E+02  0.19122317913E+02  0.82451838328E+02  0.93466418804E+02  0.00000000000E+00 0. -1.
         22    1    3    3    0    0 -0.46158370673E+02 -0.29040449521E+02 -0.38499454332E+01  0.54669598237E+02  0.00000000000E+00 0. -1.
</event>
<event>
 7    1  0.6105960E-006  0.1141978E+03  0.7818608E-02  0.1380111E+00
          2   -1    0    0  502    0  0.00000000000E+00  0.00000000000E+00  0.43786614145E+04  0.43786614145E+04  0.00000000000E+00 0. -1.
          1   -1    0    0  501    0 -0.00000000000E+00 -0.00000000000E+00 -0.20703264663E+02  0.20703264663E+02  0.00000000000E+00 0. -1.
         25    2    1    2    0    0  0.10487137775E+03  0.76542204746E+02  0.62376072105E+03  0.64927463555E+03  0.12499360088E+03 0.  0.
          2    1    1    2  501    0  0.11888376893E+01 -0.36336891496E+02  0.39623794498E+02  0.53775720442E+02  0.00000000000E+00 0. -1.
          1    1    1    2  502    0 -0.10606021544E+03 -0.40205313250E+02  0.36945736343E+04  0.36963143232E+04  0.00000000000E+00 0. -1.
         22    1    3    3    0    0  0.30687004644E+02  0.19634164609E+02  0.45408166929E+03  0.45554072821E+03  0.00000000000E+00 0.  1.
         22    1    3    3    0    0  0.74184373108E+02  0.56908040137E+02  0.16967905176E+03  0.19373390733E+03  0.00000000000E+00 0.  1.
</event>
<event>
 7    1  0.6105960E-006  0.2312156E+03  0.7818608E-02  0.1237512E+00
          2   -1    0    0  502    0  0.00000000000E+00  0.00000000000E+00  0.22469687707E+04  0.22469687707E+04  0.00000000000E+00 0. -1.
          1   -1    0    0  501    0 -0.00000000000E+00 -0.00000000000E+00 -0.67618842166E+03  0.67618842166E+03  0.00000000000E+00 0. -1.
         25    2    1    2    0    0  0.17887177046E+03  0.11869136076E+03  0.22589733635E+03  0.33576318230E+03  0.12499823451E+03 0.  0.
          2    1    1    2  501    0 -0.22257606749E+03 -0.69352845100E+02 -0.59880619601E+03  0.64258756860E+03  0.00000000000E+00 0. -1.
          1    1    1    2  502    0  0.43704297030E+02 -0.49338515665E+02  0.19436892087E+04  0.19448064415E+04  0.00000000000E+00 0. -1.
         22    1    3    3    0    0  0.39339682226E+02  0.98833872333E+01 -0.91287797145E+01  0.41576755043E+02  0.00000000000E+00 0. -1.
         22    1    3    3    0    0  0.13953208823E+03  0.10880797353E+03  0.23502611606E+03  0.29418642726E+03  0.00000000000E+00 0. -1.
</event>
<event>
 7    1  0.6105960E-006  0.1586802E+03  0.7818608E-02  0.1371429E+00
          2   -1    0    0  502    0  0.00000000000E+00  0.00000000000E+00  0.12182028898E+04  0.12182028898E+04  0.00000000000E+00 0. -1.
          1   -1    0    0  501    0 -0.00000000000E+00 -0.00000000000E+00 -0.66554128920E+02  0.66554128920E+02  0.00000000000E+00 0. -1.
         25    2    1    2    0    0  0.12161651814E+03  0.10888463334E+03  0.23898902185E+03  0.31525687116E+03  0.12499880554E+03 0.  0.
          2    1    1    2  501    0 -0.96970976666E+02 -0.12237656912E+03  0.18838225886E+03  0.24467789119E+03  0.00000000000E+00 0. -1.
          1    1    1    2  502    0 -0.24645541475E+02  0.13491935772E+02  0.72427748016E+03  0.72482225636E+03  0.00000000000E+00 0. -1.
         22    1    3    3    0    0  0.82587206000E+02  0.93361442942E+02  0.73898537527E+02  0.14490686482E+03  0.00000000000E+00 0. -1.
         22    1    3    3    0    0  0.39029312141E+02  0.15523190401E+02  0.16509048432E+03  0.17035000634E+03  0.00000000000E+00 0. -1.
</event>
<event>
 7    1  0.6105960E-006  0.7906043E+02  0.7818608E-02  0.1409222E+00
          2   -1    0    0  502    0  0.00000000000E+00  0.00000000000E+00  0.64063578501E+03  0.64063578501E+03  0.00000000000E+00 0. -1.
          1   -1    0    0  501    0 -0.00000000000E+00 -0.00000000000E+00 -0.25827029646E+04  0.25827029646E+04  0.00000000000E+00 0. -1.
         25    2    1    2    0    0  0.62202510378E+02 -0.84094921975E+02  0.42553292063E+02  0.16845445609E+03  0.12500005164E+03 0.  0.
          2    1    1    2  501    0 -0.66418585419E+02  0.42681620450E+02 -0.25183232807E+04  0.25195605361E+04  0.00000000000E+00 0. -1.
          1    1    1    2  502    0  0.42160750416E+01  0.41413301525E+02  0.53370280904E+03  0.53532375737E+03  0.00000000000E+00 0. -1.
         22    1    3    3    0    0  0.22080658976E+01  0.30536305413E+02 -0.41613049422E+01  0.30897539742E+02  0.00000000000E+00 0. -1.
         22    1    3    3    0    0  0.59994444480E+02 -0.11463122739E+03  0.46714597005E+02  0.13755691634E+03  0.00000000000E+00 0. -1.
</event>
<event>
 7    1  0.6105960E-006  0.1727799E+03  0.7818608E-02  0.1351757E+00
          2   -1    0    0  502    0  0.00000000000E+00  0.00000000000E+00  0.99455735831E+03  0.99455735831E+03  0.00000000000E+00 0. -1.
          1   -1    0    0  501    0 -0.00000000000E+00 -0.00000000000E+00 -0.74075837003E+03  0.74075837003E+03  0.00000000000E+00 0. -1.
         25    2    1    2    0    0 -0.77379382172E+02 -0.13485038085E+03 -0.68731515109E+02  0.21100035543E+03  0.12499973929E+03 0.  0.
          2    1    1    2  501    0 -0.30387871589E+02 -0.16155371264E+01 -0.59231232814E+03  0.59309352278E+03  0.00000000000E+00 0. -1.
          1    1    1    2  502    0  0.10776725376E+03  0.13646591797E+03  0.91484283153E+03  0.93122185013E+03  0.00000000000E+00 0. -1.
         22    1    3    3    0    0  0.13373285212E+02 -0.47773147388E+02  0.23638130374E+02  0.54953430979E+02  0.00000000000E+00 0.  1.
         22    1    3    3    0    0 -0.90752667384E+02 -0.87077233457E+02 -0.92369645483E+02  0.15604692445E+03  0.00000000000E+00 0.  1.
</event>
<event>
 7    1  0.6105960E-006  0.1201350E+03  0.7818608E-02  0.1380641E+00
          2   -1    0    0  502    0  0.00000000000E+00  0.00000000000E+00  0.19001178979E+03  0.19001178979E+03  0.00000000000E+00 0. -1.
          1   -1    0    0  501    0 -0.00000000000E+00 -0.00000000000E+00 -0.25602357761E+03  0.25602357761E+03  0.00000000000E+00 0. -1.
         25    2    1    2    0    0  0.86158750106E+02  0.59338708090E+02 -0.61192517325E+02  0.17411119391E+03  0.12500308464E+03 0.  0.
          2    1    1    2  501    0 -0.11933664986E+03 -0.50210336006E+02 -0.10455740996E+03  0.16641684355E+03  0.00000000000E+00 0. -1.
          1    1    1    2  502    0  0.33177899749E+02 -0.91283720849E+01  0.99738139458E+02  0.10550732994E+03  0.00000000000E+00 0. -1.
         22    1    3    3    0    0  0.28992407106E+02  0.92436618772E+02 -0.33865622914E+02  0.10262537978E+03  0.00000000000E+00 0. -1.
         22    1    3    3    0    0  0.57166343000E+02 -0.33097910681E+02 -0.27326894411E+02  0.71485814129E+02  0.00000000000E+00 0. -1.
</event>
<event>
 7    1  0.6105960E-006  0.6041446E+02  0.7818608E-02  0.1437785E+00
          2   -1    0    0  502    0  0.00000000000E+00  0.00000000000E+00  0.14225343602E+04  0.14225343602E+04  0.00000000000E+00 0. -1.
          1   -1    0    0  501    0 -0.00000000000E+00 -0.00000000000E+00 -0.19429831793E+02  0.19429831793E+02  0.00000000000E+00 0. -1.
         25    2    1    2    0    0  0.81135786755E+02 -0.58304585438E+02  0.74236620700E+03  0.75941731930E+03  0.12499855592E+03 0.  0.
          2    1    1    2  501    0 -0.47320850888E+02  0.30498627089E+02  0.68382088108E+02  0.88575048163E+02  0.00000000000E+00 0. -1.
          1    1    1    2  502    0 -0.33814935867E+02  0.27805958349E+02  0.59235623334E+03  0.59397182457E+03  0.00000000000E+00 0. -1.
         22    1    3    3    0    0  0.11334992202E+03 -0.58503697419E+02  0.57495288014E+03  0.58893268021E+03  0.00000000000E+00 0.  1.
         22    1    3    3    0    0 -0.32214135265E+02  0.19911198110E+00  0.16741332685E+03  0.17048463908E+03  0.00000000000E+00 0.  1.
</event>
<event>
 7    1  0.6105960E-006  0.1097585E+03  0.7818608E-02  0.1270550E+00
          2   -1    0    0  502    0  0.00000000000E+00  0.00000000000E+00  0.18532493508E+04  0.18532493508E+04  0.00000000000E+00 0. -1.
          1   -1    0    0  501    0 -0.00000000000E+00 -0.00000000000E+00 -0.59593121860E+02  0.59593121860E+02  0.00000000000E+00 0. -1.
         25    2    1    2    0    0  0.33747904982E+02 -0.39818107305E+02  0.23424334585E+03  0.27059186127E+03  0.12500243018E+03 0.  0.
          2    1    1    2  501    0 -0.65067486628E+02 -0.75976699236E+02  0.24936269162E+02  0.10309245444E+03  0.00000000000E+00 0. -1.
          1    1    1    2  502    0  0.31319581646E+02  0.11579480654E+03  0.15344766139E+04  0.15391581569E+04  0.00000000000E+00 0. -1.
         22    1    3    3    0    0 -0.38203445836E+02 -0.16650354633E+02  0.26160322922E+02  0.49204675373E+02  0.00000000000E+00 0. -1.
         22    1    3    3    0    0  0.71951350818E+02 -0.23167752672E+02  0.20808302293E+03  0.22138718590E+03  0.00000000000E+00 0. -1.
</event>
<event>
 7    1  0.6105960E-006  0.1118294E+03  0.7818608E-02  0.1441760E+00
          2   -1    0    0  502    0  0.00000000000E+00  0.00000000000E+00  0.21388195357E+04  0.21388195357E+04  0.00000000000E+00 0. -1.
          1   -1    0    0  501    0 -0.00000000000E+00 -0.00000000000E+00 -0.61102237867E+02  0.61102237867E+02  0.00000000000E+00 0. -1.
         25    2    1    2    0    0 -0.70531533573E+02  0.95509302487E+02  0.12682313162E+04  0.12798958449E+04  0.12500391357E+03 0.  0.
          2    1    1    2  501    0  0.48164146874E+02 -0.10068685919E+03  0.14087741204E+01  0.11162263795E+03  0.00000000000E+00 0. -1.
          1    1    1    2  502    0  0.22367386699E+02  0.51775567047E+01  0.80807720755E+03  0.80840329071E+03  0.00000000000E+00 0. -1.
         22    1    3    3    0    0 -0.11257394261E+01 -0.29442227166E+02  0.21300657609E+03  0.21503467973E+03  0.00000000000E+00 0. -1.
         22    1    3    3    0    0 -0.69405794147E+02  0.12495152965E+03  0.10552247401E+04  0.10648611652E+04  0.00000000000E+00 0. -1.
</event>
<event>
 7    1  0.6105960E-006  0.8662628E+02  0.7818608E-02  0.1402702E+00
          2   -1    0    0  502    0  0.00000000000E+00  0.00000000000E+00  0.89657740562E+03  0.89657740562E+03  0.00000000000E+00 0. -1.
          1   -1    0    0  501    0 -0.00000000000E+00 -0.00000000000E+00 -0.71650484427E+03  0.71650484427E+03  0.00000000000E+00 0. -1.
         25    2    1    2    0    0  0.16804972779E+02 -0.45546374159E+02 -0.38715625007E+03  0.40972100252E+03  0.12499783447E+03 0.  0.
          2    1    1    2  501    0 -0.16379884311E+01 -0.39952939547E+02 -0.31466865546E+03  0.31719912218E+03  0.00000000000E+00 0. -1.
          1    1    1    2  502    0 -0.15166984348E+02  0.85499313707E+02  0.88189746687E+03  0.88616212520E+03  0.00000000000E+00 0. -1.
         22    1    3    3    0    0 -0.60544189981E+01 -0.49848367281E+02 -0.38277082132E+03  0.38605053732E+03  0.00000000000E+00 0.  1.
         22    1    3    3    0    0  0.22859391777E+02  0.43019931212E+01 -0.43854287522E+01  0.23670465195E+02  0.00000000000E+00 0.  1.
</event>
<event>
 7    1  0.6105960E-006  0.6813827E+02  0.7818608E-02  0.1412699E+00
          2   -1    0    0  502    0  0.00000000000E+00  0.00000000000E+00  0.10537756512E+03  0.10537756512E+03  0.00000000000E+00 0. -1.
          1   -1    0    0  501    0 -0.00000000000E+00 -0.00000000000E+00 -0.40711826880E+03  0.40711826880E+03  0.00000000000E+00 0. -1.
         25    2    1    2    0    0 -0.96657675850E+01 -0.10235489342E+03 -0.80051714182E+02  0.18056452533E+03  0.12500127837E+03 0.  0.
          2    1    1    2  501    0 -0.16158576736E+02  0.44144558224E+02 -0.25552888913E+03  0.25981696404E+03  0.00000000000E+00 0. -1.
          1    1    1    2  502    0  0.25824344321E+02  0.58210335195E+02  0.33839899634E+02  0.72114344553E+02  0.00000000000E+00 0. -1.
         22    1    3    3    0    0 -0.60249436863E+02 -0.79659626024E+02 -0.74981512667E+02  0.12489146449E+03  0.00000000000E+00 0. -1.
         22    1    3    3    0    0  0.50583669278E+02 -0.22695267395E+02 -0.50702015148E+01  0.55673060839E+02  0.00000000000E+00 0. -1.
</event>
<event>
 7    1  0.6105960E-006  0.8990199E+02  0.7818608E-02  0.1311355E+00
          2   -1    0    0  502    0  0.00000000000E+00  0.00000000000E+00  0.53597226209E+03  0.53597226209E+03  0.00000000000E+00 0. -1.
          1   -1    0    0  501    0 -0.00000000000E+00 -0.00000000000E+00 -0.41087435986E+03  0.41087435986E+03  0.00000000000E+00 0. -1.
         25    2    1    2    0    0 -0.12292140577E+02  0.81006673256E+01  0.15664474744E+03  0.20093827976E+03  0.12498759074E+03 0.  0.
          2    1    1    2  501    0  0.12993771183E+02 -0.91476077313E+02 -0.37822391963E+03  0.38934566158E+03  0.00000000000E+00 0. -1.
          1    1    1    2  502    0 -0.70163060585E+00  0.83375409988E+02  0.34667707442E+03  0.35656268061E+03  0.00000000000E+00 0. -1.
         22    1    3    3    0    0  0.36070374492E+02  0.19222413959E+02  0.14405522950E+03  0.14974138460E+03  0.00000000000E+00 0. -1.
         22    1    3    3    0    0 -0.48362515070E+02 -0.11121746634E+02  0.12589517944E+02  0.51196895161E+02  0.00000000000E+00 0. -1.
</event>
<event>
 7    1  0.6105960E-006  0.1183649E+03  0.7818608E-02  0.1366773E+00
          2   -1    0    0  502    0  0.00000000000E+00  0.00000000000E+00  0.12424598105E+04  0.12424598105E+04  0.00000000000E+00 0. -1.
          1   -1    0    0  501    0 -0.00000000000E+00 -0.00000000000E+00 -0.24975203896E+04  0.24975203896E+04  0.00000000000E+00 0. -1.
         25    2    1    2    0    0 -0.11478414621E+02  0.95151992064E+02  0.36548367296E+03  0.39798241247E+03  0.12500411929E+03 0.  0.
          2    1    1    2  501    0  0.48417953667E+02 -0.10811790266E+03 -0.24794109023E+04  0.24822393522E+04  0.00000000000E+00 0. -1.
          1    1    1    2  502    0 -0.36939539046E+02  0.12965910595E+02  0.85886665029E+03  0.85975843547E+03  0.00000000000E+00 0. -1.
         22    1    3    3    0    0 -0.29389297856E+02  0.11964041140E+03  0.32365440026E+03  0.34630872018E+03  0.00000000000E+00 0.  1.
         22    1    3    3    0    0  0.17910883236E+02 -0.24488419334E+02  0.41829272703E+02  0.51673692288E+02  0.00000000000E+00 0.  1.
</event>
<event>
 7    1  0.6105960E-006  0.1233354E+03  0.7818608E-02  0.1239644E+00
          2   -1    0    0  502    0  0.00000000000E+00  0.00000000000E+00  0.59310558292E+03  0.59310558292E+03  0.00000000000E+00 0. -1.
          1   -1    0    0  501    0 -0.00000000000E+00 -0.00000000000E+00 -0.83026796016E+03  0.83026796016E+03  0.00000000000E+00 0. -1.
         25    2    1    2    0    0 -0.19440740185E+03  0.14426196190E+03 -0.40070229148E+03  0.48455364215E+03  0.12499661667E+03 0.  0.
          2    1    1    2  501    0  0.10077459959E+03 -0.66815092047E+02 -0.37122680723E+03  0.39042171924E+03  0.00000000000E+00 0. -1.
          1    1    1    2  502    0  0.93632802263E+02 -0.77446869850E+02  0.53476672146E+03  0.54839818170E+03  0.00000000000E+00 0. -1.
         22    1    3    3    0    0 -0.15654082184E+03  0.60988071570E+02 -0.18305297574E+03  0.24846119556E+03  0.00000000000E+00 0. -1.
         22    1    3    3    0    0 -0.37866580015E+02  0.83273890328E+02 -0.21764931574E+03  0.23609244658E+03  0.00000000000E+00 0. -1.
</event>
<event>
 7    1  0.6105960E-006  0.9894014E+02  0.7818608E-02  0.1332567E+00
          2   -1    0    0  502    0  0.00000000000E+00  0.00000000000E+00  0.59290107962E+03  0.59290107962E+03  0.00000000000E+00 0. -1.
          1   -1    0    0  501    0 -0.00000000000E+00 -0.00000000000E+00 -0.33074825784E+03  0.33074825784E+03  0.00000000000E+00 0. -1.
         25    2    1    2    0    0  0.61777761153E+02 -0.34110035406E+02  0.25279830131E+02  0.14574985918E+03  0.12499586134E+03 0.  0.
          2    1    1    2  501    0  0.39774978913E+02  0.48492592542E+02 -0.26158491477E+03  0.26899860244E+03  0.00000000000E+00 0. -1.
          1    1    1    2  502    0 -0.10155274007E+03 -0.14382557136E+02  0.49845790641E+03  0.50890087584E+03  0.00000000000E+00 0. -1.
         22    1    3    3    0    0 -0.25451728816E+01 -0.38424464624E+02 -0.38932027097E+02  0.54759657783E+02  0.00000000000E+00 0.  1.
         22    1    3    3    0    0  0.64322934035E+02  0.43144292180E+01  0.64211857227E+02  0.90990201401E+02  0.00000000000E+00 0.  1.
</event>
<event>
 7    1  0.6105960E-006  0.3755681E+02  0.7818608E-02  0.1527489E+00
          2   -1    0    0  502    0  0.00000000000E+00  0.00000000000E+00  0.21632305915E+04  0.21632305915E+04  0.00000000000E+00 0. -1.
          1   -1    0    0  501    0 -0.00000000000E+00 -0.00000000000E+00 -0.43757849181E+02  0.43757849181E+02  0.00000000000E+00 0. -1.
         25    2    1    2    0    0 -0.99652664159E+01  0.41065465377E+02  0.26461434523E+03  0.29568859792E+03  0.12500126503E+03 0.  0.
          2    1    1    2  501    0  0.35577571356E+02 -0.13762818164E+02 -0.15056178603E+02  0.41010574997E+02  0.00000000000E+00 0. -1.
          1    1    1    2  502    0 -0.25612304940E+02 -0.27302647213E+02  0.18699145757E+04  0.18702892677E+04  0.00000000000E+00 0. -1.
         22    1    3    3    0    0  0.17877111948E+01 -0.10769002188E+02 -0.10702932345E+02  0.15287906339E+02  0.00000000000E+00 0. -1.
         22    1    3    3    0    0 -0.11752977611E+02  0.51834467565E+02  0.27531727757E+03  0.28040069158E+03  0.00000000000E+00 0. -1.
</event>
<event>
 7    1  0.6105960E-006  0.3236404E+02  0.7818608E-02  0.1627365E+00
          2   -1    0    0  502    0  0.00000000000E+00  0.00000000000E+00  0.11442665695E+03  0.11442665695E+03  0.00000000000E+00 0. -1.
          1   -1    0    0  501    0 -0.00000000000E+00 -0.00000000000E+00 -0.77769169637E+03  0.77769169637E+03  0.00000000000E+00 0. -1.
         25    2    1    2    0    0 -0.16918515134E+02 -0.43981631246E+02 -0.35591115674E+03  0.38015766034E+03  0.12500590059E+03 0.  0.
          2    1    1    2  501    0 -0.29823810966E+01  0.31703224284E+02 -0.40769205504E+03  0.40893373641E+03  0.00000000000E+00 0. -1.
          1    1    1    2  502    0  0.19900896231E+02  0.12278406962E+02  0.10033817236E+03  0.10302695658E+03  0.00000000000E+00 0. -1.
         22    1    3    3    0    0  0.13459456530E+02 -0.66242422683E+02 -0.95296919303E+02  0.11683628872E+03  0.00000000000E+00 0. -1.
         22    1    3    3    0    0 -0.30377971665E+02  0.22260791437E+02 -0.26061423744E+03  0.26332137162E+03  0.00000000000E+00 0. -1.
</event>
<event>
 7    1  0.6105960E-006  0.5847518E+02  0.7818608E-02  0.1480919E+00
          2   -1    0    0  502    0  0.00000000000E+00  0.00000000000E+00  0.10827973738E+04  0.10827973738E+04  0.00000000000E+00 0. -1.
          1   -1    0    0  501    0 -0.00000000000E+00 -0.00000000000E+00 -0.17398486915E+03  0.17398486915E+03  0.00000000000E+00 0. -1.
         25    2    1    2    0    0  0.54093785418E+01 -0.76422640524E+02  0.20095585841E+03  0.24875420259E+03  0.12500285964E+03 0.  0.
          2    1    1    2  501    0 -0.24847338101E+02  0.21796957060E+02 -0.14727221873E+03  0.15093576103E+03  0.00000000000E+00 0. -1.
          1    1    1    2  502    0  0.19437959559E+02  0.54625683464E+02  0.85512886500E+03  0.85709227935E+03  0.00000000000E+00 0. -1.
         22    1    3    3    0    0 -0.23633809305E+02 -0.25633936903E+02  0.18479692623E+03  0.18805733064E+03  0.00000000000E+00 0.  1.
         22    1    3    3    0    0  0.29043187847E+02 -0.50788703621E+02  0.16158932182E+02  0.60696871954E+02  0.00000000000E+00 0.  1.
</event>
<event>
 7    1  0.7823962E-006  0.6659606E+02  0.7818608E-02  0.1381533E+00
          2   -1    0    0  502    0  0.00000000000E+00  0.00000000000E+00  0.17628972577E+04  0.17628972577E+04  0.00000000000E+00 0. -1.
          1   -1    0    0  501    0 -0.00000000000E+00 -0.00000000000E+00 -0.63386812337E+03  0.63386812337E+03  0.00000000000E+00 0. -1.
         25    2    1    2    0    0  0.43698662632E+02  0.46224395992E+02 -0.75473527154E+02  0.15926093727E+03  0.12498609898E+03 0.  0.
          2    1    1    2  501    0 -0.67347105322E+02  0.10682903937E+02 -0.51369548599E+03  0.51820151424E+03  0.00000000000E+00 0. -1.
          1    1    1    2  502    0  0.23648442690E+02 -0.56907299929E+02  0.17181981475E+04  0.17193029296E+04  0.00000000000E+00 0. -1.
         22    1    3    3    0    0  0.32436236275E+02  0.43846081331E+02 -0.11004748658E+03  0.12282116094E+03  0.00000000000E+00 0. -1.
         22    1    3    3    0    0  0.11262426358E+02  0.23783146611E+01  0.34573959430E+02  0.36439776327E+02  0.00000000000E+00 0. -1.
</event>
<event>
 7    1  0.6105960E-006  0.6986458E+02  0.7818608E-02  0.1454383E+00
          2   -1    0    0  502    0  0.00000000000E+00  0.00000000000E+00  0.49113892565E+02  0.49113892565E+02  0.00000000000E+00 0. -1.
          1   -1    0    0  501    0 -0.00000000000E+00 -0.00000000000E+00 -0.29633912776E+04  0.29633912776E+04  0.00000000000E+00 0. -1.
         25    2    1    2    0    0  0.20102280174E+02  0.33379231678E+02 -0.15501561230E+04  0.15556766634E+04  0.12501040290E+03 0.  0.
          2    1    1    2  501    0  0.22218234162E+01  0.33403326002E+02 -0.13834134760E+04  0.13838184723E+04  0.00000000000E+00 0. -1.
          1    1    1    2  502    0 -0.22324103591E+02 -0.66782557680E+02  0.19292213916E+02  0.73010034442E+02  0.00000000000E+00 0. -1.
         22    1    3    3    0    0  0.28077802913E+02 -0.40779837328E+02 -0.39081412342E+03  0.39393785958E+03  0.00000000000E+00 0. -1.
         22    1    3    3    0    0 -0.79755227386E+01  0.74159069007E+02 -0.11593419995E+04  0.11617388039E+04  0.00000000000E+00 0. -1.
</event>
<event>
 7    1  0.6105960E-006  0.7595977E+02  0.7818608E-02  0.1367355E+00
          2   -1    0    0  502    0  0.00000000000E+00  0.00000000000E+00  0.10968498315E+04  0.10968498315E+04  0.00000000000E+00 0. -1.
          1   -1    0    0  501    0 -0.00000000000E+00 -0.00000000000E+00 -0.28284725454E+04  0.28284725454E+04  0.00000000000E+00 0. -1.
         25    2    1    2    0    0 -0.11302127151E+03 -0.36495121069E+02 -0.10313453510E+03  0.20091469197E+03  0.12499711774E+03 0.  0.
          2    1    1    2  501    0  0.74857978536E+02 -0.10719657720E+02 -0.26750338961E+04  0.26761025715E+04  0.00000000000E+00 0. -1.
          1    1    1    2  502    0  0.38163292970E+02  0.47214778790E+02  0.10465457173E+04  0.10483051133E+04  0.00000000000E+00 0. -1.
         22    1    3    3    0    0 -0.12316847476E+03 -0.25196838607E+02 -0.12301872402E+03  0.17589474213E+03  0.00000000000E+00 0.  1.
         22    1    3    3    0    0  0.10147203254E+02 -0.11298282462E+02  0.19884188924E+02  0.25019949832E+02  0.00000000000E+00 0.  1.
</event>
<event>
 7    1  0.6105960E-006  0.9684165E+02  0.7818608E-02  0.1292092E+00
          2   -1    0    0  502    0  0.00000000000E+00  0.00000000000E+00  0.12806998125E+04  0.12806998125E+04  0.00000000000E+00 0. -1.
          1   -1    0    0  501    0 -0.00000000000E+00 -0.00000000000E+00 -0.39405455555E+03  0.39405455555E+03  0.00000000000E+00 0. -1.
         25    2    1    2    0    0 -0.73008870143E+02 -0.64971701904E+02  0.25509756506E+02  0.16071014102E+03  0.12500153832E+03 0.  0.
          2    1    1    2  501    0 -0.21901943772E+02  0.89766029077E+02 -0.31783816851E+03  0.33099658076E+03  0.00000000000E+00 0. -1.
          1    1    1    2  502    0  0.94910813914E+02 -0.24794327173E+02  0.11789736690E+04  0.11830476463E+04  0.00000000000E+00 0. -1.
         22    1    3    3    0    0 -0.98113215423E+02 -0.81383348471E+02  0.28334943613E+02  0.13058453767E+03  0.00000000000E+00 0.  1.
         22    1    3    3    0    0  0.25104345281E+02  0.16411646567E+02 -0.28251871078E+01  0.30125603350E+02  0.00000000000E+00 0.  1.
</event>
<event>
 7    1  0.7146826E-006  0.6320738E+02  0.7818608E-02  0.1422747E+00
          2   -1    0    0  502    0  0.00000000000E+00  0.00000000000E+00  0.12585258594E+04  0.12585258594E+04  0.00000000000E+00 0. -1.
          1   -1    0    0  501    0 -0.00000000000E+00 -0.00000000000E+00 -0.78107805794E+03  0.78107805794E+03  0.00000000000E+00 0. -1.
         25    2    1    2    0    0 -0.61282718417E+01  0.54702749660E+02 -0.46930999229E+03  0.48878351779E+03  0.12501004709E+03 0.  0.
          2    1    1    2  501    0  0.52556691029E+02 -0.48100547996E+02 -0.29738195411E+03  0.30579714701E+03  0.00000000000E+00 0. -1.
          1    1    1    2  502    0 -0.46428419187E+02 -0.66022016640E+01  0.12441397479E+04  0.12450232526E+04  0.00000000000E+00 0. -1.
         22    1    3    3    0    0 -0.57089203257E+02  0.32297412259E+01 -0.13315337058E+03  0.14491179543E+03  0.00000000000E+00 0. -1.
         22    1    3    3    0    0  0.50960931415E+02  0.51473008434E+02 -0.33615662170E+03  0.34387172236E+03  0.00000000000E+00 0. -1.
</event>
<event>
 7    1  0.6105960E-006  0.1619944E+03  0.7818608E-02  0.1403642E+00
          2   -1    0    0  502    0  0.00000000000E+00  0.00000000000E+00  0.17341765991E+03  0.17341765991E+03  0.00000000000E+00 0. -1.
          1   -1    0    0  501    0 -0.00000000000E+00 -0.00000000000E+00 -0.17560612458E+04  0.17560612458E+04  0.00000000000E+00 0. -1.
         25    2    1    2    0    0 -0.17316146730E+03  0.29543018564E+02 -0.17497413236E+03  0.27766746638E+03  0.12500236473E+03 0.  0.
          2    1    1    2  501    0  0.15552006079E+03 -0.41344401911E+02 -0.15245499769E+04  0.15330194000E+04  0.00000000000E+00 0. -1.
          1    1    1    2  502    0  0.17641406502E+02  0.11801383347E+02  0.11688052333E+03  0.11879203932E+03  0.00000000000E+00 0. -1.
         22    1    3    3    0    0 -0.16819806531E+03  0.12757653717E+02 -0.90551860486E+02  0.19144969663E+03  0.00000000000E+00 0. -1.
         22    1    3    3    0    0 -0.49634019901E+01  0.16785364847E+02 -0.84422271877E+02  0.86217769754E+02  0.00000000000E+00 0. -1.
</event>
<event>
 7    1  0.6105960E-006  0.2973751E+03  0.7818608E-02  0.1216432E+00
          2   -1    0    0  502    0  0.00000000000E+00  0.00000000000E+00  0.85870571582E+03  0.85870571582E+03  0.00000000000E+00 0. -1.
          1   -1    0    0  501    0 -0.00000000000E+00 -0.00000000000E+00 -0.24321829051E+03  0.24321829051E+03  0.00000000000E+00 0. -1.
         25    2    1    2    0    0  0.26613914417E+03 -0.70103213263E+02 -0.15217627874E+02  0.30265614682E+03  0.12499864976E+03 0.  0.
          2    1    1    2  501    0  0.36275242661E+02  0.52458498347E+02 -0.31448027803E+02  0.71110939606E+02  0.00000000000E+00 0. -1.
          1    1    1    2  502    0 -0.30241438683E+03  0.17644714916E+02  0.66215308099E+03  0.72815691990E+03  0.00000000000E+00 0. -1.
         22    1    3    3    0    0  0.42631471998E+02  0.32894512296E+02 -0.17273244069E+02  0.56549591551E+02  0.00000000000E+00 0.  1.
         22    1    3    3    0    0  0.22350767217E+03 -0.10299772556E+03  0.20556161950E+01  0.24610655527E+03  0.00000000000E+00 0.  1.
</event>
<event>
 7    1  0.6105960E-006  0.8707896E+02  0.7818608E-02  0.1413573E+00
          2   -1    0    0  502    0  0.00000000000E+00  0.00000000000E+00  0.83289650534E+03  0.83289650534E+03  0.00000000000E+00 0. -1.
          1   -1    0    0  501    0 -0.00000000000E+00 -0.00000000000E+00 -0.67283683213E+02  0.67283683213E+02  0.00000000000E+00 0. -1.
         25    2    1    2    0    0  0.90471664891E+02  0.26751320183E+02  0.33322829930E+03  0.36819378000E+03  0.12499921958E+03 0.  0.
          2    1    1    2  501    0 -0.42185011479E+01 -0.36290656685E+02 -0.38556436888E+02  0.53116911997E+02  0.00000000000E+00 0. -1.
          1    1    1    2  502    0 -0.86253163743E+02  0.95393365020E+01  0.47094095972E+03  0.47886949656E+03  0.00000000000E+00 0. -1.
         22    1    3    3    0    0  0.19901274166E+02  0.62611556592E+02  0.83665388695E+02  0.10637746471E+03  0.00000000000E+00 0. -1.
         22    1    3    3    0    0  0.70570390725E+02 -0.35860236409E+02  0.24956291060E+03  0.26181631529E+03  0.00000000000E+00 0. -1.
</event>
<event>
 7    1  0.6105960E-006  0.1057556E+03  0.7818608E-02  0.1329524E+00
          2   -1    0    0  502    0  0.00000000000E+00  0.00000000000E+00  0.23726496245E+03  0.23726496245E+03  0.00000000000E+00 0. -1.
          1   -1    0    0  501    0 -0.00000000000E+00 -0.00000000000E+00 -0.11114633389E+04  0.11114633389E+04  0.00000000000E+00 0. -1.
         25    2    1    2    0    0 -0.47206687590E+02  0.63461161813E+02 -0.49735838153E+03  0.51889471981E+03  0.12502231865E+03 0.  0.
          2    1    1    2  501    0  0.10746981449E+03 -0.62922593810E+02 -0.59273947321E+03  0.60568068893E+03  0.00000000000E+00 0. -1.
          1    1    1    2  502    0 -0.60263126895E+02 -0.53856800228E+00  0.21589947831E+03  0.22415289258E+03  0.00000000000E+00 0. -1.
         22    1    3    3    0    0 -0.43930181596E+02  0.89427850648E+02 -0.47217888198E+03  0.48257652026E+03  0.00000000000E+00 0.  1.
         22    1    3    3    0    0 -0.32765059942E+01 -0.25966688835E+02 -0.25179499553E+02  0.36318199547E+02  0.00000000000E+00 0.  1.
</event>
<event>
 7    1  0.6105960E-006  0.1119481E+03  0.7818608E-02  0.1284756E+00
          2   -1    0    0  502    0  0.00000000000E+00  0.00000000000E+00  0.14100102660E+04  0.14100102660E+04  0.00000000000E+00 0. -1.
          1   -1    0    0  501    0 -0.00000000000E+00 -0.00000000000E+00 -0.27789243811E+03  0.27789243811E+03  0.00000000000E+00 0. -1.
         25    2    1    2    0    0  0.55118070389E+02  0.11142134209E+03  0.55083149150E+03  0.57835388439E+03  0.12500066558E+03 0.  0.
          2    1    1    2  501    0 -0.10443911075E+03 -0.41421410111E+02 -0.24988332681E+03  0.27397981329E+03  0.00000000000E+00 0. -1.
          1    1    1    2  502    0  0.49321040360E+02 -0.69999931980E+02  0.83116966323E+03  0.83556900647E+03  0.00000000000E+00 0. -1.
         22    1    3    3    0    0  0.43762772486E+02 -0.80261164461E+01  0.25941405936E+03  0.26320192438E+03  0.00000000000E+00 0. -1.
         22    1    3    3    0    0  0.11355297903E+02  0.11944745854E+03  0.29141743214E+03  0.31515196001E+03  0.00000000000E+00 0. -1.
</event>
<event>
 7    1  0.6105960E-006  0.1236540E+03  0.7818608E-02  0.1380054E+00
          2   -1    0    0  502    0  0.00000000000E+00  0.00000000000E+00  0.66722431168E+03  0.66722431168E+03  0.00000000000E+00 0. -1.
          1   -1    0    0  501    0 -0.00000000000E+00 -0.00000000000E+00 -0.30177184193E+04  0.30177184193E+04  0.00000000000E+00 0. -1.
         25    2    1    2    0    0 -0.26062584144E+02  0.11001496038E+03 -0.11241538241E+04  0.11367181818E+04  0.12499541949E+03 0.  0.
          2    1    1    2  501    0 -0.21529228161E+01 -0.12824372275E+03 -0.18846744904E+04  0.18890338859E+04  0.00000000000E+00 0. -1.
          1    1    1    2  502    0  0.28215506960E+02  0.18228762368E+02  0.65833420683E+03  0.65919066324E+03  0.00000000000E+00 0. -1.
         22    1    3    3    0    0  0.30229773837E+02  0.75459747681E+02 -0.33167026494E+03  0.34148671628E+03  0.00000000000E+00 0. -1.
         22    1    3    3    0    0 -0.56292357980E+02  0.34555212697E+02 -0.79248355913E+03  0.79523146554E+03  0.00000000000E+00 0. -1.
</event>
<event>
 7    1  0.6105960E-006  0.2035849E+03  0.7818608E-02  0.1317059E+00
          2   -1    0    0  502    0  0.00000000000E+00  0.00000000000E+00  0.86111208561E+03  0.86111208561E+03  0.00000000000E+00 0. -1.
          1   -1    0    0  501    0 -0.00000000000E+00 -0.00000000000E+00 -0.57620059221E+03  0.57620059221E+03  0.00000000000E+00 0. -1.
         25    2    1    2    0    0  0.14082835723E+02  0.23180709052E+03  0.15837216541E+03  0.30763578467E+03  0.12500071902E+03 0.  0.
          2    1    1    2  501    0  0.25178054681E+01 -0.34883245162E+02 -0.48537946855E+03  0.48663786189E+03  0.00000000000E+00 0. -1.
          1    1    1    2  502    0 -0.16600641191E+02 -0.19692384536E+03  0.61191879654E+03  0.64303903125E+03  0.00000000000E+00 0. -1.
         22    1    3    3    0    0  0.40801692844E+02  0.18248927661E+03  0.63610655813E+02  0.19751817574E+03  0.00000000000E+00 0. -1.
         22    1    3    3    0    0 -0.26718857121E+02  0.49317813914E+02  0.94761509596E+02  0.11011760893E+03  0.00000000000E+00 0. -1.
</event>
<event>
 7    1  0.6105960E-006  0.1335812E+03  0.7818608E-02  0.1232633E+00
          2   -1    0    0  502    0  0.00000000000E+00  0.00000000000E+00  0.29610195328E+03  0.29610195328E+03  0.00000000000E+00 0. -1.
          1   -1    0    0  501    0 -0.00000000000E+00 -0.00000000000E+00 -0.17442165204E+04  0.17442165204E+04  0.00000000000E+00 0. -1.
         25    2    1    2    0    0 -0.21848536751E+03 -0.28132010032E+02 -0.56382540507E+03  0.61810312172E+03  0.12500046352E+03 0.  0.
          2    1    1    2  501    0  0.11876667846E+03 -0.38497179468E+02 -0.11362917405E+04  0.11431301222E+04  0.00000000000E+00 0. -1.
          1    1    1    2  502    0  0.99718689049E+02  0.66629189500E+02  0.25200257853E+03  0.27908522968E+03  0.00000000000E+00 0. -1.
         22    1    3    3    0    0 -0.11811093047E+02 -0.42429148696E+02 -0.71650910543E+02  0.84104622701E+02  0.00000000000E+00 0.  1.
         22    1    3    3    0    0 -0.20667427446E+03  0.14297138664E+02 -0.49217449452E+03  0.53399849902E+03  0.00000000000E+00 0.  1.
</event>
<event>
 7    1  0.6105960E-006  0.1337221E+03  0.7818608E-02  0.1350584E+00
          2   -1    0    0  502    0  0.00000000000E+00  0.00000000000E+00  0.47868772255E+03  0.47868772255E+03  0.00000000000E+00 0. -1.
          1   -1    0    0  501    0 -0.00000000000E+00 -0.00000000000E+00 -0.35599115204E+03  0.35599115204E+03  0.00000000000E+00 0. -1.
         25    2    1    2    0    0 -0.80264059802E+02 -0.60131977846E+02  0.22378892036E+02  0.16181694903E+03  0.12500294448E+03 0.  0.
          2    1    1    2  501    0  0.11336539989E+03  0.82074670030E+02 -0.26803469897E+03  0.30237487529E+03  0.00000000000E+00 0. -1.
          1    1    1    2  502    0 -0.33101340088E+02 -0.21942692184E+02  0.36835237745E+03  0.37048705028E+03  0.00000000000E+00 0. -1.
         22    1    3    3    0    0 -0.19585776380E+02  0.22048432518E+02 -0.34104478312E+02  0.45087153979E+02  0.00000000000E+00 0.  1.
         22    1    3    3    0    0 -0.60678283421E+02 -0.82180410364E+02  0.56483370348E+02  0.11672979505E+03  0.00000000000E+00 0.  1.
</event>
<event>
 7    1  0.6105960E-006  0.3568405E+02  0.7818608E-02  0.1590027E+00
          2   -1    0    0  502    0  0.00000000000E+00  0.00000000000E+00  0.44785636961E+03  0.44785636961E+03  0.00000000000E+00 0. -1.
          1   -1    0    0  501    0 -0.00000000000E+00 -0.00000000000E+00 -0.46804914642E+02  0.46804914642E+02  0.00000000000E+00 0. -1.
         25    2    1    2    0    0 -0.31079236769E+02 -0.29176740938E+02  0.14063457794E+03  0.19292614301E+03  0.12500084389E+03 0.  0.
          2    1    1    2  501    0  0.35679265056E+02  0.30946702974E+01 -0.39631685749E+01  0.36031842089E+02  0.00000000000E+00 0. -1.
          1    1    1    2  502    0 -0.46000282867E+01  0.26082070641E+02  0.26438004560E+03  0.26570329916E+03  0.00000000000E+00 0. -1.
         22    1    3    3    0    0 -0.66522950904E+02 -0.26529166610E+02  0.14014080126E+03  0.15738025243E+03  0.00000000000E+00 0. -1.
         22    1    3    3    0    0  0.35443714134E+02 -0.26475743287E+01  0.49377668277E+00  0.35545890577E+02  0.00000000000E+00 0. -1.
</event>
<event>
 7    1  0.6105960E-006  0.7725235E+02  0.7818608E-02  0.1438751E+00
          2   -1    0    0  502    0  0.00000000000E+00  0.00000000000E+00  0.10276941048E+04  0.10276941048E+04  0.00000000000E+00 0. -1.
          1   -1    0    0  501    0 -0.00000000000E+00 -0.00000000000E+00 -0.42384173689E+02  0.42384173689E+02  0.00000000000E+00 0. -1.
         25    2    1    2    0    0 -0.87528676936E+01  0.64328375402E+02  0.51406222711E+03  0.53301073627E+03  0.12500287620E+03 0.  0.
          2    1    1    2  501    0  0.42681673262E+02 -0.66371458482E+02  0.15954607118E+02  0.80507423396E+02  0.00000000000E+00 0. -1.
          1    1    1    2  502    0 -0.33928805568E+02  0.20430830803E+01  0.45529309684E+03  0.45656011878E+03  0.00000000000E+00 0. -1.
         22    1    3    3    0    0 -0.38944972284E+02  0.11650820483E+02  0.47522493161E+02  0.62536707944E+02  0.00000000000E+00 0.  1.
         22    1    3    3    0    0  0.30192104591E+02  0.52677554919E+02  0.46653973395E+03  0.47047402832E+03  0.00000000000E+00 0.  1.
</event>
<event>
 7    1  0.6105960E-006  0.8997422E+02  0.7818608E-02  0.1363657E+00
          2   -1    0    0  502    0  0.00000000000E+00  0.00000000000E+00  0.33038412952E+03  0.33038412952E+03  0.00000000000E+00 0. -1.
          1   -1    0    0  501    0 -0.00000000000E+00 -0.00000000000E+00 -0.10600396218E+04  0.10600396218E+04  0.00000000000E+00 0. -1.
         25    2    1    2    0    0  0.29818703150E+02  0.68186361800E+02 -0.13073542016E+02  0.14606143214E+03  0.12499795785E+03 0.  0.
          2    1    1    2  501    0 -0.78058001540E+02 -0.46578653780E+02 -0.97569136727E+03  0.97991645907E+03  0.00000000000E+00 0. -1.
          1    1    1    2  502    0  0.48239298390E+02 -0.21607708020E+02  0.25910941699E+03  0.26444586011E+03  0.00000000000E+00 0. -1.
         22    1    3    3    0    0  0.36100695236E+01  0.34551510075E+02  0.55403203124E+02  0.65393840435E+02  0.00000000000E+00 0.  1.
         22    1    3    3    0    0  0.26208633627E+02  0.33634851725E+02 -0.68476745140E+02  0.80667591709E+02  0.00000000000E+00 0.  1.
</event>
<event>
 7    1  0.6105960E-006  0.4494230E+02  0.7818608E-02  0.1519846E+00
          2   -1    0    0  502    0  0.00000000000E+00  0.00000000000E+00  0.16343983937E+04  0.16343983937E+04  0.00000000000E+00 0. -1.
          1   -1    0    0  501    0 -0.00000000000E+00 -0.00000000000E+00 -0.29223301658E+03  0.29223301658E+03  0.00000000000E+00 0. -1.
         25    2    1    2    0    0  0.33532526599E+02 -0.39345068683E+02  0.64183413069E+02  0.14972302269E+03  0.12500003296E+03 0.  0.
          2    1    1    2  501    0 -0.11089540398E+01  0.45015400724E+02 -0.24725222006E+03  0.25131907290E+03  0.00000000000E+00 0. -1.
          1    1    1    2  502    0 -0.32423572559E+02 -0.56703320414E+01  0.15252341841E+04  0.15255893147E+04  0.00000000000E+00 0. -1.
         22    1    3    3    0    0  0.79009240537E+02 -0.25262741514E+02  0.21279720781E+02  0.85635814445E+02  0.00000000000E+00 0.  1.
         22    1    3    3    0    0 -0.45476713938E+02 -0.14082327168E+02  0.42903692288E+02  0.64087208248E+02  0.00000000000E+00 0.  1.
</event>
<event>
 7    1  0.6105960E-006  0.1103037E+03  0.7818608E-02  0.1363713E+00
          2   -1    0    0  502    0  0.00000000000E+00  0.00000000000E+00  0.94349502475E+03  0.94349502475E+03  0.00000000000E+00 0. -1.
          1   -1    0    0  501    0 -0.00000000000E+00 -0.00000000000E+00 -0.15646207422E+03  0.15646207422E+03  0.00000000000E+00 0. -1.
         25    2    1    2    0    0  0.12162223884E+03 -0.66547149929E+02  0.19026875890E+03  0.26654740521E+03  0.12499930587E+03 0.  0.
          2    1    1    2  501    0 -0.10416521831E+03  0.27145520222E+02 -0.93028016120E+02  0.14227256853E+03  0.00000000000E+00 0. -1.
          1    1    1    2  502    0 -0.17457020524E+02  0.39401629707E+02  0.68979220775E+03  0.69113712523E+03  0.00000000000E+00 0. -1.
         22    1    3    3    0    0  0.78896628029E+02 -0.16880696339E+02  0.18595193249E+02  0.82797445825E+02  0.00000000000E+00 0. -1.
         22    1    3    3    0    0  0.42725610808E+02 -0.49666453591E+02  0.17167356565E+03  0.18374995938E+03  0.00000000000E+00 0. -1.
</event>
<event>
 7    1  0.6105960E-006  0.8492400E+02  0.7818608E-02  0.1350875E+00
          2   -1    0    0  502    0  0.00000000000E+00  0.00000000000E+00  0.53215253787E+03  0.53215253787E+03  0.00000000000E+00 0. -1.
          1   -1    0    0  501    0 -0.00000000000E+00 -0.00000000000E+00 -0.20640573008E+03  0.20640573008E+03  0.00000000000E+00 0. -1.
         25    2    1    2    0    0 -0.54991156601E+02 -0.10181193373E+03  0.14703234616E+02  0.17097128254E+03  0.12500118876E+03 0.  0.
          2    1    1    2  501    0  0.59786539848E+02  0.17795161252E+02 -0.11633419467E+03  0.13200281421E+03  0.00000000000E+00 0. -1.
          1    1    1    2  502    0 -0.47953832471E+01  0.84016772477E+02  0.42737776784E+03  0.43558417120E+03  0.00000000000E+00 0. -1.
         22    1    3    3    0    0 -0.35665227179E+02 -0.13066654902E+03  0.86817423205E+01  0.13572445657E+03  0.00000000000E+00 0.  1.
         22    1    3    3    0    0 -0.19325929422E+02  0.28854615287E+02  0.60214922953E+01  0.35246825969E+02  0.00000000000E+00 0.  1.
</event>
<event>
 7    1  0.6105960E-006  0.3851095E+02  0.7818608E-02  0.1555070E+00
          2   -1    0    0  502    0  0.00000000000E+00  0.00000000000E+00  0.78881357161E+03  0.78881357161E+03  0.00000000000E+00 0. -1.
          1   -1    0    0  501    0 -0.00000000000E+00 -0.00000000000E+00 -0.29548070171E+03  0.29548070171E+03  0.00000000000E+00 0. -1.
         25    2    1    2    0    0 -0.60029753373E+00 -0.17217375039E+02  0.65971023887E+03  0.67166901473E+03  0.12499947086E+03 0.  0.
          2    1    1    2  501    0  0.37993375804E+02 -0.62926083779E+01 -0.28419901577E+03  0.28679639832E+03  0.00000000000E+00 0. -1.
          1    1    1    2  502    0 -0.37393078271E+02  0.23509983417E+02  0.11782164679E+03  0.12582886027E+03  0.00000000000E+00 0. -1.
         22    1    3    3    0    0  0.38608078887E+02  0.38426135781E+01  0.68022041927E+02  0.78309307380E+02  0.00000000000E+00 0. -1.
         22    1    3    3    0    0 -0.39208376421E+02 -0.21059988618E+02  0.59168819694E+03  0.59335970735E+03  0.00000000000E+00 0. -1.
</event>
<event>
 7    1  0.6105960E-006  0.6293462E+02  0.7818608E-02  0.1416294E+00
          2   -1    0    0  502    0  0.00000000000E+00  0.00000000000E+00  0.10073797298E+04  0.10073797298E+04  0.00000000000E+00 0. -1.
          1   -1    0    0  501    0 -0.00000000000E+00 -0.00000000000E+00 -0.95792120177E+03  0.95792120177E+03  0.00000000000E+00 0. -1.
         25    2    1    2    0    0  0.14915477405E+02 -0.21832423296E+02  0.16290356561E+03  0.20703707517E+03  0.12501061008E+03 0.  0.
          2    1    1    2  501    0 -0.62608576949E+02  0.85918849568E+01 -0.93404103526E+03  0.93617643099E+03  0.00000000000E+00 0. -1.
          1    1    1    2  502    0  0.47693099544E+02  0.13240538339E+02  0.82059599772E+03  0.82208742544E+03  0.00000000000E+00 0. -1.
         22    1    3    3    0    0 -0.49962183062E+02 -0.33476748889E+02  0.94737360366E+02  0.11221443714E+03  0.00000000000E+00 0. -1.
         22    1    3    3    0    0  0.64877660468E+02  0.11644325593E+02  0.68166205247E+02  0.94822638036E+02  0.00000000000E+00 0. -1.
</event>
<event>
 7    1  0.6105960E-006  0.8837127E+02  0.7818608E-02  0.1374418E+00
          2   -1    0    0  502    0  0.00000000000E+00  0.00000000000E+00  0.15632717337E+04  0.15632717337E+04  0.00000000000E+00 0. -1.
          1   -1    0    0  501    0 -0.00000000000E+00 -0.00000000000E+00 -0.22405009025E+03  0.22405009025E+03  0.00000000000E+00 0. -1.
         25    2    1    2    0    0  0.15722807670E+02 -0.46064195115E+02  0.29939053152E+03  0.32806917378E+03  0.12500230265E+03 0.  0.
          2    1    1    2  501    0  0.39521037871E+02 -0.29343399382E+02 -0.20504562692E+03  0.21087118494E+03  0.00000000000E+00 0. -1.
          1    1    1    2  502    0 -0.55243845541E+02  0.75407594497E+02  0.12448767388E+04  0.12483814652E+04  0.00000000000E+00 0. -1.
         22    1    3    3    0    0  0.34942053447E+02  0.35195776921E+02  0.92361465338E+02  0.10483477520E+03  0.00000000000E+00 0.  1.
         22    1    3    3    0    0 -0.19219245778E+02 -0.81259972037E+02  0.20702906619E+03  0.22323439858E+03  0.00000000000E+00 0.  1.
</event>
<event>
 7    1  0.6105960E-006  0.9187046E+02  0.7818608E-02  0.1378933E+00
          2   -1    0    0  502    0  0.00000000000E+00  0.00000000000E+00  0.48012775318E+03  0.48012775318E+03  0.00000000000E+00 0. -1.
          1   -1    0    0  501    0 -0.00000000000E+00 -0.00000000000E+00 -0.29728365966E+03  0.29728365966E+03  0.00000000000E+00 0. -1.
         25    2    1    2    0    0 -0.65996569609E+02  0.89904753311E+02  0.25426901537E+03  0.30449232626E+03  0.12499773081E+03 0.  0.
          2    1    1    2  501    0 -0.80424866738E+01 -0.44914374381E+02 -0.26075026529E+03  0.26471245431E+03  0.00000000000E+00 0. -1.
          1    1    1    2  502    0  0.74039056283E+02 -0.44990378930E+02  0.18932534344E+03  0.20820663227E+03  0.00000000000E+00 0. -1.
         22    1    3    3    0    0 -0.52362199544E+02 -0.13502385670E+02  0.13842220602E+03  0.14860962782E+03  0.00000000000E+00 0.  1.
         22    1    3    3    0    0 -0.13634370065E+02  0.10340713898E+03  0.11584680935E+03  0.15588269845E+03  0.00000000000E+00 0.  1.
</event>
<event>
 7    1  0.6105960E-006  0.8817470E+02  0.7818608E-02  0.1451109E+00
          2   -1    0    0  502    0  0.00000000000E+00  0.00000000000E+00  0.31541848624E+03  0.31541848624E+03  0.00000000000E+00 0. -1.
          1   -1    0    0  501    0 -0.00000000000E+00 -0.00000000000E+00 -0.61951084007E+03  0.61951084007E+03  0.00000000000E+00 0. -1.
         25    2    1    2    0    0 -0.13487272699E+02 -0.11102860853E+03 -0.62806768759E+02  0.17910438937E+03  0.12499773459E+03 0.  0.
          2    1    1    2  501    0  0.19326272089E+02  0.84493063174E+02 -0.49405453007E+03  0.50159990152E+03  0.00000000000E+00 0. -1.
          1    1    1    2  502    0 -0.58389993901E+01  0.26535545361E+02  0.25276894500E+03  0.25422503543E+03  0.00000000000E+00 0. -1.
         22    1    3    3    0    0  0.42171011104E+02 -0.61401805577E+02  0.96728763544E+01  0.75114182699E+02  0.00000000000E+00 0. -1.
         22    1    3    3    0    0 -0.55658283803E+02 -0.49626802958E+02 -0.72479645113E+02  0.10399020667E+03  0.00000000000E+00 0. -1.
</event>
<event>
 7    1  0.6105960E-006  0.5944403E+02  0.7818608E-02  0.1408023E+00
          2   -1    0    0  502    0  0.00000000000E+00  0.00000000000E+00  0.36589481648E+02  0.36589481648E+02  0.00000000000E+00 0. -1.
          1   -1    0    0  501    0 -0.00000000000E+00 -0.00000000000E+00 -0.12423355604E+04  0.12423355604E+04  0.00000000000E+00 0. -1.
         25    2    1    2    0    0  0.13781551117E+02 -0.49851698204E+02 -0.90883322895E+03  0.91884941832E+03  0.12502516761E+03 0.  0.
          2    1    1    2  501    0 -0.55561875520E+02  0.60067679706E+01 -0.29418952438E+03  0.29945062954E+03  0.00000000000E+00 0. -1.
          1    1    1    2  502    0  0.41780324403E+02  0.43844930233E+02 -0.27233253739E+01  0.60624994148E+02  0.00000000000E+00 0. -1.
         22    1    3    3    0    0 -0.25832133105E+02 -0.62154272739E+02 -0.79229908303E+03  0.79515299766E+03  0.00000000000E+00 0.  1.
         22    1    3    3    0    0  0.39613684222E+02  0.12302574535E+02 -0.11653414592E+03  0.12369642066E+03  0.00000000000E+00 0.  1.
</event>
<event>
 7    1  0.6105960E-006  0.1728612E+03  0.7818608E-02  0.1378677E+00
          2   -1    0    0  502    0  0.00000000000E+00  0.00000000000E+00  0.20711799829E+04  0.20711799829E+04  0.00000000000E+00 0. -1.
          1   -1    0    0  501    0 -0.00000000000E+00 -0.00000000000E+00 -0.30703922061E+03  0.30703922061E+03  0.00000000000E+00 0. -1.
         25    2    1    2    0    0  0.16742454096E+03  0.38565491997E+02  0.39345336044E+02  0.21608187181E+03  0.12500018307E+03 0.  0.
          2    1    1    2  501    0 -0.59847773212E+01  0.23552480877E+02 -0.21413336861E+03  0.21550785709E+03  0.00000000000E+00 0. -1.
          1    1    1    2  502    0 -0.16143976364E+03 -0.62117972874E+02  0.19389287949E+04  0.19466294746E+04  0.00000000000E+00 0. -1.
         22    1    3    3    0    0  0.84216027330E+02  0.74826694320E+02 -0.94126117544E+01  0.11304853251E+03  0.00000000000E+00 0.  1.
         22    1    3    3    0    0  0.83208513634E+02 -0.36261202323E+02  0.48757947798E+02  0.10303333931E+03  0.00000000000E+00 0.  1.
</event>
<event>
 7    1  0.6105960E-006  0.6531320E+02  0.7818608E-02  0.1463965E+00
          2   -1    0    0  502    0  0.00000000000E+00  0.00000000000E+00  0.48073735400E+03  0.48073735400E+03  0.00000000000E+00 0. -1.
          1   -1    0    0  501    0 -0.00000000000E+00 -0.00000000000E+00 -0.73725547848E+03  0.73725547848E+03  0.00000000000E+00 0. -1.
         25    2    1    2    0    0 -0.88774871449E+01 -0.66786026709E+02 -0.62385281426E+02  0.15509933561E+03  0.12499878970E+03 0.  0.
          2    1    1    2  501    0 -0.30196309612E+02  0.14273109497E+02 -0.62559937472E+03  0.62649031630E+03  0.00000000000E+00 0. -1.
          1    1    1    2  502    0  0.39073796757E+02  0.52512917212E+02  0.43146653166E+03  0.43640318057E+03  0.00000000000E+00 0. -1.
         22    1    3    3    0    0 -0.42991674302E+02 -0.86451162078E+02 -0.22678484495E+02  0.99178632492E+02  0.00000000000E+00 0.  1.
         22    1    3    3    0    0  0.34114187157E+02  0.19665135369E+02 -0.39706796932E+02  0.55920703117E+02  0.00000000000E+00 0.  1.
</event>
<event>
 7    1  0.6105960E-006  0.5561915E+02  0.7818608E-02  0.1460600E+00
          2   -1    0    0  502    0  0.00000000000E+00  0.00000000000E+00  0.83769704123E+03  0.83769704123E+03  0.00000000000E+00 0. -1.
          1   -1    0    0  501    0 -0.00000000000E+00 -0.00000000000E+00 -0.27931051450E+03  0.27931051450E+03  0.00000000000E+00 0. -1.
         25    2    1    2    0    0 -0.76935051892E+02  0.18098975348E+02  0.48693421231E+03  0.50890078144E+03  0.12501401166E+03 0.  0.
          2    1    1    2  501    0  0.36897570962E+02  0.15927004675E+02 -0.26477051512E+03  0.26780314766E+03  0.00000000000E+00 0. -1.
          1    1    1    2  502    0  0.40037480929E+02 -0.34025980024E+02  0.33622282954E+03  0.34030362663E+03  0.00000000000E+00 0. -1.
         22    1    3    3    0    0 -0.81639196302E+02 -0.26416695665E+02  0.41793904609E+03  0.42665659075E+03  0.00000000000E+00 0. -1.
         22    1    3    3    0    0  0.47041444104E+01  0.44515671013E+02  0.68995166222E+02  0.82244190691E+02  0.00000000000E+00 0. -1.
</event>
<event>
 7    1  0.6105960E-006  0.1277043E+03  0.7818608E-02  0.1361104E+00
          2   -1    0    0  502    0  0.00000000000E+00  0.00000000000E+00  0.63522623700E+03  0.63522623700E+03  0.00000000000E+00 0. -1.
          1   -1    0    0  501    0 -0.00000000000E+00 -0.00000000000E+00 -0.11720939661E+03  0.11720939661E+03  0.00000000000E+00 0. -1.
         25    2    1    2    0    0 -0.48592787722E+02  0.99841694524E+02  0.85098024006E+02  0.18760700465E+03  0.12500036609E+03 0.  0.
          2    1    1    2  501    0  0.24543851582E+02  0.29070010167E+02 -0.50903169512E+02  0.63549970951E+02  0.00000000000E+00 0. -1.
          1    1    1    2  502    0  0.24048936139E+02 -0.12891170469E+03  0.48382198589E+03  0.50127865800E+03  0.00000000000E+00 0. -1.
         22    1    3    3    0    0  0.11721306262E+02  0.56097769552E+02  0.96497886681E+02  0.11223275325E+03  0.00000000000E+00 0. -1.
         22    1    3    3    0    0 -0.60314093984E+02  0.43743924973E+02 -0.11399862675E+02  0.75374251400E+02  0.00000000000E+00 0. -1.
</event>
<event>
 7    1  0.6105960E-006  0.1196797E+03  0.7818608E-02  0.1262055E+00
          2   -1    0    0  502    0  0.00000000000E+00  0.00000000000E+00  0.15355460252E+04  0.15355460252E+04  0.00000000000E+00 0. -1.
          1   -1    0    0  501    0 -0.00000000000E+00 -0.00000000000E+00 -0.50268277602E+02  0.50268277602E+02  0.00000000000E+00 0. -1.
         25    2    1    2    0    0  0.16957946249E+02 -0.28134579503E+02  0.37136009993E+03  0.39320714325E+03  0.12499762869E+03 0.  0.
          2    1    1    2  501    0  0.83830771845E+02  0.92670397638E+02  0.72774940204E+02  0.14460841202E+03  0.00000000000E+00 0. -1.
          1    1    1    2  502    0 -0.10078871809E+03 -0.64535818136E+02  0.10411427075E+04  0.10479987475E+04  0.00000000000E+00 0. -1.
         22    1    3    3    0    0 -0.86123703819E+01 -0.16733320974E+02  0.36369263707E+03  0.36417922952E+03  0.00000000000E+00 0. -1.
         22    1    3    3    0    0  0.25570316631E+02 -0.11401258529E+02  0.76674628562E+01  0.29027913726E+02  0.00000000000E+00 0. -1.
</event>
<event>
 7    1  0.6105960E-006  0.2141090E+03  0.7818608E-02  0.1303025E+00
          2   -1    0    0  502    0  0.00000000000E+00  0.00000000000E+00  0.18623893606E+03  0.18623893606E+03  0.00000000000E+00 0. -1.
          1   -1    0    0  501    0 -0.00000000000E+00 -0.00000000000E+00 -0.82116374191E+03  0.82116374191E+03  0.00000000000E+00 0. -1.
         25    2    1    2    0    0 -0.18386960905E+03 -0.93790733320E+02 -0.43728612540E+03  0.49944878401E+03  0.12500079036E+03 0.  0.
          2    1    1    2  501    0  0.21320718855E+03  0.70001053135E+02 -0.31381352961E+03  0.38579318819E+03  0.00000000000E+00 0. -1.
          1    1    1    2  502    0 -0.29337579502E+02  0.23789680185E+02  0.11617484917E+03  0.12216070577E+03  0.00000000000E+00 0. -1.
         22    1    3    3    0    0 -0.96805538206E+02 -0.16353495079E+02 -0.90183532487E+02  0.13331098440E+03  0.00000000000E+00 0. -1.
         22    1    3    3    0    0 -0.87064070840E+02 -0.77437238240E+02 -0.34710259292E+03  0.36613779962E+03  0.00000000000E+00 0. -1.
</event>
<event>
 7    1  0.6105960E-006  0.9464829E+02  0.7818608E-02  0.1356887E+00
          2   -1    0    0  502    0  0.00000000000E+00  0.00000000000E+00  0.63877834130E+03  0.63877834130E+03  0.00000000000E+00 0. -1.
          1   -1    0    0  501    0 -0.00000000000E+00 -0.00000000000E+00 -0.13947371987E+03  0.13947371987E+03  0.00000000000E+00 0. -1.
         25    2    1    2    0    0 -0.52096209453E+02 -0.35319344588E+02  0.29557677729E+03  0.32703322914E+03  0.12499452207E+03 0.  0.
          2    1    1    2  501    0 -0.48239315549E+02 -0.22402406314E+02 -0.10707658459E+03  0.11955874849E+03  0.00000000000E+00 0. -1.
          1    1    1    2  502    0  0.10033552500E+03  0.57721750902E+02  0.31080442873E+03  0.33166008355E+03  0.00000000000E+00 0. -1.
         22    1    3    3    0    0 -0.80792309117E+01 -0.52661260031E+02  0.26590158706E+03  0.27118653410E+03  0.00000000000E+00 0. -1.
         22    1    3    3    0    0 -0.44016978542E+02  0.17341915442E+02  0.29675190230E+02  0.55846695035E+02  0.00000000000E+00 0. -1.
</event>
<event>
 7    1  0.6105960E-006  0.1732619E+03  0.7818608E-02  0.1298266E+00
          2   -1    0    0  502    0  0.00000000000E+00  0.00000000000E+00  0.20245979967E+04  0.20245979967E+04  0.00000000000E+00 0. -1.
          1   -1    0    0  501    0 -0.00000000000E+00 -0.00000000000E+00 -0.28996623049E+03  0.28996623049E+03  0.00000000000E+00 0. -1.
         25    2    1    2    0    0 -0.14521799397E+02 -0.14422114907E+03 -0.13050676669E+03  0.23165962519E+03  0.12499417305E+03 0.  0.
          2    1    1    2  501    0  0.40029578616E+02 -0.27853470171E+02 -0.99379494833E+02  0.11069989593E+03  0.00000000000E+00 0. -1.
          1    1    1    2  502    0 -0.25507779219E+02  0.17207461924E+03  0.19645180277E+04  0.19722047061E+04  0.00000000000E+00 0. -1.
         22    1    3    3    0    0 -0.46031015013E+02 -0.75645637448E+01 -0.12292708616E+02  0.48240933376E+02  0.00000000000E+00 0.  1.
         22    1    3    3    0    0  0.31509215616E+02 -0.13665658532E+03 -0.11821405807E+03  0.18341869181E+03  0.00000000000E+00 0.  1.
</event>
<event>
 7    1  0.6105960E-006  0.1778945E+03  0.7818608E-02  0.1235872E+00
          2   -1    0    0  502    0  0.00000000000E+00  0.00000000000E+00  0.61471678572E+03  0.61471678572E+03  0.00000000000E+00 0. -1.
          1   -1    0    0  501    0 -0.00000000000E+00 -0.00000000000E+00 -0.66697431266E+03  0.66697431266E+03  0.00000000000E+00 0. -1.
         25    2    1    2    0    0  0.20358080375E+03 -0.68821081112E+02 -0.41978203375E+02  0.25212793654E+03  0.12499936786E+03 0.  0.
          2    1    1    2  501    0 -0.72575942620E+02 -0.48183492911E+02 -0.50091513968E+03  0.50843376521E+03  0.00000000000E+00 0. -1.
          1    1    1    2  502    0 -0.13100486113E+03  0.11700457402E+03  0.49063581611E+03  0.52112939663E+03  0.00000000000E+00 0. -1.
         22    1    3    3    0    0  0.34548102156E+02  0.35826860097E+02 -0.10062681589E+02  0.50777877346E+02  0.00000000000E+00 0.  1.
         22    1    3    3    0    0  0.16903270159E+03 -0.10464794121E+03 -0.31915521785E+02  0.20135005920E+03  0.00000000000E+00 0.  1.
</event>
<event>
 7    1  0.6105960E-006  0.6349157E+02  0.7818608E-02  0.1426921E+00
          2   -1    0    0  502    0  0.00000000000E+00  0.00000000000E+00  0.15532562432E+04  0.15532562432E+04  0.00000000000E+00 0. -1.
          1   -1    0    0  501    0 -0.00000000000E+00 -0.00000000000E+00 -0.11970880486E+03  0.11970880486E+03  0.00000000000E+00 0. -1.
         25    2    1    2    0    0  0.17342310523E+02 -0.12993978286E+02  0.21222124210E+03  0.24724553899E+03  0.12499160671E+03 0.  0.
          2    1    1    2  501    0  0.44297392962E+02 -0.90914951668E+01 -0.96341236643E+02  0.10642625703E+03  0.00000000000E+00 0. -1.
          1    1    1    2  502    0 -0.61639703485E+02  0.22085473452E+02  0.13176674329E+04  0.13192932521E+04  0.00000000000E+00 0. -1.
         22    1    3    3    0    0 -0.53339615478E+02 -0.14702289905E+02  0.10730589091E+03  0.12073038612E+03  0.00000000000E+00 0.  1.
         22    1    3    3    0    0  0.70681926001E+02  0.17083116189E+01  0.10491535119E+03  0.12651515288E+03  0.00000000000E+00 0.  1.
</event>
<event>
 7    1  0.6105960E-006  0.1165250E+03  0.7818608E-02  0.1430842E+00
          2   -1    0    0  502    0  0.00000000000E+00  0.00000000000E+00  0.16914212753E+04  0.16914212753E+04  0.00000000000E+00 0. -1.
          1   -1    0    0  501    0 -0.00000000000E+00 -0.00000000000E+00 -0.93915659467E+03  0.93915659467E+03  0.00000000000E+00 0. -1.
         25    2    1    2    0    0 -0.51276312393E+01  0.13302324305E+03  0.38721713999E+03  0.42811634530E+03  0.12500006328E+03 0.  0.
          2    1    1    2  501    0  0.20367178258E+02 -0.11459020000E+03 -0.91490873976E+03  0.92228181049E+03  0.00000000000E+00 0. -1.
          1    1    1    2  502    0 -0.15239547019E+02 -0.18433043046E+02  0.12799562804E+04  0.12801797142E+04  0.00000000000E+00 0. -1.
         22    1    3    3    0    0 -0.32463365688E+02  0.47880689560E+02  0.41952413805E+02  0.71459328072E+02  0.00000000000E+00 0. -1.
         22    1    3    3    0    0  0.27335734448E+02  0.85142553487E+02  0.34526472618E+03  0.35665701723E+03  0.00000000000E+00 0. -1.
</event>
<event>
 7    1  0.6105960E-006  0.2723199E+03  0.7818608E-02  0.1235200E+00
          2   -1    0    0  502    0  0.00000000000E+00  0.00000000000E+00  0.31089912000E+04  0.31089912000E+04  0.00000000000E+00 0. -1.
          1   -1    0    0  501    0 -0.00000000000E+00 -0.00000000000E+00 -0.27316854405E+03  0.27316854405E+03  0.00000000000E+00 0. -1.
         25    2    1    2    0    0 -0.26991044490E+03 -0.89577684525E+02  0.14389618498E+04  0.14721113843E+04  0.12499965064E+03 0.  0.
          2    1    1    2  501    0  0.23577876645E+03  0.13560387069E+03 -0.18384959240E+03  0.32829972446E+03  0.00000000000E+00 0. -1.
          1    1    1    2  502    0  0.34131678450E+02 -0.46026186162E+02  0.15807103985E+04  0.15817486353E+04  0.00000000000E+00 0. -1.
         22    1    3    3    0    0 -0.19605702496E+03 -0.41628431561E+01  0.98365375079E+03  0.10030106618E+04  0.00000000000E+00 0. -1.
         22    1    3    3    0    0 -0.73853419943E+02 -0.85414841369E+02  0.45530809906E+03  0.46910072248E+03  0.00000000000E+00 0. -1.
</event>
<event>
 7    1  0.6105960E-006  0.1599433E+03  0.7818608E-02  0.1232757E+00
          2   -1    0    0  502    0  0.00000000000E+00  0.00000000000E+00  0.64888704855E+03  0.64888704855E+03  0.00000000000E+00 0. -1.
          1   -1    0    0  501    0 -0.00000000000E+00 -0.00000000000E+00 -0.22886089005E+03  0.22886089005E+03  0.00000000000E+00 0. -1.
         25    2    1    2    0    0  0.11716171975E+03  0.16955718420E+02  0.20956494328E+03  0.27121291012E+03  0.12499844880E+03 0.  0.
          2    1    1    2  501    0 -0.15093323726E+03  0.77206839112E+02 -0.15372983334E+03  0.22885497542E+03  0.00000000000E+00 0. -1.
          1    1    1    2  502    0  0.33771517510E+02 -0.94162557532E+02  0.36419104856E+03  0.37768005307E+03  0.00000000000E+00 0. -1.
         22    1    3    3    0    0  0.11615094993E+03  0.41860003893E+01  0.22372782715E+03  0.25211645406E+03  0.00000000000E+00 0.  1.
         22    1    3    3    0    0  0.10107698225E+01  0.12769718030E+02 -0.14162883873E+02  0.19096456054E+02  0.00000000000E+00 0.  1.
</event>
<event>
 7    1  0.6105960E-006  0.7187446E+02  0.7818608E-02  0.1460177E+00
          2   -1    0    0  502    0  0.00000000000E+00  0.00000000000E+00  0.12576018183E+03  0.12576018183E+03  0.00000000000E+00 0. -1.
          1   -1    0    0  501    0 -0.00000000000E+00 -0.00000000000E+00 -0.77449254889E+03  0.77449254889E+03  0.00000000000E+00 0. -1.
         25    2    1    2    0    0  0.53444075836E+02 -0.20813926729E+02 -0.19550501409E+03  0.23903194497E+03  0.12499828556E+03 0.  0.
          2    1    1    2  501    0 -0.73964070275E+02 -0.26817975552E+01 -0.55235961835E+03  0.55729617235E+03  0.00000000000E+00 0. -1.
          1    1    1    2  502    0  0.20519994439E+02  0.23495724284E+02  0.99132265379E+02  0.10392461340E+03  0.00000000000E+00 0. -1.
         22    1    3    3    0    0 -0.22818209039E+02  0.83859326134E+01 -0.13558030854E+03  0.13774256638E+03  0.00000000000E+00 0.  1.
         22    1    3    3    0    0  0.76262284875E+02 -0.29199859342E+02 -0.59924705554E+02  0.10128937859E+03  0.00000000000E+00 0.  1.
</event>
<event>
 7    1  0.6105960E-006  0.7425515E+02  0.7818608E-02  0.1356222E+00
          2   -1    0    0  502    0  0.00000000000E+00  0.00000000000E+00  0.18416892568E+03  0.18416892568E+03  0.00000000000E+00 0. -1.
          1   -1    0    0  501    0 -0.00000000000E+00 -0.00000000000E+00 -0.78052696908E+03  0.78052696908E+03  0.00000000000E+00 0. -1.
         25    2    1    2    0    0  0.85751564233E+01  0.12462273837E+02  0.23061438947E+02  0.12800783278E+03  0.12500133483E+03 0.  0.
          2    1    1    2  501    0  0.70762293596E+02  0.22506096309E+02 -0.70849952058E+03  0.71238009323E+03  0.00000000000E+00 0. -1.
          1    1    1    2  502    0 -0.79337450019E+02 -0.34968370146E+02  0.89080038234E+02  0.12430796876E+03  0.00000000000E+00 0. -1.
         22    1    3    3    0    0  0.38752860231E+02 -0.37730886136E+02 -0.17407780201E+02  0.56819316753E+02  0.00000000000E+00 0.  1.
         22    1    3    3    0    0 -0.30177703808E+02  0.50193159973E+02  0.40469219148E+02  0.71188516024E+02  0.00000000000E+00 0.  1.
</event>
<event>
 7    1  0.6105960E-006  0.4364586E+02  0.7818608E-02  0.1495714E+00
          2   -1    0    0  502    0  0.00000000000E+00  0.00000000000E+00  0.11188252522E+04  0.11188252522E+04  0.00000000000E+00 0. -1.
          1   -1    0    0  501    0 -0.00000000000E+00 -0.00000000000E+00 -0.36941699485E+02  0.36941699485E+02  0.00000000000E+00 0. -1.
         25    2    1    2    0    0  0.79603168701E+02 -0.18020196803E+02  0.42228787673E+03  0.44789837615E+03  0.12499805025E+03 0.  0.
          2    1    1    2  501    0 -0.39187959579E+02  0.76972797639E+01 -0.65050377244E+01  0.40463067204E+02  0.00000000000E+00 0. -1.
          1    1    1    2  502    0 -0.40415209121E+02  0.10322917039E+02  0.66610071375E+03  0.66740550837E+03  0.00000000000E+00 0. -1.
         22    1    3    3    0    0  0.10634063713E+03  0.70063242643E+01  0.36197672161E+03  0.37733879561E+03  0.00000000000E+00 0. -1.
         22    1    3    3    0    0 -0.26737468424E+02 -0.25026521068E+02  0.60311155119E+02  0.70559580542E+02  0.00000000000E+00 0. -1.
</event>
<event>
 7    1  0.9439316E-006  0.8115090E+02  0.7818608E-02  0.1400955E+00
          2   -1    0    0  502    0  0.00000000000E+00  0.00000000000E+00  0.22584644188E+04  0.22584644188E+04  0.00000000000E+00 0. -1.
          1   -1    0    0  501    0 -0.00000000000E+00 -0.00000000000E+00 -0.57819526078E+03  0.57819526078E+03  0.00000000000E+00 0. -1.
         25    2    1    2    0    0  0.44970282411E+02  0.40101815757E+02 -0.10813655891E+03  0.17592113924E+03  0.12499699968E+03 0.  0.
          2    1    1    2  501    0 -0.21288859954E+02  0.37679116889E+02 -0.43434778481E+03  0.43649848748E+03  0.00000000000E+00 0. -1.
          1    1    1    2  502    0 -0.23681422457E+02 -0.77780932646E+02  0.22227535018E+04  0.22242400529E+04  0.00000000000E+00 0. -1.
         22    1    3    3    0    0  0.74400912289E+01  0.79405795271E+02 -0.85865907791E+02  0.11719039807E+03  0.00000000000E+00 0.  1.
         22    1    3    3    0    0  0.37530191183E+02 -0.39303979514E+02 -0.22270651122E+02  0.58730741160E+02  0.00000000000E+00 0.  1.
</event>
<event>
 7    1  0.6105960E-006  0.6924310E+02  0.7818608E-02  0.1476032E+00
          2   -1    0    0  502    0  0.00000000000E+00  0.00000000000E+00  0.54843711076E+03  0.54843711076E+03  0.00000000000E+00 0. -1.
          1   -1    0    0  501    0 -0.00000000000E+00 -0.00000000000E+00 -0.45279634962E+02  0.45279634962E+02  0.00000000000E+00 0. -1.
         25    2    1    2    0    0 -0.11673157463E+02 -0.80207727951E+02  0.19909998040E+03  0.24866442909E+03  0.12499461537E+03 0.  0.
          2    1    1    2  501    0 -0.13383825134E+02  0.65817305854E+02  0.37481658239E+02  0.76915013031E+02  0.00000000000E+00 0. -1.
          1    1    1    2  502    0  0.25056982596E+02  0.14390422097E+02  0.26657583715E+03  0.26813730359E+03  0.00000000000E+00 0. -1.
         22    1    3    3    0    0 -0.22933467847E+02  0.43214933054E+00 -0.94313700789E+01  0.24800835512E+02  0.00000000000E+00 0. -1.
         22    1    3    3    0    0  0.11260310384E+02 -0.80639877281E+02  0.20853135048E+03  0.22386359358E+03  0.00000000000E+00 0. -1.
</event>
<event>
 7    1  0.6105960E-006  0.4288903E+02  0.7818608E-02  0.1494553E+00
          2   -1    0    0  502    0  0.00000000000E+00  0.00000000000E+00  0.86826407633E+03  0.86826407633E+03  0.00000000000E+00 0. -1.
          1   -1    0    0  501    0 -0.00000000000E+00 -0.00000000000E+00 -0.98502631390E+02  0.98502631390E+02  0.00000000000E+00 0. -1.
         25    2    1    2    0    0  0.74878513730E+02  0.27567816734E+02  0.40088680295E+03  0.42743764434E+03  0.12500373866E+03 0.  0.
          2    1    1    2  501    0 -0.33963118854E+02 -0.25474059549E+02 -0.78946395757E+02  0.89637908026E+02  0.00000000000E+00 0. -1.
          1    1    1    2  502    0 -0.40915394876E+02 -0.20937571846E+01  0.44782103775E+03  0.44969115536E+03  0.00000000000E+00 0. -1.
         22    1    3    3    0    0  0.82766570417E+02 -0.21823371369E+02  0.16045193762E+03  0.18185540686E+03  0.00000000000E+00 0. -1.
         22    1    3    3    0    0 -0.78880566869E+01  0.49391188102E+02  0.24043486533E+03  0.24558223748E+03  0.00000000000E+00 0. -1.
</event>
<event>
 7    1  0.6105960E-006  0.5364160E+02  0.7818608E-02  0.1484940E+00
          2   -1    0    0  502    0  0.00000000000E+00  0.00000000000E+00  0.44087676261E+03  0.44087676261E+03  0.00000000000E+00 0. -1.
          1   -1    0    0  501    0 -0.00000000000E+00 -0.00000000000E+00 -0.20084026426E+04  0.20084026426E+04  0.00000000000E+00 0. -1.
         25    2    1    2    0    0 -0.10120691188E+01  0.32937678698E+02  0.15050902313E+03  0.19840711832E+03  0.12500601423E+03 0.  0.
          2    1    1    2  501    0  0.35200194182E+02 -0.40554304015E+02 -0.19829372901E+04  0.19836642865E+04  0.00000000000E+00 0. -1.
          1    1    1    2  502    0 -0.34188125063E+02  0.76166253165E+01  0.26490238693E+03  0.26720800040E+03  0.00000000000E+00 0. -1.
         22    1    3    3    0    0  0.74308432337E+01  0.79542360007E+02  0.76966276834E+02  0.11093246701E+03  0.00000000000E+00 0.  1.
         22    1    3    3    0    0 -0.84429123525E+01 -0.46604681309E+02  0.73542746296E+02  0.87474651309E+02  0.00000000000E+00 0.  1.
</event>
<event>
 7    1  0.6105960E-006  0.6885298E+02  0.7818608E-02  0.1440300E+00
          2   -1    0    0  502    0  0.00000000000E+00  0.00000000000E+00  0.41554556080E+03  0.41554556080E+03  0.00000000000E+00 0. -1.
          1   -1    0    0  501    0 -0.00000000000E+00 -0.00000000000E+00 -0.34841796383E+03  0.34841796383E+03  0.00000000000E+00 0. -1.
         25    2    1    2    0    0  0.10339785595E+03  0.22402130259E+02  0.22018760141E+03  0.27441286452E+03  0.12500747316E+03 0.  0.
          2    1    1    2  501    0 -0.66012140779E+02 -0.17563120636E+02 -0.31549166825E+03  0.32280188765E+03  0.00000000000E+00 0. -1.
          1    1    1    2  502    0 -0.37385715168E+02 -0.48390096230E+01  0.16243166380E+03  0.16674877246E+03  0.00000000000E+00 0. -1.
         22    1    3    3    0    0  0.76176632173E+02 -0.11242923286E+01  0.22552007986E+03  0.23804085729E+03  0.00000000000E+00 0. -1.
         22    1    3    3    0    0  0.27221223773E+02  0.23526422587E+02 -0.53324784469E+01  0.36372007229E+02  0.00000000000E+00 0. -1.
</event>
<event>
 7    1  0.6105960E-006  0.4512840E+02  0.7818608E-02  0.1519148E+00
          2   -1    0    0  502    0  0.00000000000E+00  0.00000000000E+00  0.56524066111E+03  0.56524066111E+03  0.00000000000E+00 0. -1.
          1   -1    0    0  501    0 -0.00000000000E+00 -0.00000000000E+00 -0.24856266513E+04  0.24856266513E+04  0.00000000000E+00 0. -1.
         25    2    1    2    0    0 -0.37328240736E+02  0.57179300558E+02  0.13380684317E+03  0.19543010744E+03  0.12500314254E+03 0.  0.
          2    1    1    2  501    0  0.69017851549E+01 -0.44575727138E+02 -0.24539305693E+04  0.24543450998E+04  0.00000000000E+00 0. -1.
          1    1    1    2  502    0  0.30426455581E+02 -0.12603573421E+02  0.39973773595E+03  0.40109210514E+03  0.00000000000E+00 0. -1.
         22    1    3    3    0    0  0.14455697197E+02 -0.34280715256E+02  0.38736939221E+02  0.53709264379E+02  0.00000000000E+00 0.  1.
         22    1    3    3    0    0 -0.51783937933E+02  0.91460015815E+02  0.95069903944E+02  0.14172084306E+03  0.00000000000E+00 0.  1.
</event>
<event>
 7    1  0.6105960E-006  0.7240997E+02  0.7818608E-02  0.1447590E+00
          2   -1    0    0  502    0  0.00000000000E+00  0.00000000000E+00  0.22025976718E+03  0.22025976718E+03  0.00000000000E+00 0. -1.
          1   -1    0    0  501    0 -0.00000000000E+00 -0.00000000000E+00 -0.10275791604E+04  0.10275791604E+04  0.00000000000E+00 0. -1.
         25    2    1    2    0    0  0.35113101986E+02  0.74158246499E+02 -0.57848088991E+03  0.59749274724E+03  0.12500027025E+03 0.  0.
          2    1    1    2  501    0  0.20109080966E+02 -0.27360590343E+02 -0.43269232112E+03  0.43402260517E+03  0.00000000000E+00 0. -1.
          1    1    1    2  502    0 -0.55222182952E+02 -0.46797656155E+02  0.20385381784E+03  0.21632357514E+03  0.00000000000E+00 0. -1.
         22    1    3    3    0    0  0.40737848077E+02  0.43695402799E+02 -0.55604189013E+03  0.55924184756E+03  0.00000000000E+00 0.  1.
         22    1    3    3    0    0 -0.56247460916E+01  0.30462843700E+02 -0.22438999782E+02  0.38250899677E+02  0.00000000000E+00 0.  1.
</event>
<event>
 7    1  0.6105960E-006  0.1441750E+03  0.7818608E-02  0.1280194E+00
          2   -1    0    0  502    0  0.00000000000E+00  0.00000000000E+00  0.25821893686E+04  0.25821893686E+04  0.00000000000E+00 0. -1.
          1   -1    0    0  501    0 -0.00000000000E+00 -0.00000000000E+00 -0.17500071389E+04  0.17500071389E+04  0.00000000000E+00 0. -1.
         25    2    1    2    0    0 -0.73249614605E+02 -0.11308319303E+03  0.81262318781E+03  0.83314744585E+03  0.12499962632E+03 0.  0.
          2    1    1    2  501    0  0.58672159372E+02 -0.37118405632E+02 -0.17358136989E+04  0.17372015990E+04  0.00000000000E+00 0. -1.
          1    1    1    2  502    0  0.14577455233E+02  0.15020159866E+03  0.17553727408E+04  0.17618474626E+04  0.00000000000E+00 0. -1.
         22    1    3    3    0    0 -0.34789196336E+02 -0.13233143568E+03  0.68315214838E+03  0.69671999748E+03  0.00000000000E+00 0. -1.
         22    1    3    3    0    0 -0.38460418270E+02  0.19248242656E+02  0.12947103943E+03  0.13642744837E+03  0.00000000000E+00 0. -1.
</event>
<event>
 7    1  0.6105960E-006  0.6813822E+02  0.7818608E-02  0.1379087E+00
          2   -1    0    0  502    0  0.00000000000E+00  0.00000000000E+00  0.13719161901E+04  0.13719161901E+04  0.00000000000E+00 0. -1.
          1   -1    0    0  501    0 -0.00000000000E+00 -0.00000000000E+00 -0.14439864533E+04  0.14439864533E+04  0.00000000000E+00 0. -1.
         25    2    1    2    0    0 -0.23942562688E+02 -0.34435358491E+02 -0.29328466836E+02  0.13507024211E+03  0.12499908446E+03 0.  0.
          2    1    1    2  501    0  0.68479340266E+02 -0.78938176027E+01 -0.13601982988E+04  0.13619438845E+04  0.00000000000E+00 0. -1.
          1    1    1    2  502    0 -0.44536777579E+02  0.42329176093E+02  0.13174565025E+04  0.13188885168E+04  0.00000000000E+00 0. -1.
         22    1    3    3    0    0  0.28687452533E+01 -0.63429721722E+02 -0.58214710864E+02  0.86142392920E+02  0.00000000000E+00 0. -1.
         22    1    3    3    0    0 -0.26811307941E+02  0.28994363231E+02  0.28886244028E+02  0.48927849194E+02  0.00000000000E+00 0. -1.
</event>
<event>
 7    1  0.6105960E-006  0.7010860E+02  0.7818608E-02  0.1431374E+00
          2   -1    0    0  502    0  0.00000000000E+00  0.00000000000E+00  0.28074313730E+04  0.28074313730E+04  0.00000000000E+00 0. -1.
          1   -1    0    0  501    0 -0.00000000000E+00 -0.00000000000E+00 -0.28385410925E+02  0.28385410925E+02  0.00000000000E+00 0. -1.
         25    2    1    2    0    0  0.71204082389E+02 -0.65245594922E+02  0.25759411193E+03  0.30217076091E+03  0.12500173295E+03 0.  0.
          2    1    1    2  501    0 -0.40315352714E+02  0.40478588089E+02  0.13159329186E+03  0.14345953513E+03  0.00000000000E+00 0. -1.
          1    1    1    2  502    0 -0.30888729675E+02  0.24767006833E+02  0.23898585583E+04  0.23901864879E+04  0.00000000000E+00 0. -1.
         22    1    3    3    0    0  0.47401201025E+02  0.96900734275E+00  0.15226738740E+02  0.49796248920E+02  0.00000000000E+00 0. -1.
         22    1    3    3    0    0  0.23802881365E+02 -0.66214602265E+02  0.24236737319E+03  0.25237451199E+03  0.00000000000E+00 0. -1.
</event>
<event>
 7    1  0.6105960E-006  0.4306547E+02  0.7818608E-02  0.1558966E+00
          2   -1    0    0  502    0  0.00000000000E+00  0.00000000000E+00  0.83647993128E+03  0.83647993128E+03  0.00000000000E+00 0. -1.
          1   -1    0    0  501    0 -0.00000000000E+00 -0.00000000000E+00 -0.51329620354E+03  0.51329620354E+03  0.00000000000E+00 0. -1.
         25    2    1    2    0    0 -0.53889796156E+02 -0.18758884888E+02  0.24416258888E+03  0.28017154996E+03  0.12499888682E+03 0.  0.
          2    1    1    2  501    0  0.23932402618E+02 -0.11660280730E+02 -0.49413946634E+03  0.49485607427E+03  0.00000000000E+00 0. -1.
          1    1    1    2  502    0  0.29957393538E+02  0.30419165618E+02  0.57316060520E+03  0.57474851058E+03  0.00000000000E+00 0. -1.
         22    1    3    3    0    0 -0.90971144178E+02  0.78521088626E+01  0.17327562245E+03  0.19586180338E+03  0.00000000000E+00 0. -1.
         22    1    3    3    0    0  0.37081348022E+02 -0.26610993751E+02  0.70886966430E+02  0.84309746584E+02  0.00000000000E+00 0. -1.
</event>
<event>
 7    1  0.6105960E-006  0.4856196E+02  0.7818608E-02  0.1457981E+00
          2   -1    0    0  502    0  0.00000000000E+00  0.00000000000E+00  0.37116334966E+04  0.37116334966E+04  0.00000000000E+00 0. -1.
          1   -1    0    0  501    0 -0.00000000000E+00 -0.00000000000E+00 -0.56382950083E+02  0.56382950083E+02  0.00000000000E+00 0. -1.
         25    2    1    2    0    0  0.13082166294E+02 -0.54688567271E+01  0.94437156498E+03  0.95271280166E+03  0.12499191271E+03 0.  0.
          2    1    1    2  501    0 -0.11511517118E+02 -0.45479357831E+02 -0.41390345260E+02  0.62562350466E+02  0.00000000000E+00 0. -1.
          1    1    1    2  502    0 -0.15706491762E+01  0.50948214558E+02  0.27522693268E+04  0.27527412946E+04  0.00000000000E+00 0. -1.
         22    1    3    3    0    0  0.25392659341E+02  0.13800511650E+02  0.91515897425E+03  0.91561519724E+03  0.00000000000E+00 0. -1.
         22    1    3    3    0    0 -0.12310493047E+02 -0.19269368377E+02  0.29212590729E+02  0.37097604422E+02  0.00000000000E+00 0. -1.
</event>
<event>
 7    1  0.6105960E-006  0.9528811E+02  0.7818608E-02  0.1333940E+00
          2   -1    0    0  502    0  0.00000000000E+00  0.00000000000E+00  0.24483700804E+04  0.24483700804E+04  0.00000000000E+00 0. -1.
          1   -1    0    0  501    0 -0.00000000000E+00 -0.00000000000E+00 -0.56410491525E+03  0.56410491525E+03  0.00000000000E+00 0. -1.
         25    2    1    2    0    0  0.15657487235E+03  0.62161497979E+01  0.10037903482E+01  0.20045139898E+03  0.12500169835E+03 0.  0.
          2    1    1    2  501    0 -0.92480354291E+02 -0.55590015282E+00 -0.45933050106E+03  0.46854821968E+03  0.00000000000E+00 0. -1.
          1    1    1    2  502    0 -0.64094518055E+02 -0.56602496451E+01  0.23425918759E+04  0.23434753770E+04  0.00000000000E+00 0. -1.
         22    1    3    3    0    0  0.90117506147E+02  0.62187033168E+02  0.20524811343E+02  0.11139865299E+03  0.00000000000E+00 0.  1.
         22    1    3    3    0    0  0.66457366200E+02 -0.55970883370E+02 -0.19521020994E+02  0.89052745988E+02  0.00000000000E+00 0.  1.
</event>
<event>
 7    1  0.6105960E-006  0.8988275E+02  0.7818608E-02  0.1405200E+00
          2   -1    0    0  502    0  0.00000000000E+00  0.00000000000E+00  0.70023579256E+03  0.70023579256E+03  0.00000000000E+00 0. -1.
          1   -1    0    0  501    0 -0.00000000000E+00 -0.00000000000E+00 -0.34016103717E+03  0.34016103717E+03  0.00000000000E+00 0. -1.
         25    2    1    2    0    0  0.55217156929E+02  0.69357182921E+00  0.30800375862E+02  0.14006996314E+03  0.12498606306E+03 0.  0.
          2    1    1    2  501    0 -0.92889046414E+02 -0.36428580341E+01 -0.27735634035E+03  0.29252040081E+03  0.00000000000E+00 0. -1.
          1    1    1    2  502    0  0.37671889485E+02  0.29492862048E+01  0.60663071988E+03  0.60780646578E+03  0.00000000000E+00 0. -1.
         22    1    3    3    0    0  0.61885130522E+02 -0.33643388763E+02  0.61516188028E+02  0.93519454536E+02  0.00000000000E+00 0. -1.
         22    1    3    3    0    0 -0.66679735935E+01  0.34336960592E+02 -0.30715812165E+02  0.46550508606E+02  0.00000000000E+00 0. -1.
</event>
<event>
 7    1  0.6939087E-006  0.1294292E+03  0.7818608E-02  0.1364242E+00
          2   -1    0    0  502    0  0.00000000000E+00  0.00000000000E+00  0.23156369564E+04  0.23156369564E+04  0.00000000000E+00 0. -1.
          1   -1    0    0  501    0 -0.00000000000E+00 -0.00000000000E+00 -0.68853224602E+03  0.68853224602E+03  0.00000000000E+00 0. -1.
         25    2    1    2    0    0 -0.12030788425E+03  0.75647193845E+02 -0.39893721023E+03  0.44155749879E+03  0.12500256832E+03 0.  0.
          2    1    1    2  501    0 -0.30034902087E+01 -0.36442025430E+02 -0.26520507897E+03  0.26771398186E+03  0.00000000000E+00 0. -1.
          1    1    1    2  502    0  0.12331137446E+03 -0.39205168414E+02  0.22912469996E+04  0.22948977218E+04  0.00000000000E+00 0. -1.
         22    1    3    3    0    0 -0.24160817737E+02 -0.34217961065E+01 -0.23219171898E+03  0.23347044388E+03  0.00000000000E+00 0.  1.
         22    1    3    3    0    0 -0.96147066516E+02  0.79068989951E+02 -0.16674549125E+03  0.20808705492E+03  0.00000000000E+00 0.  1.
</event>
<event>
 7    1  0.6105960E-006  0.2314678E+03  0.7818608E-02  0.1314201E+00
          2   -1    0    0  502    0  0.00000000000E+00  0.00000000000E+00  0.16651737249E+04  0.16651737249E+04  0.00000000000E+00 0. -1.
          1   -1    0    0  501    0 -0.00000000000E+00 -0.00000000000E+00 -0.82453298427E+02  0.82453298427E+02  0.00000000000E+00 0. -1.
         25    2    1    2    0    0 -0.12509438530E+03 -0.17352357421E+03  0.62258055155E+03  0.67006713422E+03  0.12499754063E+03 0.  0.
          2    1    1    2  501    0 -0.45179122990E+01 -0.31237043371E+02 -0.38588102713E+02  0.49851841301E+02  0.00000000000E+00 0. -1.
          1    1    1    2  502    0  0.12961229760E+03  0.20476061758E+03  0.99872797766E+03  0.10277080478E+04  0.00000000000E+00 0. -1.
         22    1    3    3    0    0 -0.10923309708E+03 -0.13759933360E+03  0.59906426997E+03  0.62429435818E+03  0.00000000000E+00 0. -1.
         22    1    3    3    0    0 -0.15861288218E+02 -0.35924240609E+02  0.23516281579E+02  0.45772776042E+02  0.00000000000E+00 0. -1.
</event>
<event>
 7    1  0.6105960E-006  0.8235300E+02  0.7818608E-02  0.1384042E+00
          2   -1    0    0  502    0  0.00000000000E+00  0.00000000000E+00  0.92089476802E+03  0.92089476802E+03  0.00000000000E+00 0. -1.
          1   -1    0    0  501    0 -0.00000000000E+00 -0.00000000000E+00 -0.47688633258E+03  0.47688633258E+03  0.00000000000E+00 0. -1.
         25    2    1    2    0    0 -0.79919277893E+02  0.19703481413E+02  0.20623130973E+02  0.15108232644E+03  0.12500095069E+03 0.  0.
          2    1    1    2  501    0  0.24789509008E+02  0.42068580971E+02 -0.40814558715E+03  0.41105608568E+03  0.00000000000E+00 0. -1.
          1    1    1    2  502    0  0.55129768886E+02 -0.61772062384E+02  0.83153089162E+03  0.83564268849E+03  0.00000000000E+00 0. -1.
         22    1    3    3    0    0  0.30546103104E+02  0.22142640304E+02  0.14508348763E+02  0.40420949003E+02  0.00000000000E+00 0.  1.
         22    1    3    3    0    0 -0.11046538100E+03 -0.24391588916E+01  0.61147822106E+01  0.11066137744E+03  0.00000000000E+00 0.  1.
</event>
<event>
 7    1  0.6105960E-006  0.6738308E+02  0.7818608E-02  0.1373636E+00
          2   -1    0    0  502    0  0.00000000000E+00  0.00000000000E+00  0.28167145871E+03  0.28167145871E+03  0.00000000000E+00 0. -1.
          1   -1    0    0  501    0 -0.00000000000E+00 -0.00000000000E+00 -0.93162466747E+03  0.93162466747E+03  0.00000000000E+00 0. -1.
         25    2    1    2    0    0 -0.70726970939E+02 -0.59705973230E+01  0.56818329782E+02  0.15456823457E+03  0.12500025636E+03 0.  0.
          2    1    1    2  501    0  0.34697652920E+02 -0.54931065592E+02 -0.87438209449E+03  0.87679267575E+03  0.00000000000E+00 0. -1.
          1    1    1    2  502    0  0.36029318020E+02  0.60901662915E+02  0.16761055595E+03  0.18193521586E+03  0.00000000000E+00 0. -1.
         22    1    3    3    0    0 -0.72713847956E+02 -0.51726424489E+02  0.61731210404E+02  0.10850653903E+03  0.00000000000E+00 0. -1.
         22    1    3    3    0    0  0.19868770171E+01  0.45755827166E+02 -0.49128806218E+01  0.46061695539E+02  0.00000000000E+00 0. -1.
</event>
<event>
 7    1  0.6105960E-006  0.5623054E+02  0.7818608E-02  0.1419167E+00
          2   -1    0    0  502    0  0.00000000000E+00  0.00000000000E+00  0.58183495665E+03  0.58183495665E+03  0.00000000000E+00 0. -1.
          1   -1    0    0  501    0 -0.00000000000E+00 -0.00000000000E+00 -0.60518560519E+02  0.60518560519E+02  0.00000000000E+00 0. -1.
         25    2    1    2    0    0  0.65873992212E+01 -0.59643875330E+02  0.35040712155E+03  0.37684439958E+03  0.12500305985E+03 0.  0.
          2    1    1    2  501    0 -0.50244708283E+02  0.27551756578E+02 -0.24798830388E+02  0.62438866018E+02  0.00000000000E+00 0. -1.
          1    1    1    2  502    0  0.43657309061E+02  0.32092118751E+02  0.19570810497E+03  0.20307025157E+03  0.00000000000E+00 0. -1.
         22    1    3    3    0    0 -0.28891968092E+02 -0.15511683833E+02  0.29764987496E+03  0.29945084107E+03  0.00000000000E+00 0. -1.
         22    1    3    3    0    0  0.35479367313E+02 -0.44132191497E+02  0.52757246588E+02  0.77393558510E+02  0.00000000000E+00 0. -1.
</event>
<event>
 7    1  0.6105960E-006  0.7150877E+02  0.7818608E-02  0.1485720E+00
          2   -1    0    0  502    0  0.00000000000E+00  0.00000000000E+00  0.14971542269E+03  0.14971542269E+03  0.00000000000E+00 0. -1.
          1   -1    0    0  501    0 -0.00000000000E+00 -0.00000000000E+00 -0.12300779718E+04  0.12300779718E+04  0.00000000000E+00 0. -1.
         25    2    1    2    0    0 -0.68288299240E+02  0.13629347710E+02 -0.42012773440E+03  0.44382675314E+03  0.12500329059E+03 0.  0.
          2    1    1    2  501    0  0.61088054463E+02 -0.38749157671E+02 -0.79520569689E+03  0.79848941633E+03  0.00000000000E+00 0. -1.
          1    1    1    2  502    0  0.72002447772E+01  0.25119809961E+02  0.13497088216E+03  0.13747722505E+03  0.00000000000E+00 0. -1.
         22    1    3    3    0    0  0.19585282922E+02 -0.30618283777E+02 -0.56961748681E+02  0.67569989058E+02  0.00000000000E+00 0.  1.
         22    1    3    3    0    0 -0.87873582161E+02  0.44247631486E+02 -0.36316598572E+03  0.37625676408E+03  0.00000000000E+00 0.  1.
</event>
<event>
 7    1  0.6105960E-006  0.8603928E+02  0.7818608E-02  0.1460242E+00
          2   -1    0    0  502    0  0.00000000000E+00  0.00000000000E+00  0.20786336131E+02  0.20786336131E+02  0.00000000000E+00 0. -1.
          1   -1    0    0  501    0 -0.00000000000E+00 -0.00000000000E+00 -0.16172293468E+04  0.16172293468E+04  0.00000000000E+00 0. -1.
         25    2    1    2    0    0 -0.63378784285E+02 -0.60956512862E+02 -0.10355033902E+04  0.10467216630E+04  0.12500560722E+03 0.  0.
          2    1    1    2  501    0  0.21637692209E+02 -0.14500015102E+02 -0.45013822704E+03  0.45089118821E+03  0.00000000000E+00 0. -1.
          1    1    1    2  502    0  0.41741092076E+02  0.75456527964E+02 -0.11080139342E+03  0.14040283175E+03  0.00000000000E+00 0. -1.
         22    1    3    3    0    0 -0.67322912233E+02 -0.96171567604E+02 -0.79967095355E+03  0.80824190617E+03  0.00000000000E+00 0.  1.
         22    1    3    3    0    0  0.39441279483E+01  0.35215054742E+02 -0.23583243666E+03  0.23847975681E+03  0.00000000000E+00 0.  1.
</event>
<event>
 7    1  0.6105960E-006  0.5651275E+02  0.7818608E-02  0.1482525E+00
          2   -1    0    0  502    0  0.00000000000E+00  0.00000000000E+00  0.22193349857E+03  0.22193349857E+03  0.00000000000E+00 0. -1.
          1   -1    0    0  501    0 -0.00000000000E+00 -0.00000000000E+00 -0.63916692305E+03  0.63916692305E+03  0.00000000000E+00 0. -1.
         25    2    1    2    0    0 -0.73984026418E+02  0.40555429450E+02 -0.79770768301E+02  0.17060888480E+03  0.12500254827E+03 0.  0.
          2    1    1    2  501    0  0.33748145118E+02 -0.21403196795E+01 -0.50901911790E+03  0.51014113798E+03  0.00000000000E+00 0. -1.
          1    1    1    2  502    0  0.40235881300E+02 -0.38415109771E+02  0.17155646172E+03  0.18035039884E+03  0.00000000000E+00 0. -1.
         22    1    3    3    0    0  0.24056678672E+01 -0.14457955608E+02 -0.74926827591E+02  0.76346900469E+02  0.00000000000E+00 0. -1.
         22    1    3    3    0    0 -0.76389694285E+02  0.55013385058E+02 -0.48439407094E+01  0.94261984332E+02  0.00000000000E+00 0. -1.
</event>
<event>
 7    1  0.6105960E-006  0.4770582E+02  0.7818608E-02  0.1479060E+00
          2   -1    0    0  502    0  0.00000000000E+00  0.00000000000E+00  0.50047697644E+03  0.50047697644E+03  0.00000000000E+00 0. -1.
          1   -1    0    0  501    0 -0.00000000000E+00 -0.00000000000E+00 -0.15603563654E+03  0.15603563654E+03  0.00000000000E+00 0. -1.
         25    2    1    2    0    0  0.35489890520E+02 -0.83431803950E+01  0.20503026043E+02  0.13181315355E+03  0.12500076953E+03 0.  0.
          2    1    1    2  501    0 -0.18145787690E+02 -0.36821760827E+02 -0.94731644777E+02  0.10324338334E+03  0.00000000000E+00 0. -1.
          1    1    1    2  502    0 -0.17344102830E+02  0.45164941222E+02  0.41866995863E+03  0.42145607610E+03  0.00000000000E+00 0. -1.
         22    1    3    3    0    0 -0.26608676035E+02  0.34244336181E+02 -0.18340365982E+02  0.47085722094E+02  0.00000000000E+00 0. -1.
         22    1    3    3    0    0  0.62098566555E+02 -0.42587516576E+02  0.38843392025E+02  0.84727431451E+02  0.00000000000E+00 0. -1.
</event>
<event>
 7    1  0.6105960E-006  0.6877222E+02  0.7818608E-02  0.1511193E+00
          2   -1    0    0  502    0  0.00000000000E+00  0.00000000000E+00  0.21758036825E+03  0.21758036825E+03  0.00000000000E+00 0. -1.
          1   -1    0    0  501    0 -0.00000000000E+00 -0.00000000000E+00 -0.68006251437E+03  0.68006251437E+03  0.00000000000E+00 0. -1.
         25    2    1    2    0    0  0.45953138797E+02  0.39054667653E+02 -0.23467858779E+03  0.27265607693E+03  0.12502135294E+03 0.  0.
          2    1    1    2  501    0 -0.36959526985E+02 -0.60005395473E+02 -0.42281450334E+03  0.42864759227E+03  0.00000000000E+00 0. -1.
          1    1    1    2  502    0 -0.89936118124E+01  0.20950727820E+02  0.19501094501E+03  0.19633921342E+03  0.00000000000E+00 0. -1.
         22    1    3    3    0    0  0.64386300291E+01  0.72920992778E+02 -0.75398569402E+02  0.10508982545E+03  0.00000000000E+00 0. -1.
         22    1    3    3    0    0  0.39514508768E+02 -0.33866325125E+02 -0.15928001839E+03  0.16756625149E+03  0.00000000000E+00 0. -1.
</event>
<event>
 7    1  0.6105960E-006  0.2976008E+02  0.7818608E-02  0.1603734E+00
          2   -1    0    0  502    0  0.00000000000E+00  0.00000000000E+00  0.42576767003E+03  0.42576767003E+03  0.00000000000E+00 0. -1.
          1   -1    0    0  501    0 -0.00000000000E+00 -0.00000000000E+00 -0.19671024631E+04  0.19671024631E+04  0.00000000000E+00 0. -1.
         25    2    1    2    0    0  0.54226374907E+02 -0.41591282471E+01 -0.20081712297E+03  0.24271957687E+03  0.12500991175E+03 0.  0.
          2    1    1    2  501    0 -0.26469165035E+02  0.13330466259E+02 -0.17446803462E+04  0.17449320412E+04  0.00000000000E+00 0. -1.
          1    1    1    2  502    0 -0.27757209872E+02 -0.91713380119E+01  0.40416267613E+03  0.40521851502E+03  0.00000000000E+00 0. -1.
         22    1    3    3    0    0  0.42117663383E+02  0.42395372725E+02 -0.18114695849E+03  0.19074979886E+03  0.00000000000E+00 0. -1.
         22    1    3    3    0    0  0.12108711524E+02 -0.46554500972E+02 -0.19670164485E+02  0.51969778009E+02  0.00000000000E+00 0. -1.
</event>
<event>
 7    1  0.6105960E-006  0.8390993E+02  0.7818608E-02  0.1416702E+00
          2   -1    0    0  502    0  0.00000000000E+00  0.00000000000E+00  0.68643919985E+03  0.68643919985E+03  0.00000000000E+00 0. -1.
          1   -1    0    0  501    0 -0.00000000000E+00 -0.00000000000E+00 -0.15369272240E+03  0.15369272240E+03  0.00000000000E+00 0. -1.
         25    2    1    2    0    0 -0.84628471094E+02 -0.61470989901E+02  0.17362796909E+03  0.23814275491E+03  0.12499855737E+03 0.  0.
          2    1    1    2  501    0  0.48103713473E+02  0.67425385887E+02 -0.10649219914E+03  0.13491011226E+03  0.00000000000E+00 0. -1.
          1    1    1    2  502    0  0.36524757621E+02 -0.59543959855E+01  0.46561070751E+03  0.46707905508E+03  0.00000000000E+00 0. -1.
         22    1    3    3    0    0 -0.60155842617E+01 -0.70637704910E+02  0.12922086583E+03  0.14739031439E+03  0.00000000000E+00 0. -1.
         22    1    3    3    0    0 -0.78612886832E+02  0.91667150084E+01  0.44407103262E+02  0.90752440520E+02  0.00000000000E+00 0. -1.
</event>
<event>
 7    1  0.6105960E-006  0.1104428E+03  0.7818608E-02  0.1338485E+00
          2   -1    0    0  502    0  0.00000000000E+00  0.00000000000E+00  0.16699767856E+04  0.16699767856E+04  0.00000000000E+00 0. -1.
          1   -1    0    0  501    0 -0.00000000000E+00 -0.00000000000E+00 -0.81507645740E+02  0.81507645740E+02  0.00000000000E+00 0. -1.
         25    2    1    2    0    0  0.42196416824E+02  0.81826617260E+02  0.58907465863E+03  0.60918955534E+03  0.12500731183E+03 0.  0.
          2    1    1    2  501    0 -0.92532727812E+02 -0.64120560527E+02 -0.25976984864E+02  0.11553595000E+03  0.00000000000E+00 0. -1.
          1    1    1    2  502    0  0.50336310988E+02 -0.17706056734E+02  0.10253714661E+04  0.10267589260E+04  0.00000000000E+00 0. -1.
         22    1    3    3    0    0  0.54172850972E+02  0.94145419960E+02  0.57935628335E+03  0.58945038887E+03  0.00000000000E+00 0.  1.
         22    1    3    3    0    0 -0.11976434147E+02 -0.12318802700E+02  0.97183752791E+01  0.19739166470E+02  0.00000000000E+00 0.  1.
</event>
<event>
 7    1  0.6105960E-006  0.1059004E+03  0.7818608E-02  0.1298955E+00
          2   -1    0    0  502    0  0.00000000000E+00  0.00000000000E+00  0.22663127485E+04  0.22663127485E+04  0.00000000000E+00 0. -1.
          1   -1    0    0  501    0 -0.00000000000E+00 -0.00000000000E+00 -0.30381215280E+03  0.30381215280E+03  0.00000000000E+00 0. -1.
         25    2    1    2    0    0 -0.12130431067E+02 -0.29233306898E+02  0.79847696784E+02  0.15166344709E+03  0.12499765162E+03 0.  0.
          2    1    1    2  501    0 -0.58365788675E+02 -0.53654475437E+02 -0.26062841001E+03  0.27241977925E+03  0.00000000000E+00 0. -1.
          1    1    1    2  502    0  0.70496219742E+02  0.82887782335E+02  0.21432813090E+04  0.21460416750E+04  0.00000000000E+00 0. -1.
         22    1    3    3    0    0 -0.81884314954E+01  0.49299593190E+02  0.36405293873E+02  0.61829165618E+02  0.00000000000E+00 0.  1.
         22    1    3    3    0    0 -0.39419995716E+01 -0.78532900088E+02  0.43442402911E+02  0.89834281472E+02  0.00000000000E+00 0.  1.
</event>
<event>
 7    1  0.6105960E-006  0.1066579E+03  0.7818608E-02  0.1300747E+00
          2   -1    0    0  502    0  0.00000000000E+00  0.00000000000E+00  0.34474632197E+03  0.34474632197E+03  0.00000000000E+00 0. -1.
          1   -1    0    0  501    0 -0.00000000000E+00 -0.00000000000E+00 -0.11322883678E+03  0.11322883678E+03  0.00000000000E+00 0. -1.
         25    2    1    2    0    0  0.95000265401E+02 -0.17436411072E+02  0.52213024467E+02  0.16637553706E+03  0.12500216219E+03 0.  0.
          2    1    1    2  501    0  0.38248063122E+01  0.77332446047E+02 -0.10096361635E+01  0.77433556810E+02  0.00000000000E+00 0. -1.
          1    1    1    2  502    0 -0.98825071713E+02 -0.59896034975E+02  0.18031409689E+03  0.21416606487E+03  0.00000000000E+00 0. -1.
         22    1    3    3    0    0  0.89901279611E+02  0.35430575125E+02  0.58394443421E+02  0.11290472422E+03  0.00000000000E+00 0.  1.
         22    1    3    3    0    0  0.50989857896E+01 -0.52866986197E+02 -0.61814189540E+01  0.53470812842E+02  0.00000000000E+00 0.  1.
</event>
<event>
 7    1  0.6105960E-006  0.1035580E+03  0.7818608E-02  0.1376139E+00
          2   -1    0    0  502    0  0.00000000000E+00  0.00000000000E+00  0.38335434780E+03  0.38335434780E+03  0.00000000000E+00 0. -1.
          1   -1    0    0  501    0 -0.00000000000E+00 -0.00000000000E+00 -0.86141312303E+02  0.86141312303E+02  0.00000000000E+00 0. -1.
         25    2    1    2    0    0  0.60554327540E+02  0.59401393334E+02  0.17710434392E+03  0.23277873612E+03  0.12499855695E+03 0.  0.
          2    1    1    2  501    0  0.27626998893E+01  0.41323031664E+02 -0.25536902212E+02  0.48655511827E+02  0.00000000000E+00 0. -1.
          1    1    1    2  502    0 -0.63317027429E+02 -0.10072442500E+03  0.14564559379E+03  0.18806141216E+03  0.00000000000E+00 0. -1.
         22    1    3    3    0    0 -0.22779918988E+01  0.83335702978E+02  0.88959561195E+02  0.12191731692E+03  0.00000000000E+00 0.  1.
         22    1    3    3    0    0  0.62832319439E+02 -0.23934309644E+02  0.88144782724E+02  0.11086141919E+03  0.00000000000E+00 0.  1.
</event>
<event>
 7    1  0.6105960E-006  0.3156218E+03  0.7818608E-02  0.1261112E+00
          2   -1    0    0  502    0  0.00000000000E+00  0.00000000000E+00  0.16405821367E+04  0.16405821367E+04  0.00000000000E+00 0. -1.
          1   -1    0    0  501    0 -0.00000000000E+00 -0.00000000000E+00 -0.13850172393E+03  0.13850172393E+03  0.00000000000E+00 0. -1.
         25    2    1    2    0    0 -0.25804764687E+03  0.14422072443E+03  0.70834487971E+03  0.77766570424E+03  0.12499309398E+03 0.  0.
          2    1    1    2  501    0 -0.34760137590E+02  0.15680968254E+02 -0.67663150799E+02  0.77668924975E+02  0.00000000000E+00 0. -1.
          1    1    1    2  502    0  0.29280778446E+03 -0.15990169268E+03  0.86139868391E+03  0.92374923144E+03  0.00000000000E+00 0. -1.
         22    1    3    3    0    0 -0.22141193085E+03  0.11073725287E+03  0.67199965397E+03  0.71614908869E+03  0.00000000000E+00 0. -1.
         22    1    3    3    0    0 -0.36635716014E+02  0.33483471556E+02  0.36345225737E+02  0.61516615554E+02  0.00000000000E+00 0. -1.
</event>
<event>
 7    1  0.6105960E-006  0.1109017E+03  0.7818608E-02  0.1262706E+00
          2   -1    0    0  502    0  0.00000000000E+00  0.00000000000E+00  0.63486604847E+03  0.63486604847E+03  0.00000000000E+00 0. -1.
          1   -1    0    0  501    0 -0.00000000000E+00 -0.00000000000E+00 -0.14107220426E+03  0.14107220426E+03  0.00000000000E+00 0. -1.
         25    2    1    2    0    0 -0.58207859762E+02 -0.18580072160E+02  0.23944204139E+03  0.27692979533E+03  0.12499698531E+03 0.  0.
          2    1    1    2  501    0 -0.77264748704E+02 -0.73797918097E+02 -0.75377703271E+02  0.13075845005E+03  0.00000000000E+00 0. -1.
          1    1    1    2  502    0  0.13547260847E+03  0.92377990257E+02  0.32972950609E+03  0.36825000735E+03  0.00000000000E+00 0. -1.
         22    1    3    3    0    0  0.19634586479E+02 -0.48912058818E+02  0.66393519846E+02  0.84770312973E+02  0.00000000000E+00 0. -1.
         22    1    3    3    0    0 -0.77842446240E+02  0.30331986659E+02  0.17304852155E+03  0.19215948236E+03  0.00000000000E+00 0. -1.
</event>
<event>
 7    1  0.7866920E-006  0.9985679E+02  0.7818608E-02  0.1396142E+00
          2   -1    0    0  502    0  0.00000000000E+00  0.00000000000E+00  0.19137291943E+04  0.19137291943E+04  0.00000000000E+00 0. -1.
          1   -1    0    0  501    0 -0.00000000000E+00 -0.00000000000E+00 -0.96441831797E+03  0.96441831797E+03  0.00000000000E+00 0. -1.
         25    2    1    2    0    0 -0.98348462328E+02 -0.50942335621E+02 -0.14265299668E+03  0.21964333203E+03  0.12500309694E+03 0.  0.
          2    1    1    2  501    0  0.68515887084E+02  0.72040830261E+02 -0.77993631947E+03  0.78624739773E+03  0.00000000000E+00 0. -1.
          1    1    1    2  502    0  0.29832575244E+02 -0.21098494641E+02  0.18719001925E+04  0.18722567825E+04  0.00000000000E+00 0. -1.
         22    1    3    3    0    0 -0.97926066498E+02 -0.75565940991E+02 -0.68253371589E+02  0.14127366588E+03  0.00000000000E+00 0. -1.
         22    1    3    3    0    0 -0.42239583025E+00  0.24623605371E+02 -0.74399625090E+02  0.78369666154E+02  0.00000000000E+00 0. -1.
</event>
<event>
 7    1  0.6105960E-006  0.1123954E+03  0.7818608E-02  0.1328660E+00
          2   -1    0    0  502    0  0.00000000000E+00  0.00000000000E+00  0.40288769279E+03  0.40288769279E+03  0.00000000000E+00 0. -1.
          1   -1    0    0  501    0 -0.00000000000E+00 -0.00000000000E+00 -0.21949720057E+03  0.21949720057E+03  0.00000000000E+00 0. -1.
         25    2    1    2    0    0 -0.72393658666E+02 -0.74044186879E+02 -0.16724917326E+02  0.16318221046E+03  0.12500131010E+03 0.  0.
          2    1    1    2  501    0 -0.38040266784E+02  0.42635266923E+02 -0.11249538255E+03  0.12617463682E+03  0.00000000000E+00 0. -1.
          1    1    1    2  502    0  0.11043392545E+03  0.31408919956E+02  0.31261079209E+03  0.33302804607E+03  0.00000000000E+00 0. -1.
         22    1    3    3    0    0 -0.75910318494E+02 -0.90140457276E+02 -0.48463408281E+02  0.12742205631E+03  0.00000000000E+00 0.  1.
         22    1    3    3    0    0  0.35166598282E+01  0.16096270397E+02  0.31738490955E+02  0.35760154155E+02  0.00000000000E+00 0.  1.
</event>
<event>
 7    1  0.6105960E-006  0.1054534E+03  0.7818608E-02  0.1278759E+00
          2   -1    0    0  502    0  0.00000000000E+00  0.00000000000E+00  0.43422534521E+03  0.43422534521E+03  0.00000000000E+00 0. -1.
          1   -1    0    0  501    0 -0.00000000000E+00 -0.00000000000E+00 -0.66956484319E+03  0.66956484319E+03  0.00000000000E+00 0. -1.
         25    2    1    2    0    0 -0.59757969381E+02 -0.79367692271E+02 -0.24879765245E+03  0.29562594198E+03  0.12499672085E+03 0.  0.
          2    1    1    2  501    0  0.11905434417E+03  0.35819913271E+01 -0.38253397440E+03  0.40064823611E+03  0.00000000000E+00 0. -1.
          1    1    1    2  502    0 -0.59296374788E+02  0.75785700944E+02  0.39599212888E+03  0.40751601032E+03  0.00000000000E+00 0. -1.
         22    1    3    3    0    0 -0.46133891383E+02 -0.10049607926E+03 -0.11520034515E+03  0.15968380445E+03  0.00000000000E+00 0.  1.
         22    1    3    3    0    0 -0.13624077998E+02  0.21128386988E+02 -0.13359730730E+03  0.13594213752E+03  0.00000000000E+00 0.  1.
</event>
<event>
 7    1  0.6105960E-006  0.6794450E+02  0.7818608E-02  0.1506665E+00
          2   -1    0    0  502    0  0.00000000000E+00  0.00000000000E+00  0.81784425487E+03  0.81784425487E+03  0.00000000000E+00 0. -1.
          1   -1    0    0  501    0 -0.00000000000E+00 -0.00000000000E+00 -0.27734630891E+03  0.27734630891E+03  0.00000000000E+00 0. -1.
         25    2    1    2    0    0 -0.15634606771E+02  0.42954686633E+02 -0.14273877126E+03  0.19516539924E+03  0.12500252081E+03 0.  0.
          2    1    1    2  501    0  0.16634073231E+01  0.23739464397E+02 -0.10560127200E+03  0.10824951612E+03  0.00000000000E+00 0. -1.
          1    1    1    2  502    0  0.13971199448E+02 -0.66694151030E+02  0.78883798921E+03  0.79177564841E+03  0.00000000000E+00 0. -1.
         22    1    3    3    0    0  0.26234362986E+02  0.31429041808E+02 -0.14598603468E+03  0.15161777202E+03  0.00000000000E+00 0.  1.
         22    1    3    3    0    0 -0.41868969757E+02  0.11525644825E+02  0.32472634246E+01  0.43547627225E+02  0.00000000000E+00 0.  1.
</event>
<event>
 7    1  0.6105960E-006  0.9357849E+02  0.7818608E-02  0.1331350E+00
          2   -1    0    0  502    0  0.00000000000E+00  0.00000000000E+00  0.25144827458E+04  0.25144827458E+04  0.00000000000E+00 0. -1.
          1   -1    0    0  501    0 -0.00000000000E+00 -0.00000000000E+00 -0.16311240039E+03  0.16311240039E+03  0.00000000000E+00 0. -1.
         25    2    1    2    0    0  0.73621243394E+02  0.14062038456E+03  0.54051574342E+03  0.57704240542E+03  0.12500595480E+03 0.  0.
          2    1    1    2  501    0 -0.39340818874E+02 -0.83027344056E+02 -0.12964305872E+03  0.15889796275E+03  0.00000000000E+00 0. -1.
          1    1    1    2  502    0 -0.34280424520E+02 -0.57593040505E+02  0.19404976607E+04  0.19416547780E+04  0.00000000000E+00 0. -1.
         22    1    3    3    0    0  0.31726810003E+02  0.14830431088E+03  0.47730754136E+03  0.50082257152E+03  0.00000000000E+00 0.  1.
         22    1    3    3    0    0  0.41894433392E+02 -0.76839263200E+01  0.63208202052E+02  0.76219833899E+02  0.00000000000E+00 0.  1.
</event>
<event>
 7    1  0.6105960E-006  0.1561279E+03  0.7818608E-02  0.1241216E+00
          2   -1    0    0  502    0  0.00000000000E+00  0.00000000000E+00  0.28123837329E+04  0.28123837329E+04  0.00000000000E+00 0. -1.
          1   -1    0    0  501    0 -0.00000000000E+00 -0.00000000000E+00 -0.19226137614E+03  0.19226137614E+03  0.00000000000E+00 0. -1.
         25    2    1    2    0    0 -0.93641220388E+02  0.17454531776E+02  0.59575019646E+03  0.61613043909E+03  0.12500033023E+03 0.  0.
          2    1    1    2  501    0  0.14965119341E+03  0.58042476897E+02 -0.14547791591E+03  0.21662925202E+03  0.00000000000E+00 0. -1.
          1    1    1    2  502    0 -0.56009973017E+02 -0.75497008673E+02  0.21698500762E+04  0.21718854179E+04  0.00000000000E+00 0. -1.
         22    1    3    3    0    0 -0.49092458790E+02  0.57998291663E+02  0.47660214759E+03  0.48262146495E+03  0.00000000000E+00 0. -1.
         22    1    3    3    0    0 -0.44548761598E+02 -0.40543759888E+02  0.11914804887E+03  0.13350897414E+03  0.00000000000E+00 0. -1.
</event>
<event>
 7    1  0.6105960E-006  0.9256713E+02  0.7818608E-02  0.1308007E+00
          2   -1    0    0  502    0  0.00000000000E+00  0.00000000000E+00  0.41423880187E+03  0.41423880187E+03  0.00000000000E+00 0. -1.
          1   -1    0    0  501    0 -0.00000000000E+00 -0.00000000000E+00 -0.12522359795E+03  0.12522359795E+03  0.00000000000E+00 0. -1.
         25    2    1    2    0    0 -0.39765551334E+02 -0.12966490598E+02  0.16174674942E+02  0.13280023298E+03  0.12499941128E+03 0.  0.
          2    1    1    2  501    0  0.12104733249E+03 -0.31327364691E+02  0.70729767437E+01  0.12523532841E+03  0.00000000000E+00 0. -1.
          1    1    1    2  502    0 -0.81281781155E+02  0.44293855289E+02  0.26576755224E+03  0.28142683842E+03  0.00000000000E+00 0. -1.
         22    1    3    3    0    0  0.33593030787E+02  0.18868485298E+02 -0.21804546836E+02  0.44271319357E+02  0.00000000000E+00 0. -1.
         22    1    3    3    0    0 -0.73358582120E+02 -0.31834975896E+02  0.37979221779E+02  0.88528913627E+02  0.00000000000E+00 0. -1.
</event>
<event>
 7    1  0.6114984E-006  0.1222557E+03  0.7818608E-02  0.1273430E+00
          2   -1    0    0  502    0  0.00000000000E+00  0.00000000000E+00  0.25741669781E+04  0.25741669781E+04  0.00000000000E+00 0. -1.
          1   -1    0    0  501    0 -0.00000000000E+00 -0.00000000000E+00 -0.37099122993E+03  0.37099122993E+03  0.00000000000E+00 0. -1.
         25    2    1    2    0    0 -0.16674958184E+03  0.10081189037E+03 -0.87437574340E+02  0.24748428142E+03  0.12503871343E+03 0.  0.
          2    1    1    2  501    0  0.86321044674E+02 -0.66742386206E+02 -0.18808135436E+03  0.21744071543E+03  0.00000000000E+00 0. -1.
          1    1    1    2  502    0  0.80428537167E+02 -0.34069504167E+02  0.24786946768E+04  0.24802332111E+04  0.00000000000E+00 0. -1.
         22    1    3    3    0    0 -0.12866021216E+03  0.76050094610E+02 -0.11993382998E+03  0.19162773979E+03  0.00000000000E+00 0. -1.
         22    1    3    3    0    0 -0.38089369679E+02  0.24761795764E+02  0.32496255637E+02  0.55856541626E+02  0.00000000000E+00 0. -1.
</event>
<event>
 7    1  0.6105960E-006  0.5155965E+02  0.7818608E-02  0.1505708E+00
          2   -1    0    0  502    0  0.00000000000E+00  0.00000000000E+00  0.46629790551E+02  0.46629790551E+02  0.00000000000E+00 0. -1.
          1   -1    0    0  501    0 -0.00000000000E+00 -0.00000000000E+00 -0.37070378298E+03  0.37070378298E+03  0.00000000000E+00 0. -1.
         25    2    1    2    0    0 -0.36211813886E+02  0.70633664573E+02 -0.15223709225E+03  0.21237199831E+03  0.12500129348E+03 0.  0.
          2    1    1    2  501    0  0.26184905730E+02 -0.40703158946E+02 -0.16593505735E+03  0.17284918193E+03  0.00000000000E+00 0. -1.
          1    1    1    2  502    0  0.10026908156E+02 -0.29930505627E+02 -0.59018428255E+01  0.32112393293E+02  0.00000000000E+00 0. -1.
         22    1    3    3    0    0  0.44184672777E+02  0.10060587286E+02 -0.31555407999E+02  0.55219964677E+02  0.00000000000E+00 0.  1.
         22    1    3    3    0    0 -0.80396486664E+02  0.60573077287E+02 -0.12068168425E+03  0.15715203363E+03  0.00000000000E+00 0.  1.
</event>
<event>
 7    1  0.6105960E-006  0.7059120E+02  0.7818608E-02  0.1437842E+00
          2   -1    0    0  502    0  0.00000000000E+00  0.00000000000E+00  0.83990922976E+03  0.83990922976E+03  0.00000000000E+00 0. -1.
          1   -1    0    0  501    0 -0.00000000000E+00 -0.00000000000E+00 -0.72135861547E+03  0.72135861547E+03  0.00000000000E+00 0. -1.
         25    2    1    2    0    0 -0.48694499356E+02  0.35484208470E+02  0.54059327015E+02  0.14892862831E+03  0.12500816843E+03 0.  0.
          2    1    1    2  501    0  0.70754129253E+02 -0.52184091109E+01 -0.67157936544E+03  0.67531638710E+03  0.00000000000E+00 0. -1.
          1    1    1    2  502    0 -0.22059629897E+02 -0.30265799359E+02  0.73607065272E+03  0.73702282982E+03  0.00000000000E+00 0. -1.
         22    1    3    3    0    0 -0.31853351286E+02  0.10313241438E+02 -0.38803876979E+02  0.51251729783E+02  0.00000000000E+00 0. -1.
         22    1    3    3    0    0 -0.16841148070E+02  0.25170967031E+02  0.92863203994E+02  0.97676898526E+02  0.00000000000E+00 0. -1.
</event>
<event>
 7    1  0.6105960E-006  0.5147472E+02  0.7818608E-02  0.1439443E+00
          2   -1    0    0  502    0  0.00000000000E+00  0.00000000000E+00  0.26162645021E+03  0.26162645021E+03  0.00000000000E+00 0. -1.
          1   -1    0    0  501    0 -0.00000000000E+00 -0.00000000000E+00 -0.10274148887E+04  0.10274148887E+04  0.00000000000E+00 0. -1.
         25    2    1    2    0    0 -0.40577810457E+02  0.42024866689E+02 -0.41133446781E+03  0.43385831199E+03  0.12499736940E+03 0.  0.
          2    1    1    2  501    0 -0.10438293356E+02 -0.49663342503E+02 -0.60108073314E+03  0.60321924150E+03  0.00000000000E+00 0. -1.
          1    1    1    2  502    0  0.51016103813E+02  0.76384758144E+01  0.24662676250E+03  0.25196378538E+03  0.00000000000E+00 0. -1.
         22    1    3    3    0    0 -0.12472330314E+02 -0.89345954437E+01 -0.34609231301E+03  0.34643220858E+03  0.00000000000E+00 0.  1.
         22    1    3    3    0    0 -0.28105480143E+02  0.50959462132E+02 -0.65242154798E+02  0.87426103410E+02  0.00000000000E+00 0.  1.
</event>
<event>
 7    1  0.6105960E-006  0.5978139E+02  0.7818608E-02  0.1487334E+00
          2   -1    0    0  502    0  0.00000000000E+00  0.00000000000E+00  0.56519062453E+03  0.56519062453E+03  0.00000000000E+00 0. -1.
          1   -1    0    0  501    0 -0.00000000000E+00 -0.00000000000E+00 -0.37035307143E+03  0.37035307143E+03  0.00000000000E+00 0. -1.
         25    2    1    2    0    0  0.11470630451E+01  0.31194235707E+02  0.76126257597E+02  0.14964915360E+03  0.12500106392E+03 0.  0.
          2    1    1    2  501    0  0.11506621557E+02 -0.59391585792E+02 -0.33031335782E+03  0.33580750015E+03  0.00000000000E+00 0. -1.
          1    1    1    2  502    0 -0.12653684602E+02  0.28197350086E+02  0.44902465332E+03  0.45008704222E+03  0.00000000000E+00 0. -1.
         22    1    3    3    0    0  0.68975106851E+01  0.75479683962E+02  0.72433112367E+02  0.10483946829E+03  0.00000000000E+00 0.  1.
         22    1    3    3    0    0 -0.57504476399E+01 -0.44285448256E+02  0.36931452300E+01  0.44809685303E+02  0.00000000000E+00 0.  1.
</event>
<event>
 7    1  0.6105960E-006  0.1293991E+03  0.7818608E-02  0.1332211E+00
          2   -1    0    0  502    0  0.00000000000E+00  0.00000000000E+00  0.22348187961E+02  0.22348187961E+02  0.00000000000E+00 0. -1.
          1   -1    0    0  501    0 -0.00000000000E+00 -0.00000000000E+00 -0.21292769320E+04  0.21292769320E+04  0.00000000000E+00 0. -1.
         25    2    1    2    0    0 -0.93336399591E+02  0.31079700561E+02 -0.11032425574E+04  0.11146508689E+04  0.12499915113E+03 0.  0.
          2    1    1    2  501    0 -0.44515565797E+02 -0.18233287655E+02 -0.71695818989E+03  0.71857020146E+03  0.00000000000E+00 0. -1.
          1    1    1    2  502    0  0.13785196539E+03 -0.12846412906E+02 -0.28672799672E+03  0.31840404958E+03  0.00000000000E+00 0. -1.
         22    1    3    3    0    0 -0.20049855207E+02  0.33371831778E+02 -0.85298913238E+03  0.85387711986E+03  0.00000000000E+00 0. -1.
         22    1    3    3    0    0 -0.73286544383E+02 -0.22921312171E+01 -0.25025342505E+03  0.26077374907E+03  0.00000000000E+00 0. -1.
</event>
<event>
 7    1  0.6105960E-006  0.3774169E+02  0.7818608E-02  0.1585885E+00
          2   -1    0    0  502    0  0.00000000000E+00  0.00000000000E+00  0.81703886559E+03  0.81703886559E+03  0.00000000000E+00 0. -1.
          1   -1    0    0  501    0 -0.00000000000E+00 -0.00000000000E+00 -0.11078710843E+03  0.11078710843E+03  0.00000000000E+00 0. -1.
         25    2    1    2    0    0  0.32918777736E+02  0.11103566784E+01  0.14941224924E+03  0.19757049191E+03  0.12500080092E+03 0.  0.
          2    1    1    2  501    0 -0.36534791301E+01 -0.25421387299E+02 -0.84229781385E+02  0.88058224568E+02  0.00000000000E+00 0. -1.
          1    1    1    2  502    0 -0.29265298606E+02  0.24311030621E+02  0.64106928930E+03  0.64219725754E+03  0.00000000000E+00 0. -1.
         22    1    3    3    0    0  0.10790700550E+02 -0.58490708012E+02  0.10269466901E+03  0.11867517510E+03  0.00000000000E+00 0.  1.
         22    1    3    3    0    0  0.22128077186E+02  0.59601064690E+02  0.46717580231E+02  0.78895316811E+02  0.00000000000E+00 0.  1.
</event>
<event>
 7    1  0.6105960E-006  0.1008864E+03  0.7818608E-02  0.1400581E+00
          2   -1    0    0  502    0  0.00000000000E+00  0.00000000000E+00  0.25743167427E+03  0.25743167427E+03  0.00000000000E+00 0. -1.
          1   -1    0    0  501    0 -0.00000000000E+00 -0.00000000000E+00 -0.11689656403E+04  0.11689656403E+04  0.00000000000E+00 0. -1.
         25    2    1    2    0    0  0.11588703322E+03  0.49300343247E+02 -0.36565712923E+03  0.40643876717E+03  0.12500802769E+03 0.  0.
          2    1    1    2  501    0 -0.33886815667E+02  0.84086625807E+01 -0.77190135772E+03  0.77269057710E+03  0.00000000000E+00 0. -1.
          1    1    1    2  502    0 -0.82000217550E+02 -0.57709005828E+02  0.22602452097E+03  0.24726797025E+03  0.00000000000E+00 0. -1.
         22    1    3    3    0    0  0.68234694740E+02 -0.92022364276E+01 -0.29547505263E+03  0.30339110312E+03  0.00000000000E+00 0.  1.
         22    1    3    3    0    0  0.47652338478E+02  0.58502579675E+02 -0.70182076601E+02  0.10304766405E+03  0.00000000000E+00 0.  1.
</event>
<event>
 7    1  0.6105960E-006  0.6281256E+02  0.7818608E-02  0.1474026E+00
          2   -1    0    0  502    0  0.00000000000E+00  0.00000000000E+00  0.84402126657E+03  0.84402126657E+03  0.00000000000E+00 0. -1.
          1   -1    0    0  501    0 -0.00000000000E+00 -0.00000000000E+00 -0.53019413824E+03  0.53019413824E+03  0.00000000000E+00 0. -1.
         25    2    1    2    0    0 -0.69869329136E+01 -0.70381491854E+02 -0.31310680772E+02  0.14699738511E+03  0.12500200347E+03 0.  0.
          2    1    1    2  501    0 -0.27085973703E+02  0.17617216445E+02 -0.43919117892E+03  0.44037814198E+03  0.00000000000E+00 0. -1.
          1    1    1    2  502    0  0.34072906617E+02  0.52764275408E+02  0.78432898803E+03  0.78683987773E+03  0.00000000000E+00 0. -1.
         22    1    3    3    0    0  0.38591311579E+02 -0.18810592747E+01 -0.49438991596E+02  0.62745849292E+02  0.00000000000E+00 0.  1.
         22    1    3    3    0    0 -0.45578244493E+02 -0.68500432579E+02  0.18128310824E+02  0.84251535819E+02  0.00000000000E+00 0.  1.
</event>
<event>
 7    1  0.6105960E-006  0.4546372E+02  0.7818608E-02  0.1474987E+00
          2   -1    0    0  502    0  0.00000000000E+00  0.00000000000E+00  0.19614273508E+03  0.19614273508E+03  0.00000000000E+00 0. -1.
          1   -1    0    0  501    0 -0.00000000000E+00 -0.00000000000E+00 -0.74835537041E+02  0.74835537041E+02  0.00000000000E+00 0. -1.
         25    2    1    2    0    0  0.99672235985E+01  0.62780261598E+02  0.75746745788E+02  0.15940598737E+03  0.12502796694E+03 0.  0.
          2    1    1    2  501    0 -0.35724900457E+02 -0.26258452380E+02 -0.43822217540E+01  0.44553099797E+02  0.00000000000E+00 0. -1.
          1    1    1    2  502    0  0.25757676858E+02 -0.36521809218E+02  0.49942674002E+02  0.67019184956E+02  0.00000000000E+00 0. -1.
         22    1    3    3    0    0  0.66446465329E+02  0.46435934364E+02  0.37941885192E+02  0.89504275914E+02  0.00000000000E+00 0. -1.
         22    1    3    3    0    0 -0.56479241730E+02  0.16344327234E+02  0.37804860595E+02  0.69901711451E+02  0.00000000000E+00 0. -1.
</event>
<event>
 7    1  0.6105960E-006  0.8123961E+02  0.7818608E-02  0.1353415E+00
          2   -1    0    0  502    0  0.00000000000E+00  0.00000000000E+00  0.16783147881E+04  0.16783147881E+04  0.00000000000E+00 0. -1.
          1   -1    0    0  501    0 -0.00000000000E+00 -0.00000000000E+00 -0.21071190871E+03  0.21071190871E+03  0.00000000000E+00 0. -1.
         25    2    1    2    0    0  0.85412034888E+02  0.71684425007E+02 -0.29550793145E+02  0.17009953517E+03  0.12500691980E+03 0.  0.
          2    1    1    2  501    0 -0.77782101566E+02 -0.83277362002E+01 -0.96371678677E+02  0.12412456230E+03  0.00000000000E+00 0. -1.
          1    1    1    2  502    0 -0.76299333218E+01 -0.63356688807E+02  0.15935253512E+04  0.15948025993E+04  0.00000000000E+00 0. -1.
         22    1    3    3    0    0 -0.17920323063E+02  0.27906395203E+02 -0.45966592458E+02  0.56681853305E+02  0.00000000000E+00 0. -1.
         22    1    3    3    0    0  0.10333235795E+03  0.43778029805E+02  0.16415799313E+02  0.11341768187E+03  0.00000000000E+00 0. -1.
</event>
<event>
 7    1  0.6105960E-006  0.1834109E+03  0.7818608E-02  0.1247116E+00
          2   -1    0    0  502    0  0.00000000000E+00  0.00000000000E+00  0.31309198874E+03  0.31309198874E+03  0.00000000000E+00 0. -1.
          1   -1    0    0  501    0 -0.00000000000E+00 -0.00000000000E+00 -0.18867962617E+04  0.18867962617E+04  0.00000000000E+00 0. -1.
         25    2    1    2    0    0 -0.16403627678E+03 -0.16392311223E+02 -0.67821803935E+03  0.70907101518E+03  0.12500155076E+03 0.  0.
          2    1    1    2  501    0  0.17547679261E+03  0.90917860226E+02 -0.11800239338E+04  0.11964592122E+04  0.00000000000E+00 0. -1.
          1    1    1    2  502    0 -0.11440515829E+02 -0.74525549003E+02  0.28453770025E+03  0.29435802303E+03  0.00000000000E+00 0. -1.
         22    1    3    3    0    0 -0.54328813913E+02  0.20652938363E+01 -0.46875803586E+03  0.47190039377E+03  0.00000000000E+00 0.  1.
         22    1    3    3    0    0 -0.10970746287E+03 -0.18457605059E+02 -0.20946000350E+03  0.23717062141E+03  0.00000000000E+00 0.  1.
</event>
<event>
 7    1  0.6105960E-006  0.7491952E+02  0.7818608E-02  0.1380203E+00
          2   -1    0    0  502    0  0.00000000000E+00  0.00000000000E+00  0.26976677810E+04  0.26976677810E+04  0.00000000000E+00 0. -1.
          1   -1    0    0  501    0 -0.00000000000E+00 -0.00000000000E+00 -0.30196223938E+02  0.30196223938E+02  0.00000000000E+00 0. -1.
         25    2    1    2    0    0 -0.10864072725E+03  0.26848548958E+02  0.10259806831E+04  0.10396084080E+04  0.12500251104E+03 0.  0.
          2    1    1    2  501    0  0.56836968815E+02 -0.46414806686E+02  0.35867760877E+02  0.81677852409E+02  0.00000000000E+00 0. -1.
          1    1    1    2  502    0  0.51803758433E+02  0.19566257728E+02  0.16056231131E+04  0.16065777445E+04  0.00000000000E+00 0. -1.
         22    1    3    3    0    0 -0.49618292465E+02  0.30252986039E+02  0.13899562145E+03  0.15065523852E+03  0.00000000000E+00 0.  1.
         22    1    3    3    0    0 -0.59022434783E+02 -0.34044370810E+01  0.88698506165E+03  0.88895316952E+03  0.00000000000E+00 0.  1.
</event>
<event>
 7    1  0.6105960E-006  0.9160443E+02  0.7818608E-02  0.1355339E+00
          2   -1    0    0  502    0  0.00000000000E+00  0.00000000000E+00  0.77703332384E+03  0.77703332384E+03  0.00000000000E+00 0. -1.
          1   -1    0    0  501    0 -0.00000000000E+00 -0.00000000000E+00 -0.38740411935E+03  0.38740411935E+03  0.00000000000E+00 0. -1.
         25    2    1    2    0    0 -0.34059636902E+02  0.22888901923E+02 -0.28275764190E+03  0.31186075316E+03  0.12498513756E+03 0.  0.
          2    1    1    2  501    0 -0.55643782137E+02 -0.19787007373E+01 -0.78400619323E+02  0.96160297719E+02  0.00000000000E+00 0. -1.
          1    1    1    2  502    0  0.89703419040E+02 -0.20910201186E+02  0.75078746571E+03  0.75641639232E+03  0.00000000000E+00 0. -1.
         22    1    3    3    0    0 -0.78806728359E+02  0.31426909578E+02 -0.20289252323E+03  0.21991709133E+03  0.00000000000E+00 0. -1.
         22    1    3    3    0    0  0.44747091457E+02 -0.85380076546E+01 -0.79865118674E+02  0.91943661822E+02  0.00000000000E+00 0. -1.
</event>
<event>
 7    1  0.6105960E-006  0.1956825E+03  0.7818608E-02  0.1164431E+00
          2   -1    0    0  502    0  0.00000000000E+00  0.00000000000E+00  0.22181304838E+03  0.22181304838E+03  0.00000000000E+00 0. -1.
          1   -1    0    0  501    0 -0.00000000000E+00 -0.00000000000E+00 -0.24705071529E+04  0.24705071529E+04  0.00000000000E+00 0. -1.
         25    2    1    2    0    0 -0.10187211221E+03  0.11785528074E+03 -0.16488343565E+03  0.25899630478E+03  0.12499897638E+03 0.  0.
          2    1    1    2  501    0  0.20509153910E+03  0.19893430804E+02 -0.22101940114E+04  0.22197783349E+04  0.00000000000E+00 0. -1.
          1    1    1    2  502    0 -0.10321942688E+03 -0.13774871154E+03  0.12638334253E+03  0.21354556161E+03  0.00000000000E+00 0. -1.
         22    1    3    3    0    0 -0.11492564543E+03  0.10743166131E+03 -0.17814616408E+03  0.23766682900E+03  0.00000000000E+00 0. -1.
         22    1    3    3    0    0  0.13053533220E+02  0.10423619422E+02  0.13262728436E+02  0.21329475777E+02  0.00000000000E+00 0. -1.
</event>
<event>
 7    1  0.6105960E-006  0.6375030E+02  0.7818608E-02  0.1502678E+00
          2   -1    0    0  502    0  0.00000000000E+00  0.00000000000E+00  0.43976084589E+03  0.43976084589E+03  0.00000000000E+00 0. -1.
          1   -1    0    0  501    0 -0.00000000000E+00 -0.00000000000E+00 -0.57392802036E+03  0.57392802036E+03  0.00000000000E+00 0. -1.
         25    2    1    2    0    0  0.62803182964E+02  0.85065739302E+01 -0.21323476215E+03  0.25516691638E+03  0.12499795933E+03 0.  0.
          2    1    1    2  501    0 -0.62046641913E+02  0.17545652617E+02 -0.33625546648E+03  0.34238191313E+03  0.00000000000E+00 0. -1.
          1    1    1    2  502    0 -0.75654105156E+00 -0.26052226548E+02  0.41532305416E+03  0.41614003674E+03  0.00000000000E+00 0. -1.
         22    1    3    3    0    0 -0.38399613145E+02 -0.14269586979E+01 -0.56089849035E+02  0.67989982097E+02  0.00000000000E+00 0.  1.
         22    1    3    3    0    0  0.10120279611E+03  0.99335326281E+01 -0.15714491311E+03  0.18717693428E+03  0.00000000000E+00 0.  1.
</event>
<event>
 7    1  0.6105960E-006  0.8996103E+02  0.7818608E-02  0.1304634E+00
          2   -1    0    0  502    0  0.00000000000E+00  0.00000000000E+00  0.19639334533E+04  0.19639334533E+04  0.00000000000E+00 0. -1.
          1   -1    0    0  501    0 -0.00000000000E+00 -0.00000000000E+00 -0.23510513199E+02  0.23510513199E+02  0.00000000000E+00 0. -1.
         25    2    1    2    0    0 -0.50370563029E+01 -0.68504400223E+02  0.65462731319E+03  0.66998521619E+03  0.12500018379E+03 0.  0.
          2    1    1    2  501    0  0.89500011792E+02  0.90958719787E+01  0.13616026787E+03  0.16319499240E+03  0.00000000000E+00 0. -1.
          1    1    1    2  502    0 -0.84462955489E+02  0.59408528244E+02  0.11496353591E+04  0.11542637579E+04  0.00000000000E+00 0. -1.
         22    1    3    3    0    0  0.29117262453E+02 -0.51442016440E+02  0.60238858503E+03  0.60528183799E+03  0.00000000000E+00 0. -1.
         22    1    3    3    0    0 -0.34154318756E+02 -0.17062383783E+02  0.52238728159E+02  0.64703378194E+02  0.00000000000E+00 0. -1.
</event>
<event>
 7    1  0.6105960E-006  0.4561088E+02  0.7818608E-02  0.1494814E+00
          2   -1    0    0  502    0  0.00000000000E+00  0.00000000000E+00  0.28698339296E+03  0.28698339296E+03  0.00000000000E+00 0. -1.
          1   -1    0    0  501    0 -0.00000000000E+00 -0.00000000000E+00 -0.20875606381E+03  0.20875606381E+03  0.00000000000E+00 0. -1.
         25    2    1    2    0    0  0.10326121946E+02  0.18414549081E+01  0.10116956234E+03  0.16115369896E+03  0.12500085837E+03 0.  0.
          2    1    1    2  501    0 -0.41903161666E+02  0.20105173303E+02 -0.17328157941E+03  0.17940623934E+03  0.00000000000E+00 0. -1.
          1    1    1    2  502    0  0.31577039720E+02 -0.21946628211E+02  0.15033934622E+03  0.15517951846E+03  0.00000000000E+00 0. -1.
         22    1    3    3    0    0  0.47124477313E+02  0.12372112707E+02  0.11135411767E+03  0.12154639056E+03  0.00000000000E+00 0.  1.
         22    1    3    3    0    0 -0.36798355368E+02 -0.10530657799E+02 -0.10184555330E+02  0.39607308400E+02  0.00000000000E+00 0.  1.
</event>
<event>
 7    1  0.6105960E-006  0.3643619E+02  0.7818608E-02  0.1553841E+00
          2   -1    0    0  502    0  0.00000000000E+00  0.00000000000E+00  0.25614038377E+03  0.25614038377E+03  0.00000000000E+00 0. -1.
          1   -1    0    0  501    0 -0.00000000000E+00 -0.00000000000E+00 -0.76828189076E+02  0.76828189076E+02  0.00000000000E+00 0. -1.
         25    2    1    2    0    0 -0.64337043351E+02 -0.17872243708E+02  0.97775570729E+02  0.17217337459E+03  0.12499974578E+03 0.  0.
          2    1    1    2  501    0  0.30883437913E+02  0.10152829288E+02 -0.29912812374E+02  0.44177403999E+02  0.00000000000E+00 0. -1.
          1    1    1    2  502    0  0.33453605438E+02  0.77194144200E+01  0.11144943634E+03  0.11661779425E+03  0.00000000000E+00 0. -1.
         22    1    3    3    0    0 -0.17460532372E+02  0.48068043221E+01 -0.29523270759E+02  0.34635228811E+02  0.00000000000E+00 0.  1.
         22    1    3    3    0    0 -0.46876510980E+02 -0.22679048030E+02  0.12729884149E+03  0.13753814578E+03  0.00000000000E+00 0.  1.
</event>
<event>
 7    1  0.6105960E-006  0.6014235E+02  0.7818608E-02  0.1486986E+00
          2   -1    0    0  502    0  0.00000000000E+00  0.00000000000E+00  0.25464308639E+04  0.25464308639E+04  0.00000000000E+00 0. -1.
          1   -1    0    0  501    0 -0.00000000000E+00 -0.00000000000E+00 -0.12776701449E+03  0.12776701449E+03  0.00000000000E+00 0. -1.
         25    2    1    2    0    0 -0.10912440485E+01  0.43670826298E+02  0.13973556218E+04  0.14036154612E+04  0.12500118919E+03 0.  0.
          2    1    1    2  501    0 -0.25974979755E+02  0.16543319096E+02 -0.12176775464E+03  0.12560162041E+03  0.00000000000E+00 0. -1.
          1    1    1    2  502    0  0.27066223803E+02 -0.60214145394E+02  0.11430759822E+04  0.11449807968E+04  0.00000000000E+00 0. -1.
         22    1    3    3    0    0  0.25760600199E+02  0.25721594367E+02  0.11024834214E+03  0.11610299688E+03  0.00000000000E+00 0.  1.
         22    1    3    3    0    0 -0.26851844248E+02  0.17949231931E+02  0.12871072797E+04  0.12875124643E+04  0.00000000000E+00 0.  1.
</event>
<event>
 7    1  0.6105960E-006  0.1107463E+03  0.7818608E-02  0.1288851E+00
          2   -1    0    0  502    0  0.00000000000E+00  0.00000000000E+00  0.71337364768E+03  0.71337364768E+03  0.00000000000E+00 0. -1.
          1   -1    0    0  501    0 -0.00000000000E+00 -0.00000000000E+00 -0.86531728850E+03  0.86531728850E+03  0.00000000000E+00 0. -1.
         25    2    1    2    0    0  0.18283965971E+03  0.34602033241E+02 -0.55800414024E+02  0.23101184276E+03  0.12500057370E+03 0.  0.
          2    1    1    2  501    0 -0.99727372469E+02 -0.39982213349E+02 -0.71510876712E+03  0.72313530893E+03  0.00000000000E+00 0. -1.
          1    1    1    2  502    0 -0.83112287239E+02  0.53801801085E+01  0.61896554032E+03  0.62454378448E+03  0.00000000000E+00 0. -1.
         22    1    3    3    0    0  0.15156229126E+03  0.77846158919E+02 -0.48438215427E+02  0.17713670796E+03  0.00000000000E+00 0.  1.
         22    1    3    3    0    0  0.31277368444E+02 -0.43244125678E+02 -0.73621985974E+01  0.53875134808E+02  0.00000000000E+00 0.  1.
</event>
<event>
 7    1  0.6105960E-006  0.1824166E+03  0.7818608E-02  0.1208136E+00
          2   -1    0    0  502    0  0.00000000000E+00  0.00000000000E+00  0.16408189457E+03  0.16408189457E+03  0.00000000000E+00 0. -1.
          1   -1    0    0  501    0 -0.00000000000E+00 -0.00000000000E+00 -0.53107851098E+03  0.53107851098E+03  0.00000000000E+00 0. -1.
         25    2    1    2    0    0 -0.22262875712E+02  0.55144227073E+02 -0.26997783139E+02  0.14103287881E+03  0.12499948478E+03 0.  0.
          2    1    1    2  501    0 -0.40905446594E+02  0.17777110318E+03 -0.21627180877E+03  0.28292987816E+03  0.00000000000E+00 0. -1.
          1    1    1    2  502    0  0.63168322307E+02 -0.23291533025E+03 -0.12372702450E+03  0.27119764859E+03  0.00000000000E+00 0. -1.
         22    1    3    3    0    0  0.38574684130E+02  0.61327991997E+02 -0.32952351168E+02  0.79592627206E+02  0.00000000000E+00 0. -1.
         22    1    3    3    0    0 -0.60837559842E+02 -0.61837649241E+01  0.59545680288E+01  0.61440251599E+02  0.00000000000E+00 0. -1.
</event>
<event>
 7    1  0.6105960E-006  0.1329562E+03  0.7818608E-02  0.1331109E+00
          2   -1    0    0  502    0  0.00000000000E+00  0.00000000000E+00  0.32318946074E+03  0.32318946074E+03  0.00000000000E+00 0. -1.
          1   -1    0    0  501    0 -0.00000000000E+00 -0.00000000000E+00 -0.39889165293E+03  0.39889165293E+03  0.00000000000E+00 0. -1.
         25    2    1    2    0    0  0.14766386214E+03  0.41828239023E+02  0.35824750444E+02  0.20116249371E+03  0.12501487259E+03 0.  0.
          2    1    1    2  501    0 -0.18593041788E+02 -0.43462870028E+02 -0.29379409598E+03  0.29757300467E+03  0.00000000000E+00 0. -1.
          1    1    1    2  502    0 -0.12907082035E+03  0.16346310048E+01  0.18226715333E+03  0.22334561529E+03  0.00000000000E+00 0. -1.
         22    1    3    3    0    0  0.56904936156E+00  0.34056004892E+02 -0.24532735577E+02  0.41976069388E+02  0.00000000000E+00 0. -1.
         22    1    3    3    0    0  0.14709481278E+03  0.77722341312E+01  0.60357486022E+02  0.15918642432E+03  0.00000000000E+00 0. -1.
</event>
<event>
 7    1  0.6105960E-006  0.1642859E+03  0.7818608E-02  0.1250616E+00
          2   -1    0    0  502    0  0.00000000000E+00  0.00000000000E+00  0.14382199929E+04  0.14382199929E+04  0.00000000000E+00 0. -1.
          1   -1    0    0  501    0 -0.00000000000E+00 -0.00000000000E+00 -0.20846086549E+03  0.20846086549E+03  0.00000000000E+00 0. -1.
         25    2    1    2    0    0 -0.68101193822E+02  0.14363645186E+03  0.90161788831E+03  0.92401712345E+03  0.12499449992E+03 0.  0.
          2    1    1    2  501    0 -0.75338565498E+02 -0.30500112724E+02 -0.17198067327E+03  0.19021963175E+03  0.00000000000E+00 0. -1.
          1    1    1    2  502    0  0.14343975932E+03 -0.11313633913E+03  0.50012191232E+03  0.53244410314E+03  0.00000000000E+00 0. -1.
         22    1    3    3    0    0  0.10435190227E+02  0.11309604807E+03  0.60934045397E+03  0.61983497653E+03  0.00000000000E+00 0.  1.
         22    1    3    3    0    0 -0.78536384049E+02  0.30540403787E+02  0.29227743434E+03  0.30418214692E+03  0.00000000000E+00 0.  1.
</event>
<event>
 7    1  0.6105960E-006  0.9957109E+02  0.7818608E-02  0.1333091E+00
          2   -1    0    0  502    0  0.00000000000E+00  0.00000000000E+00  0.60673210620E+03  0.60673210620E+03  0.00000000000E+00 0. -1.
          1   -1    0    0  501    0 -0.00000000000E+00 -0.00000000000E+00 -0.27603079270E+03  0.27603079270E+03  0.00000000000E+00 0. -1.
         25    2    1    2    0    0 -0.30456470772E+02  0.13209110304E+03  0.28688379961E+03  0.34103131575E+03  0.12499755090E+03 0.  0.
          2    1    1    2  501    0 -0.23257223251E+02 -0.57510666815E+02 -0.23766291256E+03  0.24562580328E+03  0.00000000000E+00 0. -1.
          1    1    1    2  502    0  0.53713694023E+02 -0.74580436222E+02  0.28148042645E+03  0.29610577986E+03  0.00000000000E+00 0. -1.
         22    1    3    3    0    0 -0.55633715062E+02  0.14370344160E+03  0.21972692672E+03  0.26837606396E+03  0.00000000000E+00 0.  1.
         22    1    3    3    0    0  0.25177244290E+02 -0.11612338566E+02  0.67156872885E+02  0.72655251790E+02  0.00000000000E+00 0.  1.
</event>
<event>
 7    1  0.6105960E-006  0.5655476E+02  0.7818608E-02  0.1491237E+00
          2   -1    0    0  502    0  0.00000000000E+00  0.00000000000E+00  0.14181488588E+04  0.14181488588E+04  0.00000000000E+00 0. -1.
          1   -1    0    0  501    0 -0.00000000000E+00 -0.00000000000E+00 -0.19473448201E+02  0.19473448201E+02  0.00000000000E+00 0. -1.
         25    2    1    2    0    0  0.67179465452E+02 -0.16247735426E+02  0.70990817219E+03  0.72413475820E+03  0.12499786238E+03 0.  0.
          2    1    1    2  501    0 -0.13107965712E+02  0.28964558073E+02  0.11291019407E+02  0.33737983175E+02  0.00000000000E+00 0. -1.
          1    1    1    2  502    0 -0.54071499740E+02 -0.12716822647E+02  0.67747621902E+03  0.67974956565E+03  0.00000000000E+00 0. -1.
         22    1    3    3    0    0  0.41035638665E+02  0.33879664727E+02  0.58027385881E+03  0.58270876649E+03  0.00000000000E+00 0. -1.
         22    1    3    3    0    0  0.26143826787E+02 -0.50127400153E+02  0.12963431338E+03  0.14142599171E+03  0.00000000000E+00 0. -1.
</event>
<event>
 7    1  0.6105960E-006  0.1094020E+03  0.7818608E-02  0.1305236E+00
          2   -1    0    0  502    0  0.00000000000E+00  0.00000000000E+00  0.12126227117E+04  0.12126227117E+04  0.00000000000E+00 0. -1.
          1   -1    0    0  501    0 -0.00000000000E+00 -0.00000000000E+00 -0.20308267622E+04  0.20308267622E+04  0.00000000000E+00 0. -1.
         25    2    1    2    0    0  0.92691837036E+02 -0.12482253323E+03  0.10487655574E+03  0.22538040215E+03  0.12499916910E+03 0.  0.
          2    1    1    2  501    0 -0.22541934110E+02  0.10675469067E+03 -0.19678093762E+04  0.19708319167E+04  0.00000000000E+00 0. -1.
          1    1    1    2  502    0 -0.70149902926E+02  0.18067842566E+02  0.10447287700E+04  0.10472371550E+04  0.00000000000E+00 0. -1.
         22    1    3    3    0    0  0.70103024770E+02 -0.42888419322E+02  0.11330679360E+03  0.13997242611E+03  0.00000000000E+00 0. -1.
         22    1    3    3    0    0  0.22588812266E+02 -0.81934113913E+02 -0.84302378608E+01  0.85407976048E+02  0.00000000000E+00 0. -1.
</event>
<event>
 7    1  0.6105960E-006  0.7761546E+02  0.7818608E-02  0.1446465E+00
          2   -1    0    0  502    0  0.00000000000E+00  0.00000000000E+00  0.49430400076E+03  0.49430400076E+03  0.00000000000E+00 0. -1.
          1   -1    0    0  501    0 -0.00000000000E+00 -0.00000000000E+00 -0.26026463444E+03  0.26026463444E+03  0.00000000000E+00 0. -1.
         25    2    1    2    0    0 -0.54258976374E+02  0.93253060444E+02 -0.18196049485E+01  0.16513308093E+03  0.12500181462E+03 0.  0.
          2    1    1    2  501    0  0.12307494737E+02 -0.29476808436E+02 -0.17177277281E+03  0.17471760684E+03  0.00000000000E+00 0. -1.
          1    1    1    2  502    0  0.41951481638E+02 -0.63776252008E+02  0.40763174408E+03  0.41471794742E+03  0.00000000000E+00 0. -1.
         22    1    3    3    0    0 -0.56307053576E+02  0.12274693457E+03  0.35125107860E+01  0.13509119868E+03  0.00000000000E+00 0.  1.
         22    1    3    3    0    0  0.20480772014E+01 -0.29493874126E+02 -0.53321157345E+01  0.30041882255E+02  0.00000000000E+00 0.  1.
</event>
<event>
 7    1  0.6105960E-006  0.1711697E+03  0.7818608E-02  0.1317920E+00
          2   -1    0    0  502    0  0.00000000000E+00  0.00000000000E+00  0.98680869873E+03  0.98680869873E+03  0.00000000000E+00 0. -1.
          1   -1    0    0  501    0 -0.00000000000E+00 -0.00000000000E+00 -0.34305606573E+03  0.34305606573E+03  0.00000000000E+00 0. -1.
         25    2    1    2    0    0  0.11719070528E+03  0.80844563831E+02 -0.13730109850E+03  0.23398067227E+03  0.12500343371E+03 0.  0.
          2    1    1    2  501    0  0.49330615125E+01  0.40981360263E+02 -0.14661450122E+03  0.15231421127E+03  0.00000000000E+00 0. -1.
          1    1    1    2  502    0 -0.12212376680E+03 -0.12182592409E+03  0.92766823272E+03  0.94356988093E+03  0.00000000000E+00 0. -1.
         22    1    3    3    0    0  0.93393695978E+02  0.71388537272E+02 -0.16082623719E+03  0.19920789209E+03  0.00000000000E+00 0. -1.
         22    1    3    3    0    0  0.23797009307E+02  0.94560265593E+01  0.23525138698E+02  0.34772780174E+02  0.00000000000E+00 0. -1.
</event>
<event>
 7    1  0.6105960E-006  0.6340582E+02  0.7818608E-02  0.1426454E+00
          2   -1    0    0  502    0  0.00000000000E+00  0.00000000000E+00  0.23871484342E+04  0.23871484342E+04  0.00000000000E+00 0. -1.
          1   -1    0    0  501    0 -0.00000000000E+00 -0.00000000000E+00 -0.11276932091E+02  0.11276932091E+02  0.00000000000E+00 0. -1.
         25    2    1    2    0    0  0.46663138783E+02  0.82061857658E+02  0.14107070586E+04  0.14193770774E+04  0.12500114334E+03 0.  0.
          2    1    1    2  501    0 -0.66487527667E+01 -0.60522114601E+02  0.14040959293E+03  0.15304243220E+03  0.00000000000E+00 0. -1.
          1    1    1    2  502    0 -0.40014386017E+02 -0.21539743057E+02  0.82475485063E+03  0.82600585668E+03  0.00000000000E+00 0. -1.
         22    1    3    3    0    0  0.27606672024E+02 -0.31239001710E+02  0.39334552726E+03  0.39554861571E+03  0.00000000000E+00 0. -1.
         22    1    3    3    0    0  0.19056466759E+02  0.11330085937E+03  0.10173615313E+04  0.10238284617E+04  0.00000000000E+00 0. -1.
</event>
<event>
 7    1  0.6105960E-006  0.7870462E+02  0.7818608E-02  0.1402339E+00
          2   -1    0    0  502    0  0.00000000000E+00  0.00000000000E+00  0.10523880676E+04  0.10523880676E+04  0.00000000000E+00 0. -1.
          1   -1    0    0  501    0 -0.00000000000E+00 -0.00000000000E+00 -0.68717841260E+02  0.68717841260E+02  0.00000000000E+00 0. -1.
         25    2    1    2    0    0 -0.54212513186E+02  0.47599841358E+02  0.79923266098E+02  0.16497465075E+03  0.12499666172E+03 0.  0.
          2    1    1    2  501    0  0.85182198684E+02 -0.16152097633E+02  0.47715997519E+02  0.98963193410E+02  0.00000000000E+00 0. -1.
          1    1    1    2  502    0 -0.30969685499E+02 -0.31447743725E+02  0.85603096269E+03  0.85716806467E+03  0.00000000000E+00 0. -1.
         22    1    3    3    0    0 -0.38863821457E+02  0.64889460847E+02  0.10593958601E+03  0.13017002201E+03  0.00000000000E+00 0.  1.
         22    1    3    3    0    0 -0.15348691728E+02 -0.17289619490E+02 -0.26016319908E+02  0.34804628735E+02  0.00000000000E+00 0.  1.
</event>
<event>
 7    1  0.6105960E-006  0.8556924E+02  0.7818608E-02  0.1377818E+00
          2   -1    0    0  502    0  0.00000000000E+00  0.00000000000E+00  0.10893570425E+04  0.10893570425E+04  0.00000000000E+00 0. -1.
          1   -1    0    0  501    0 -0.00000000000E+00 -0.00000000000E+00 -0.56024995667E+02  0.56024995667E+02  0.00000000000E+00 0. -1.
         25    2    1    2    0    0  0.37400894584E+02 -0.96091008830E+02  0.60425872839E+03  0.62560840483E+03  0.12499982586E+03 0.  0.
          2    1    1    2  501    0 -0.64977669909E+02  0.55059514492E+02 -0.26689115132E+01  0.85210156740E+02  0.00000000000E+00 0. -1.
          1    1    1    2  502    0  0.27576775325E+02  0.41031494338E+02  0.43174222991E+03  0.43456347655E+03  0.00000000000E+00 0. -1.
         22    1    3    3    0    0  0.23618505701E+02 -0.79857763280E+02  0.15593325816E+03  0.17677747924E+03  0.00000000000E+00 0. -1.
         22    1    3    3    0    0  0.13782388883E+02 -0.16233245550E+02  0.44832547023E+03  0.44883092559E+03  0.00000000000E+00 0. -1.
</event>
<event>
 7    1  0.6105960E-006  0.8863943E+02  0.7818608E-02  0.1350161E+00
          2   -1    0    0  502    0  0.00000000000E+00  0.00000000000E+00  0.38100997174E+02  0.38100997174E+02  0.00000000000E+00 0. -1.
          1   -1    0    0  501    0 -0.00000000000E+00 -0.00000000000E+00 -0.63895726761E+03  0.63895726761E+03  0.00000000000E+00 0. -1.
         25    2    1    2    0    0 -0.62011010626E+02 -0.87500182897E+02 -0.26551375546E+03  0.31244778099E+03  0.12499765623E+03 0.  0.
          2    1    1    2  501    0  0.59945075266E+02  0.46973570027E+01 -0.14994813634E+03  0.16155469911E+03  0.00000000000E+00 0. -1.
          1    1    1    2  502    0  0.20659353607E+01  0.82802825894E+02 -0.18539437863E+03  0.20305578468E+03  0.00000000000E+00 0. -1.
         22    1    3    3    0    0 -0.45887823854E+02 -0.32805841560E+02 -0.19148733683E+02  0.59570039619E+02  0.00000000000E+00 0. -1.
         22    1    3    3    0    0 -0.16123186772E+02 -0.54694341338E+02 -0.24636502178E+03  0.25287774137E+03  0.00000000000E+00 0. -1.
</event>
<event>
 7    1  0.6105960E-006  0.6948794E+02  0.7818608E-02  0.1365332E+00
          2   -1    0    0  502    0  0.00000000000E+00  0.00000000000E+00  0.29619166760E+04  0.29619166760E+04  0.00000000000E+00 0. -1.
          1   -1    0    0  501    0 -0.00000000000E+00 -0.00000000000E+00 -0.55290700506E+02  0.55290700506E+02  0.00000000000E+00 0. -1.
         25    2    1    2    0    0 -0.63748859195E+02 -0.18173444513E+02  0.10008227747E+04  0.10107744515E+04  0.12499829669E+03 0.  0.
          2    1    1    2  501    0  0.46651942269E+02 -0.51499223033E+02 -0.25335195286E+02  0.73962462173E+02  0.00000000000E+00 0. -1.
          1    1    1    2  502    0  0.17096916926E+02  0.69672667546E+02  0.19311383961E+04  0.19324704629E+04  0.00000000000E+00 0. -1.
         22    1    3    3    0    0 -0.30692850690E+02 -0.33051855058E+02  0.93109370886E+03  0.93218558822E+03  0.00000000000E+00 0.  1.
         22    1    3    3    0    0 -0.33056008506E+02  0.14878410545E+02  0.69729065877E+02  0.78588863249E+02  0.00000000000E+00 0.  1.
</event>
<event>
 7    1  0.6105960E-006  0.6193796E+02  0.7818608E-02  0.1443485E+00
          2   -1    0    0  502    0  0.00000000000E+00  0.00000000000E+00  0.84956422782E+03  0.84956422782E+03  0.00000000000E+00 0. -1.
          1   -1    0    0  501    0 -0.00000000000E+00 -0.00000000000E+00 -0.64436760957E+03  0.64436760957E+03  0.00000000000E+00 0. -1.
         25    2    1    2    0    0  0.86763804473E+02  0.54385857588E+02 -0.36736057581E+03  0.40132901520E+03  0.12500162603E+03 0.  0.
          2    1    1    2  501    0 -0.36673971054E+02 -0.18158473454E+02 -0.25725581098E+03  0.26049042707E+03  0.00000000000E+00 0. -1.
          1    1    1    2  502    0 -0.50089833419E+02 -0.36227384134E+02  0.82981300504E+03  0.83211239512E+03  0.00000000000E+00 0. -1.
         22    1    3    3    0    0 -0.21596170111E+02  0.23438081031E+02 -0.23852621430E+02  0.39808111673E+02  0.00000000000E+00 0. -1.
         22    1    3    3    0    0  0.10835997458E+03  0.30947776556E+02 -0.34350795438E+03  0.36152090353E+03  0.00000000000E+00 0. -1.
</event>
<event>
 7    1  0.6105960E-006  0.3965957E+02  0.7818608E-02  0.1549534E+00
          2   -1    0    0  502    0  0.00000000000E+00  0.00000000000E+00  0.18376190907E+04  0.18376190907E+04  0.00000000000E+00 0. -1.
          1   -1    0    0  501    0 -0.00000000000E+00 -0.00000000000E+00 -0.13259632159E+03  0.13259632159E+03  0.00000000000E+00 0. -1.
         25    2    1    2    0    0  0.40529216545E+02  0.55861071269E+02  0.74289911001E+03  0.75649720546E+03  0.12500343014E+03 0.  0.
          2    1    1    2  501    0 -0.28157968772E+02 -0.27760815957E+02 -0.12246740503E+03  0.12869265481E+03  0.00000000000E+00 0. -1.
          1    1    1    2  502    0 -0.12371247773E+02 -0.28100255312E+02  0.10845910641E+04  0.10850255520E+04  0.00000000000E+00 0. -1.
         22    1    3    3    0    0 -0.18130330631E+02 -0.31840262610E+02  0.22440682336E+03  0.22737839296E+03  0.00000000000E+00 0.  1.
         22    1    3    3    0    0  0.58659547175E+02  0.87701333879E+02  0.51849228664E+03  0.52911881251E+03  0.00000000000E+00 0.  1.
</event>
<event>
 7    1  0.6105960E-006  0.9753439E+02  0.7818608E-02  0.1446253E+00
          2   -1    0    0  502    0  0.00000000000E+00  0.00000000000E+00  0.11383011189E+03  0.11383011189E+03  0.00000000000E+00 0. -1.
          1   -1    0    0  501    0 -0.00000000000E+00 -0.00000000000E+00 -0.12267103619E+04  0.12267103619E+04  0.00000000000E+00 0. -1.
         25    2    1    2    0    0  0.64619025532E+02  0.82119001833E+02 -0.12305454366E+03  0.20417539969E+03  0.12500409673E+03 0.  0.
          2    1    1    2  501    0 -0.40024450864E+02 -0.88698563369E+02 -0.10585826429E+04  0.10630459085E+04  0.00000000000E+00 0. -1.
          1    1    1    2  502    0 -0.24594574668E+02  0.65795615361E+01  0.68756936485E+02  0.73319165625E+02  0.00000000000E+00 0. -1.
         22    1    3    3    0    0  0.91333806972E+02  0.23125317706E+02 -0.94356857822E+02  0.13334114606E+03  0.00000000000E+00 0. -1.
         22    1    3    3    0    0 -0.26714781440E+02  0.58993684127E+02 -0.28697685835E+02  0.70834253625E+02  0.00000000000E+00 0. -1.
</event>
<event>
 7    1  0.6105960E-006  0.1158401E+03  0.7818608E-02  0.1276480E+00
          2   -1    0    0  502    0  0.00000000000E+00  0.00000000000E+00  0.33858797600E+03  0.33858797600E+03  0.00000000000E+00 0. -1.
          1   -1    0    0  501    0 -0.00000000000E+00 -0.00000000000E+00 -0.56011071379E+03  0.56011071379E+03  0.00000000000E+00 0. -1.
         25    2    1    2    0    0  0.12761696778E+03 -0.11263810409E+03  0.27719925851E+02  0.21299407569E+03  0.12499859611E+03 0.  0.
          2    1    1    2  501    0 -0.20594530491E+02  0.87125291571E+02 -0.44889997799E+03  0.45774025534E+03  0.00000000000E+00 0. -1.
          1    1    1    2  502    0 -0.10702243729E+03  0.25512812519E+02  0.19965731435E+03  0.22796435875E+03  0.00000000000E+00 0. -1.
         22    1    3    3    0    0  0.69893237667E+02 -0.18184200559E+02 -0.40661860634E+02  0.82880134723E+02  0.00000000000E+00 0.  1.
         22    1    3    3    0    0  0.57723730117E+02 -0.94453903530E+02  0.68381786485E+02  0.13011394097E+03  0.00000000000E+00 0.  1.
</event>
<event>
 7    1  0.6105960E-006  0.1167190E+03  0.7818608E-02  0.1304712E+00
          2   -1    0    0  502    0  0.00000000000E+00  0.00000000000E+00  0.10841885554E+04  0.10841885554E+04  0.00000000000E+00 0. -1.
          1   -1    0    0  501    0 -0.00000000000E+00 -0.00000000000E+00 -0.22875751455E+03  0.22875751455E+03  0.00000000000E+00 0. -1.
         25    2    1    2    0    0  0.10175014612E+03 -0.13973222601E+03  0.11376193948E+03  0.24174774661E+03  0.12498802701E+03 0.  0.
          2    1    1    2  501    0 -0.59014036875E+02  0.34233409480E+02 -0.15394214258E+03  0.16838279644E+03  0.00000000000E+00 0. -1.
          1    1    1    2  502    0 -0.42736109241E+02  0.10549881653E+03  0.89561124390E+03  0.90281552686E+03  0.00000000000E+00 0. -1.
         22    1    3    3    0    0  0.11994703805E+03 -0.14939035765E+03  0.10963771882E+03  0.22073785421E+03  0.00000000000E+00 0. -1.
         22    1    3    3    0    0 -0.18196891930E+02  0.96581316335E+01  0.41242206590E+01  0.21009892399E+02  0.00000000000E+00 0. -1.
</event>
<event>
 7    1  0.6105960E-006  0.7786761E+02  0.7818608E-02  0.1436533E+00
          2   -1    0    0  502    0  0.00000000000E+00  0.00000000000E+00  0.30217144335E+03  0.30217144335E+03  0.00000000000E+00 0. -1.
          1   -1    0    0  501    0 -0.00000000000E+00 -0.00000000000E+00 -0.93516557125E+03  0.93516557125E+03  0.00000000000E+00 0. -1.
         25    2    1    2    0    0 -0.65223262372E+02 -0.72338632558E+02 -0.40623279084E+03  0.43604831187E+03  0.12500439281E+03 0.  0.
          2    1    1    2  501    0  0.34270000394E+02  0.10856549441E+01 -0.50818453163E+03  0.50933989610E+03  0.00000000000E+00 0. -1.
          1    1    1    2  502    0  0.30953261978E+02  0.71252977614E+02  0.28142319456E+03  0.29194880662E+03  0.00000000000E+00 0. -1.
         22    1    3    3    0    0 -0.54532092969E+02 -0.97568679986E+02 -0.38634831729E+03  0.40219201727E+03  0.00000000000E+00 0.  1.
         22    1    3    3    0    0 -0.10691169404E+02  0.25230047428E+02 -0.19884473544E+02  0.33856294608E+02  0.00000000000E+00 0.  1.
</event>
<event>
 7    1  0.6105960E-006  0.1779527E+03  0.7818608E-02  0.1273464E+00
          2   -1    0    0  502    0  0.00000000000E+00  0.00000000000E+00  0.19857756266E+04  0.19857756266E+04  0.00000000000E+00 0. -1.
          1   -1    0    0  501    0 -0.00000000000E+00 -0.00000000000E+00 -0.57159483270E+03  0.57159483270E+03  0.00000000000E+00 0. -1.
         25    2    1    2    0    0  0.49171450573E+01 -0.20155137943E+03 -0.13828655871E+03  0.27458288739E+03  0.12500181143E+03 0.  0.
          2    1    1    2  501    0 -0.51826949964E+02  0.30210075523E+02 -0.35854862737E+03  0.36353239139E+03  0.00000000000E+00 0. -1.
          1    1    1    2  502    0  0.46909804907E+02  0.17134130391E+03  0.19110159800E+04  0.19192551806E+04  0.00000000000E+00 0. -1.
         22    1    3    3    0    0 -0.40917840697E+02 -0.13197788266E+02 -0.19289941356E+02  0.47122745462E+02  0.00000000000E+00 0.  1.
         22    1    3    3    0    0  0.45834985754E+02 -0.18835359116E+03 -0.11899661735E+03  0.22746014192E+03  0.00000000000E+00 0.  1.
</event>
<event>
 7    1  0.6105960E-006  0.6779004E+02  0.7818608E-02  0.1394752E+00
          2   -1    0    0  502    0  0.00000000000E+00  0.00000000000E+00  0.13730998624E+04  0.13730998624E+04  0.00000000000E+00 0. -1.
          1   -1    0    0  501    0 -0.00000000000E+00 -0.00000000000E+00 -0.37272530106E+03  0.37272530106E+03  0.00000000000E+00 0. -1.
         25    2    1    2    0    0 -0.83626746962E+01 -0.76969212277E+02  0.80793929913E+03  0.82120961958E+03  0.12500053699E+03 0.  0.
          2    1    1    2  501    0  0.51646834651E+02  0.43978420299E+02 -0.36160302813E+03  0.36791065075E+03  0.00000000000E+00 0. -1.
          1    1    1    2  502    0 -0.43284159955E+02  0.32990791977E+02  0.55403829038E+03  0.55670489316E+03  0.00000000000E+00 0. -1.
         22    1    3    3    0    0 -0.30685825616E+02 -0.51273407455E+02  0.76038235491E+03  0.76272662722E+03  0.00000000000E+00 0. -1.
         22    1    3    3    0    0  0.22323150920E+02 -0.25695804822E+02  0.47556944216E+02  0.58482992361E+02  0.00000000000E+00 0. -1.
</event>
<event>
 7    1  0.6105960E-006  0.5071831E+02  0.7818608E-02  0.1453828E+00
          2   -1    0    0  502    0  0.00000000000E+00  0.00000000000E+00  0.29458282302E+04  0.29458282302E+04  0.00000000000E+00 0. -1.
          1   -1    0    0  501    0 -0.00000000000E+00 -0.00000000000E+00 -0.33693803403E+03  0.33693803403E+03  0.00000000000E+00 0. -1.
         25    2    1    2    0    0 -0.57390947434E+02 -0.28687867258E+02  0.12476920429E+04  0.12555790916E+04  0.12500682708E+03 0.  0.
          2    1    1    2  501    0  0.90901400189E+01  0.45401550899E+02 -0.33099720991E+03  0.33422011375E+03  0.00000000000E+00 0. -1.
          1    1    1    2  502    0  0.48300807415E+02 -0.16713683642E+02  0.16921953632E+04  0.16929670589E+04  0.00000000000E+00 0. -1.
         22    1    3    3    0    0 -0.60744779489E+02  0.25126829720E+02  0.99646970646E+03  0.99863565012E+03  0.00000000000E+00 0.  1.
         22    1    3    3    0    0  0.33538320547E+01 -0.53814696978E+02  0.25122233647E+03  0.25694344153E+03  0.00000000000E+00 0.  1.
</event>
<event>
 7    1  0.6105960E-006  0.6650612E+02  0.7818608E-02  0.1375403E+00
          2   -1    0    0  502    0  0.00000000000E+00  0.00000000000E+00  0.20917228133E+04  0.20917228133E+04  0.00000000000E+00 0. -1.
          1   -1    0    0  501    0 -0.00000000000E+00 -0.00000000000E+00 -0.21587395607E+03  0.21587395607E+03  0.00000000000E+00 0. -1.
         25    2    1    2    0    0 -0.10393601179E+03 -0.13736244777E+02  0.98846744454E+03  0.10018402097E+04  0.12499815179E+03 0.  0.
          2    1    1    2  501    0  0.58095389581E+02 -0.32176379935E+02 -0.20292798696E+03  0.21351852755E+03  0.00000000000E+00 0. -1.
          1    1    1    2  502    0  0.45840622206E+02  0.45912624712E+02  0.10903093997E+04  0.10922380321E+04  0.00000000000E+00 0. -1.
         22    1    3    3    0    0 -0.58102299445E+01  0.45488728156E+02  0.20747704208E+03  0.21248460215E+03  0.00000000000E+00 0. -1.
         22    1    3    3    0    0 -0.98125781843E+02 -0.59224972933E+02  0.78099040246E+03  0.78935560758E+03  0.00000000000E+00 0. -1.
</event>
<event>
 7    1  0.6105960E-006  0.1899560E+03  0.7818608E-02  0.1324112E+00
          2   -1    0    0  502    0  0.00000000000E+00  0.00000000000E+00  0.14870509566E+04  0.14870509566E+04  0.00000000000E+00 0. -1.
          1   -1    0    0  501    0 -0.00000000000E+00 -0.00000000000E+00 -0.67054218835E+03  0.67054218835E+03  0.00000000000E+00 0. -1.
         25    2    1    2    0    0 -0.66237133507E+02  0.15115992959E+03  0.15354496951E+03  0.25775507208E+03  0.12499974940E+03 0.  0.
          2    1    1    2  501    0 -0.31322694330E+02  0.16051825239E+02 -0.61061562432E+03  0.61162914658E+03  0.00000000000E+00 0. -1.
          1    1    1    2  502    0  0.97559827837E+02 -0.16721175483E+03  0.12735794230E+04  0.12882089263E+04  0.00000000000E+00 0. -1.
         22    1    3    3    0    0 -0.13825212976E+02  0.43752649011E+02 -0.17486803390E+02  0.49104165833E+02  0.00000000000E+00 0.  1.
         22    1    3    3    0    0 -0.52411920531E+02  0.10740728058E+03  0.17103177290E+03  0.20865090624E+03  0.00000000000E+00 0.  1.
</event>
<event>
 7    1  0.6105960E-006  0.6765066E+02  0.7818608E-02  0.1491572E+00
          2   -1    0    0  502    0  0.00000000000E+00  0.00000000000E+00  0.30122001518E+04  0.30122001518E+04  0.00000000000E+00 0. -1.
          1   -1    0    0  501    0 -0.00000000000E+00 -0.00000000000E+00 -0.82856537013E+03  0.82856537013E+03  0.00000000000E+00 0. -1.
         25    2    1    2    0    0 -0.36991727036E+02  0.59890100928E+02  0.14651075640E+04  0.14721139708E+04  0.12499662716E+03 0.  0.
          2    1    1    2  501    0  0.25546168720E+02  0.71061047237E+01 -0.82410065060E+03  0.82452712859E+03  0.00000000000E+00 0. -1.
          1    1    1    2  502    0  0.11445558316E+02 -0.66996205651E+02  0.15426278683E+04  0.15441244226E+04  0.00000000000E+00 0. -1.
         22    1    3    3    0    0  0.43437614959E+02  0.36421944029E+02  0.45037795471E+03  0.45393136760E+03  0.00000000000E+00 0.  1.
         22    1    3    3    0    0 -0.80429341994E+02  0.23468156899E+02  0.10147296093E+04  0.10181826032E+04  0.00000000000E+00 0.  1.
</event>
<event>
 7    1  0.6105960E-006  0.7507552E+02  0.7818608E-02  0.1362138E+00
          2   -1    0    0  502    0  0.00000000000E+00  0.00000000000E+00  0.97015821040E+02  0.97015821040E+02  0.00000000000E+00 0. -1.
          1   -1    0    0  501    0 -0.00000000000E+00 -0.00000000000E+00 -0.11451622569E+04  0.11451622569E+04  0.00000000000E+00 0. -1.
         25    2    1    2    0    0 -0.52568582626E+02 -0.24866033219E+02 -0.37204055426E+03  0.39676433006E+03  0.12500393638E+03 0.  0.
          2    1    1    2  501    0  0.73411183607E+02 -0.35811791709E+02 -0.74604605856E+03  0.75050410245E+03  0.00000000000E+00 0. -1.
          1    1    1    2  502    0 -0.20842600981E+02  0.60677824928E+02  0.69940176921E+02  0.94909645460E+02  0.00000000000E+00 0. -1.
         22    1    3    3    0    0  0.40724021407E+02 -0.61434215687E+01 -0.14114278567E+03  0.14702881858E+03  0.00000000000E+00 0. -1.
         22    1    3    3    0    0 -0.93292604034E+02 -0.18722611650E+02 -0.23089776859E+03  0.24973551148E+03  0.00000000000E+00 0. -1.
</event>
<event>
 7    1  0.6105960E-006  0.6587818E+02  0.7818608E-02  0.1452027E+00
          2   -1    0    0  502    0  0.00000000000E+00  0.00000000000E+00  0.13435982086E+04  0.13435982086E+04  0.00000000000E+00 0. -1.
          1   -1    0    0  501    0 -0.00000000000E+00 -0.00000000000E+00 -0.10519412366E+03  0.10519412366E+03  0.00000000000E+00 0. -1.
         25    2    1    2    0    0  0.19923787252E+02  0.73228735368E+02  0.20427823329E+02  0.14765531068E+03  0.12500155929E+03 0.  0.
          2    1    1    2  501    0  0.25525638144E+02 -0.25558166584E+02 -0.32701938137E+02  0.48725710254E+02  0.00000000000E+00 0. -1.
          1    1    1    2  502    0 -0.45449425396E+02 -0.47670568784E+02  0.12506781998E+04  0.12524113114E+04  0.00000000000E+00 0. -1.
         22    1    3    3    0    0 -0.44324228136E+01 -0.14395578848E+02  0.49843837901E+02  0.52070022460E+02  0.00000000000E+00 0.  1.
         22    1    3    3    0    0  0.24356210066E+02  0.87624314216E+02 -0.29416014571E+02  0.95585288219E+02  0.00000000000E+00 0.  1.
</event>
<event>
 7    1  0.6105960E-006  0.9703738E+02  0.7818608E-02  0.1296277E+00
          2   -1    0    0  502    0  0.00000000000E+00  0.00000000000E+00  0.36359875623E+03  0.36359875623E+03  0.00000000000E+00 0. -1.
          1   -1    0    0  501    0 -0.00000000000E+00 -0.00000000000E+00 -0.13892711367E+04  0.13892711367E+04  0.00000000000E+00 0. -1.
         25    2    1    2    0    0  0.80750466304E+02 -0.15052300746E+03 -0.18819916512E+03  0.28324586315E+03  0.12502591593E+03 0.  0.
          2    1    1    2  501    0 -0.12765840505E+02  0.93564309692E+02 -0.11453452463E+04  0.11492314736E+04  0.00000000000E+00 0. -1.
          1    1    1    2  502    0 -0.67984625799E+02  0.56958697768E+02  0.30787203096E+03  0.32039255616E+03  0.00000000000E+00 0. -1.
         22    1    3    3    0    0  0.13129630257E+02  0.15234058541E+02 -0.59386740304E+02  0.62699670288E+02  0.00000000000E+00 0. -1.
         22    1    3    3    0    0  0.67620836047E+02 -0.16575706600E+03 -0.12881242482E+03  0.22054619286E+03  0.00000000000E+00 0. -1.
</event>
<event>
 7    1  0.6105960E-006  0.5913277E+02  0.7818608E-02  0.1481498E+00
          2   -1    0    0  502    0  0.00000000000E+00  0.00000000000E+00  0.28118166179E+04  0.28118166179E+04  0.00000000000E+00 0. -1.
          1   -1    0    0  501    0 -0.00000000000E+00 -0.00000000000E+00 -0.18444960997E+03  0.18444960997E+03  0.00000000000E+00 0. -1.
         25    2    1    2    0    0  0.70728959480E+01 -0.28274400267E+02  0.21325541975E+01  0.12837033416E+03  0.12499970935E+03 0.  0.
          2    1    1    2  501    0  0.23496969839E+02 -0.22528625724E+02 -0.11882131456E+03  0.12319964027E+03  0.00000000000E+00 0. -1.
          1    1    1    2  502    0 -0.30569865787E+02  0.50803025992E+02  0.27440557683E+04  0.27446962535E+04  0.00000000000E+00 0. -1.
         22    1    3    3    0    0 -0.47518355814E+02 -0.49103582330E+02 -0.88985621956E+01  0.68908202314E+02  0.00000000000E+00 0.  1.
         22    1    3    3    0    0  0.54591251762E+02  0.20829182063E+02  0.11031116393E+02  0.59462131843E+02  0.00000000000E+00 0.  1.
</event>
<event>
 7    1  0.6105960E-006  0.1093976E+03  0.7818608E-02  0.1391342E+00
          2   -1    0    0  502    0  0.00000000000E+00  0.00000000000E+00  0.34429889596E+03  0.34429889596E+03  0.00000000000E+00 0. -1.
          1   -1    0    0  501    0 -0.00000000000E+00 -0.00000000000E+00 -0.20350719257E+03  0.20350719257E+03  0.00000000000E+00 0. -1.
         25    2    1    2    0    0 -0.42990347059E+01  0.10664093510E+03 -0.11825240838E+03  0.20248085057E+03  0.12499636804E+03 0.  0.
          2    1    1    2  501    0  0.38625055994E+02 -0.11141791435E+03  0.41461174743E+02  0.12499950240E+03  0.00000000000E+00 0. -1.
          1    1    1    2  502    0 -0.34326021288E+02  0.47769792495E+01  0.21758293702E+03  0.22032573556E+03  0.00000000000E+00 0. -1.
         22    1    3    3    0    0  0.55961115120E+01 -0.26465908238E+02 -0.38309018606E+02  0.46897139246E+02  0.00000000000E+00 0. -1.
         22    1    3    3    0    0 -0.98951462180E+01  0.13310684334E+03 -0.79943389770E+02  0.15558371132E+03  0.00000000000E+00 0. -1.
</event>
<event>
 7    1  0.6105960E-006  0.2165162E+03  0.7818608E-02  0.1281436E+00
          2   -1    0    0  502    0  0.00000000000E+00  0.00000000000E+00  0.21140548812E+04  0.21140548812E+04  0.00000000000E+00 0. -1.
          1   -1    0    0  501    0 -0.00000000000E+00 -0.00000000000E+00 -0.55647167841E+03  0.55647167841E+03  0.00000000000E+00 0. -1.
         25    2    1    2    0    0  0.23671197833E+03 -0.11652274863E+02 -0.14403857929E+03  0.30421537571E+03  0.12502618246E+03 0.  0.
          2    1    1    2  501    0 -0.20764529083E+03 -0.23597326561E+02 -0.29920563048E+03  0.36496220343E+03  0.00000000000E+00 0. -1.
          1    1    1    2  502    0 -0.29066687500E+02  0.35249601424E+02  0.20008274126E+04  0.20013489805E+04  0.00000000000E+00 0. -1.
         22    1    3    3    0    0  0.24710779088E+02  0.41898603464E+02 -0.18236235647E+02  0.51948781179E+02  0.00000000000E+00 0. -1.
         22    1    3    3    0    0  0.21200119925E+03 -0.53550878327E+02 -0.12580234365E+03  0.25226659454E+03  0.00000000000E+00 0. -1.
</event>
<event>
 7    1  0.6105960E-006  0.1420524E+03  0.7818608E-02  0.1261183E+00
          2   -1    0    0  502    0  0.00000000000E+00  0.00000000000E+00  0.19572135966E+04  0.19572135966E+04  0.00000000000E+00 0. -1.
          1   -1    0    0  501    0 -0.00000000000E+00 -0.00000000000E+00 -0.15817472773E+04  0.15817472773E+04  0.00000000000E+00 0. -1.
         25    2    1    2    0    0 -0.71884720720E+02 -0.18893490716E+02  0.89049064091E+02  0.17052658899E+03  0.12500081868E+03 0.  0.
          2    1    1    2  501    0 -0.73810066454E+02  0.41483434758E+02 -0.15368676061E+04  0.15391981159E+04  0.00000000000E+00 0. -1.
          1    1    1    2  502    0  0.14569478717E+03 -0.22589944042E+02  0.18232848613E+04  0.18292361690E+04  0.00000000000E+00 0. -1.
         22    1    3    3    0    0 -0.17453717260E+02  0.48280661363E+02  0.78855816979E+01  0.51940705681E+02  0.00000000000E+00 0.  1.
         22    1    3    3    0    0 -0.54431003459E+02 -0.67174152080E+02  0.81163482393E+02  0.11858588331E+03  0.00000000000E+00 0.  1.
</event>
<event>
 7    1  0.6105960E-006  0.3164448E+02  0.7818608E-02  0.1602917E+00
          2   -1    0    0  502    0  0.00000000000E+00  0.00000000000E+00  0.71302537333E+03  0.71302537333E+03  0.00000000000E+00 0. -1.
          1   -1    0    0  501    0 -0.00000000000E+00 -0.00000000000E+00 -0.13859774716E+02  0.13859774716E+02  0.00000000000E+00 0. -1.
         25    2    1    2    0    0 -0.21893084973E+02  0.25294302220E+01  0.42673602803E+03  0.44521102334E+03  0.12499404988E+03 0.  0.
          2    1    1    2  501    0  0.18176869544E+02 -0.29905525955E+02  0.80661338041E+02  0.87926051450E+02  0.00000000000E+00 0. -1.
          1    1    1    2  502    0  0.37162154287E+01  0.27376095733E+02  0.19176823255E+03  0.19374807325E+03  0.00000000000E+00 0. -1.
         22    1    3    3    0    0  0.10449100527E+01  0.40769483204E+02  0.37370444294E+03  0.37592320129E+03  0.00000000000E+00 0. -1.
         22    1    3    3    0    0 -0.22937995026E+02 -0.38240052982E+02  0.53031585090E+02  0.69287822054E+02  0.00000000000E+00 0. -1.
</event>
<event>
 7    1  0.6105960E-006  0.6587119E+02  0.7818608E-02  0.1461474E+00
          2   -1    0    0  502    0  0.00000000000E+00  0.00000000000E+00  0.10479594457E+04  0.10479594457E+04  0.00000000000E+00 0. -1.
          1   -1    0    0  501    0 -0.00000000000E+00 -0.00000000000E+00 -0.20245971873E+02  0.20245971873E+02  0.00000000000E+00 0. -1.
         25    2    1    2    0    0  0.28739401371E+02  0.22856786835E+02  0.62437009913E+03  0.63781760876E+03  0.12499958183E+03 0.  0.
          2    1    1    2  501    0 -0.56381718320E+02 -0.42166819967E+02  0.85484185800E+02  0.11074513483E+03  0.00000000000E+00 0. -1.
          1    1    1    2  502    0  0.27642316949E+02  0.19310033131E+02  0.31785918894E+03  0.31964267402E+03  0.00000000000E+00 0. -1.
         22    1    3    3    0    0 -0.28523367517E+02  0.42560364073E+02  0.12967089735E+03  0.13942563862E+03  0.00000000000E+00 0. -1.
         22    1    3    3    0    0  0.57262768888E+02 -0.19703577237E+02  0.49469920178E+03  0.49839197014E+03  0.00000000000E+00 0. -1.
</event>
<event>
 7    1  0.6105960E-006  0.8813521E+02  0.7818608E-02  0.1394041E+00
          2   -1    0    0  502    0  0.00000000000E+00  0.00000000000E+00  0.16048786386E+03  0.16048786386E+03  0.00000000000E+00 0. -1.
          1   -1    0    0  501    0 -0.00000000000E+00 -0.00000000000E+00 -0.82422294043E+03  0.82422294043E+03  0.00000000000E+00 0. -1.
         25    2    1    2    0    0  0.44966620324E+02  0.20856914254E+02 -0.38449897173E+03  0.40733417758E+03  0.12499866060E+03 0.  0.
          2    1    1    2  501    0  0.42098195028E+02 -0.18017599514E+00 -0.41371163617E+03  0.41584805926E+03  0.00000000000E+00 0. -1.
          1    1    1    2  502    0 -0.87064815352E+02 -0.20676738259E+02  0.13447553132E+03  0.16152856745E+03  0.00000000000E+00 0. -1.
         22    1    3    3    0    0 -0.58459886066E+01 -0.38665953295E+02 -0.23847610917E+03  0.24166109776E+03  0.00000000000E+00 0. -1.
         22    1    3    3    0    0  0.50812608931E+02  0.59522867549E+02 -0.14602286256E+03  0.16567307982E+03  0.00000000000E+00 0. -1.
</event>
<event>
 7    1  0.6105960E-006  0.1744494E+03  0.7818608E-02  0.1252463E+00
          2   -1    0    0  502    0  0.00000000000E+00  0.00000000000E+00  0.12281677070E+04  0.12281677070E+04  0.00000000000E+00 0. -1.
          1   -1    0    0  501    0 -0.00000000000E+00 -0.00000000000E+00 -0.15226133979E+04  0.15226133979E+04  0.00000000000E+00 0. -1.
         25    2    1    2    0    0  0.13732688305E+03 -0.65193761640E+02  0.61868952443E+03  0.64923875591E+03  0.12500134067E+03 0.  0.
          2    1    1    2  501    0 -0.17474554450E+03  0.24699955788E-01 -0.14998697663E+04  0.15100150071E+04  0.00000000000E+00 0. -1.
          1    1    1    2  502    0  0.37418661448E+02  0.65169061684E+02  0.58673455096E+03  0.59152734181E+03  0.00000000000E+00 0. -1.
         22    1    3    3    0    0  0.13334257410E+03 -0.64550585492E+02  0.62468513715E+03  0.64201132446E+03  0.00000000000E+00 0.  1.
         22    1    3    3    0    0  0.39843089471E+01 -0.64317614766E+00 -0.59956127254E+01  0.72274314452E+01  0.00000000000E+00 0.  1.
</event>
<event>
 7    1  0.6105960E-006  0.1559944E+03  0.7818608E-02  0.1369200E+00
          2   -1    0    0  502    0  0.00000000000E+00  0.00000000000E+00  0.15227726063E+04  0.15227726063E+04  0.00000000000E+00 0. -1.
          1   -1    0    0  501    0 -0.00000000000E+00 -0.00000000000E+00 -0.65410141660E+03  0.65410141660E+03  0.00000000000E+00 0. -1.
         25    2    1    2    0    0  0.84214859930E+02  0.11838212388E+03  0.41380547661E+03  0.45603289433E+03  0.12499823339E+03 0.  0.
          2    1    1    2  501    0  0.28547748363E+02 -0.57076635803E+01 -0.62680833560E+03  0.62748405632E+03  0.00000000000E+00 0. -1.
          1    1    1    2  502    0 -0.11276260829E+03 -0.11267446029E+03  0.10816740487E+04  0.10933570723E+04  0.00000000000E+00 0. -1.
         22    1    3    3    0    0 -0.19658908652E+02  0.20797044651E+02  0.14555242858E+02  0.32106772654E+02  0.00000000000E+00 0. -1.
         22    1    3    3    0    0  0.10387376858E+03  0.97585079225E+02  0.39925023375E+03  0.42392612168E+03  0.00000000000E+00 0. -1.
</event>
<event>
 7    1  0.6105960E-006  0.4855214E+02  0.7818608E-02  0.1538428E+00
          2   -1    0    0  502    0  0.00000000000E+00  0.00000000000E+00  0.23770859027E+04  0.23770859027E+04  0.00000000000E+00 0. -1.
          1   -1    0    0  501    0 -0.00000000000E+00 -0.00000000000E+00 -0.73175803173E+03  0.73175803173E+03  0.00000000000E+00 0. -1.
         25    2    1    2    0    0 -0.21589616760E+02  0.53142978658E+02 -0.48447388135E+03  0.50361683877E+03  0.12499876337E+03 0.  0.
          2    1    1    2  501    0 -0.15622892177E+02 -0.21959091781E+02 -0.23669906134E+03  0.23822829830E+03  0.00000000000E+00 0. -1.
          1    1    1    2  502    0  0.37212508937E+02 -0.31183886877E+02  0.23665008137E+04  0.23669987974E+04  0.00000000000E+00 0. -1.
         22    1    3    3    0    0 -0.43652018741E+02 -0.28009019965E+02 -0.22298378410E+03  0.22893617432E+03  0.00000000000E+00 0. -1.
         22    1    3    3    0    0  0.22062401980E+02  0.81151998623E+02 -0.26149009725E+03  0.27468066445E+03  0.00000000000E+00 0. -1.
</event>
<event>
 7    1  0.6105960E-006  0.9693260E+02  0.7818608E-02  0.1302768E+00
          2   -1    0    0  502    0  0.00000000000E+00  0.00000000000E+00  0.27277245138E+03  0.27277245138E+03  0.00000000000E+00 0. -1.
          1   -1    0    0  501    0 -0.00000000000E+00 -0.00000000000E+00 -0.49316486921E+03  0.49316486921E+03  0.00000000000E+00 0. -1.
         25    2    1    2    0    0  0.19029863505E+01 -0.23430922456E+02 -0.18314884859E+03  0.22298221455E+03  0.12499975112E+03 0.  0.
          2    1    1    2  501    0  0.66356197665E+02 -0.50896541541E+02 -0.27352600658E+03  0.28602461290E+03  0.00000000000E+00 0. -1.
          1    1    1    2  502    0 -0.68259184016E+02  0.74327463997E+02  0.23628243735E+03  0.25693049314E+03  0.00000000000E+00 0. -1.
         22    1    3    3    0    0  0.16668388595E+02 -0.22299085242E+02 -0.19920418963E+03  0.20114023353E+03  0.00000000000E+00 0.  1.
         22    1    3    3    0    0 -0.14765402244E+02 -0.11318372136E+01  0.16055341035E+02  0.21841981015E+02  0.00000000000E+00 0.  1.
</event>
<event>
 7    1  0.6105960E-006  0.6567496E+02  0.7818608E-02  0.1440793E+00
          2   -1    0    0  502    0  0.00000000000E+00  0.00000000000E+00  0.17533763608E+04  0.17533763608E+04  0.00000000000E+00 0. -1.
          1   -1    0    0  501    0 -0.00000000000E+00 -0.00000000000E+00 -0.35347547180E+03  0.35347547180E+03  0.00000000000E+00 0. -1.
         25    2    1    2    0    0  0.40778896988E+02 -0.77631926345E+01  0.37543090464E+03  0.39787292113E+03  0.12502524388E+03 0.  0.
          2    1    1    2  501    0  0.22607063046E+02  0.32240196935E+02 -0.34027386691E+03  0.34254461622E+03  0.00000000000E+00 0. -1.
          1    1    1    2  502    0 -0.63385960034E+02 -0.24477004300E+02  0.13647438513E+04  0.13664342953E+04  0.00000000000E+00 0. -1.
         22    1    3    3    0    0  0.68980406339E+02  0.17888435697E+02  0.33422161715E+03  0.34173437340E+03  0.00000000000E+00 0. -1.
         22    1    3    3    0    0 -0.28201509351E+02 -0.25651628332E+02  0.41209287495E+02  0.56138547733E+02  0.00000000000E+00 0. -1.
</event>
<event>
 7    1  0.6154179E-006  0.8315576E+02  0.7818608E-02  0.1409605E+00
          2   -1    0    0  502    0  0.00000000000E+00  0.00000000000E+00  0.77295148139E+03  0.77295148139E+03  0.00000000000E+00 0. -1.
          1   -1    0    0  501    0 -0.00000000000E+00 -0.00000000000E+00 -0.29770022758E+04  0.29770022758E+04  0.00000000000E+00 0. -1.
         25    2    1    2    0    0  0.56752900015E+02 -0.24936973439E+02 -0.45853260538E+03  0.47929126585E+03  0.12500089208E+03 0.  0.
          2    1    1    2  501    0 -0.37151340319E+01 -0.39283705243E+02 -0.25056602275E+04  0.25059709071E+04  0.00000000000E+00 0. -1.
          1    1    1    2  502    0 -0.53037765983E+02  0.64220678682E+02  0.76014203851E+03  0.76469158417E+03  0.00000000000E+00 0. -1.
         22    1    3    3    0    0  0.59886020505E+02  0.32145862731E+02 -0.13950176096E+03  0.15517871392E+03  0.00000000000E+00 0.  1.
         22    1    3    3    0    0 -0.31331204896E+01 -0.57082836171E+02 -0.31903084442E+03  0.32411255194E+03  0.00000000000E+00 0.  1.
</event>
<event>
 7    1  0.6105960E-006  0.9620886E+02  0.7818608E-02  0.1357443E+00
          2   -1    0    0  502    0  0.00000000000E+00  0.00000000000E+00  0.69166020388E+02  0.69166020388E+02  0.00000000000E+00 0. -1.
          1   -1    0    0  501    0 -0.00000000000E+00 -0.00000000000E+00 -0.50812745567E+03  0.50812745567E+03  0.00000000000E+00 0. -1.
         25    2    1    2    0    0 -0.10551279097E+03 -0.83413955414E+02 -0.24821542954E+03  0.30875206456E+03  0.12500440350E+03 0.  0.
          2    1    1    2  501    0  0.50256538548E+02  0.13660563538E+02 -0.16912884938E+03  0.17696581126E+03  0.00000000000E+00 0. -1.
          1    1    1    2  502    0  0.55256252421E+02  0.69753391877E+02 -0.21617156372E+02  0.91575600241E+02  0.00000000000E+00 0. -1.
         22    1    3    3    0    0 -0.11519239232E+03 -0.41662522721E+02 -0.23306334194E+03  0.26329370369E+03  0.00000000000E+00 0. -1.
         22    1    3    3    0    0  0.96796013550E+01 -0.41751432694E+02 -0.15152087599E+02  0.45458360870E+02  0.00000000000E+00 0. -1.
</event>
<event>
 7    1  0.6105960E-006  0.3131460E+02  0.7818608E-02  0.1603105E+00
          2   -1    0    0  502    0  0.00000000000E+00  0.00000000000E+00  0.23353030651E+03  0.23353030651E+03  0.00000000000E+00 0. -1.
          1   -1    0    0  501    0 -0.00000000000E+00 -0.00000000000E+00 -0.51607147439E+03  0.51607147439E+03  0.00000000000E+00 0. -1.
         25    2    1    2    0    0  0.28301067383E+02 -0.24420750097E+02  0.16926922954E+03  0.21371614688E+03  0.12500078367E+03 0.  0.
          2    1    1    2  501    0  0.36931482999E+01  0.27641192139E+02 -0.48724118263E+03  0.48803856907E+03  0.00000000000E+00 0. -1.
          1    1    1    2  502    0 -0.31994215683E+02 -0.32204420426E+01  0.35430785210E+02  0.47847064954E+02  0.00000000000E+00 0. -1.
         22    1    3    3    0    0 -0.41531774675E+02  0.17270501357E+02  0.87512360456E+02  0.98394978314E+02  0.00000000000E+00 0.  1.
         22    1    3    3    0    0  0.69832842059E+02 -0.41691251454E+02  0.81756869086E+02  0.11532116857E+03  0.00000000000E+00 0.  1.
</event>
<event>
 7    1  0.6105960E-006  0.4321616E+02  0.7818608E-02  0.1499976E+00
          2   -1    0    0  502    0  0.00000000000E+00  0.00000000000E+00  0.20413842625E+02  0.20413842625E+02  0.00000000000E+00 0. -1.
          1   -1    0    0  501    0 -0.00000000000E+00 -0.00000000000E+00 -0.26241833281E+04  0.26241833281E+04  0.00000000000E+00 0. -1.
         25    2    1    2    0    0  0.17908951224E+02  0.23309214397E+02 -0.21465159850E+03  0.25012923248E+03  0.12500109676E+03 0.  0.
          2    1    1    2  501    0 -0.19309134683E+02  0.38662562906E+02 -0.19980861132E+04  0.19985534149E+04  0.00000000000E+00 0. -1.
          1    1    1    2  502    0  0.14001834587E+01 -0.61971777302E+02 -0.39103177379E+03  0.39591452336E+03  0.00000000000E+00 0. -1.
         22    1    3    3    0    0  0.63334203152E+02  0.44199056572E+02 -0.14641208329E+03  0.16553330790E+03  0.00000000000E+00 0. -1.
         22    1    3    3    0    0 -0.45425251928E+02 -0.20889842175E+02 -0.68239515204E+02  0.84595924571E+02  0.00000000000E+00 0. -1.
</event>
<event>
 7    1  0.6105960E-006  0.5887703E+02  0.7818608E-02  0.1415009E+00
          2   -1    0    0  502    0  0.00000000000E+00  0.00000000000E+00  0.25942835394E+03  0.25942835394E+03  0.00000000000E+00 0. -1.
          1   -1    0    0  501    0 -0.00000000000E+00 -0.00000000000E+00 -0.11127036062E+04  0.11127036062E+04  0.00000000000E+00 0. -1.
         25    2    1    2    0    0  0.87444741939E+01 -0.66199962008E+02 -0.42549027093E+02  0.14798428771E+03  0.12502011400E+03 0.  0.
          2    1    1    2  501    0  0.39756087297E+02  0.43768374876E+02 -0.10131070000E+04  0.10148310256E+04  0.00000000000E+00 0. -1.
          1    1    1    2  502    0 -0.48500561491E+02  0.22431587132E+02  0.20238077489E+03  0.20931664676E+03  0.00000000000E+00 0. -1.
         22    1    3    3    0    0 -0.47114553063E+02 -0.10688402659E+01 -0.40528132773E+02  0.62156681668E+02  0.00000000000E+00 0. -1.
         22    1    3    3    0    0  0.55859027257E+02 -0.65131121742E+02 -0.20208943199E+01  0.85827606045E+02  0.00000000000E+00 0. -1.
</event>
<event>
 7    1  0.6105960E-006  0.8109347E+02  0.7818608E-02  0.1450350E+00
          2   -1    0    0  502    0  0.00000000000E+00  0.00000000000E+00  0.95300375703E+03  0.95300375703E+03  0.00000000000E+00 0. -1.
          1   -1    0    0  501    0 -0.00000000000E+00 -0.00000000000E+00 -0.20113586072E+04  0.20113586072E+04  0.00000000000E+00 0. -1.
         25    2    1    2    0    0 -0.74308644032E+02 -0.22060434695E+02 -0.10710164859E+03  0.18193275815E+03  0.12498131061E+03 0.  0.
          2    1    1    2  501    0 -0.66012049820E+01  0.28965775018E+02 -0.18649223580E+04  0.18651589727E+04  0.00000000000E+00 0. -1.
          1    1    1    2  502    0  0.80909849014E+02 -0.69053403234E+01  0.91366915645E+03  0.91727063337E+03  0.00000000000E+00 0. -1.
         22    1    3    3    0    0 -0.43532864046E+02  0.27059144282E+02 -0.11259042660E+03  0.12370897988E+03  0.00000000000E+00 0. -1.
         22    1    3    3    0    0 -0.30775779985E+02 -0.49119578976E+02  0.54887780064E+01  0.58223778274E+02  0.00000000000E+00 0. -1.
</event>
<event>
 7    1  0.6105960E-006  0.2044280E+03  0.7818608E-02  0.1229028E+00
          2   -1    0    0  502    0  0.00000000000E+00  0.00000000000E+00  0.10545048919E+04  0.10545048919E+04  0.00000000000E+00 0. -1.
          1   -1    0    0  501    0 -0.00000000000E+00 -0.00000000000E+00 -0.69193820846E+03  0.69193820846E+03  0.00000000000E+00 0. -1.
         25    2    1    2    0    0 -0.10746400887E+03  0.94557291726E+02  0.97860374527E+02  0.21376024475E+03  0.12500877854E+03 0.  0.
          2    1    1    2  501    0 -0.78609109067E+02  0.20880623473E+02 -0.61794518207E+03  0.62327493172E+03  0.00000000000E+00 0. -1.
          1    1    1    2  502    0  0.18607311794E+03 -0.11543791520E+03  0.88265149099E+03  0.90940792389E+03  0.00000000000E+00 0. -1.
         22    1    3    3    0    0 -0.13300299670E+03  0.80417411958E+02  0.61544456182E+02  0.16716601737E+03  0.00000000000E+00 0.  1.
         22    1    3    3    0    0  0.25538987834E+02  0.14139879768E+02  0.36315918345E+02  0.46594227376E+02  0.00000000000E+00 0.  1.
</event>
<event>
 7    1  0.6105960E-006  0.2435379E+03  0.7818608E-02  0.1321286E+00
          2   -1    0    0  502    0  0.00000000000E+00  0.00000000000E+00  0.12359345693E+04  0.12359345693E+04  0.00000000000E+00 0. -1.
          1   -1    0    0  501    0 -0.00000000000E+00 -0.00000000000E+00 -0.10454026413E+04  0.10454026413E+04  0.00000000000E+00 0. -1.
         25    2    1    2    0    0  0.15389152093E+03  0.15520025698E+03  0.12878102135E+03  0.28280639393E+03  0.12500074001E+03 0.  0.
          2    1    1    2  501    0 -0.17901034255E+03 -0.16791072617E+03 -0.95264028449E+03  0.98374906676E+03  0.00000000000E+00 0. -1.
          1    1    1    2  502    0  0.25118821618E+02  0.12710469192E+02  0.10143911912E+04  0.10147817499E+04  0.00000000000E+00 0. -1.
         22    1    3    3    0    0 -0.62037923444E+01 -0.16058879534E+02  0.11183166114E+02  0.20528951646E+02  0.00000000000E+00 0.  1.
         22    1    3    3    0    0  0.16009531328E+03  0.17125913651E+03  0.11759785524E+03  0.26227744228E+03  0.00000000000E+00 0.  1.
</event>
<event>
 7    1  0.6105960E-006  0.4294302E+02  0.7818608E-02  0.1510326E+00
          2   -1    0    0  502    0  0.00000000000E+00  0.00000000000E+00  0.47967692639E+02  0.47967692639E+02  0.00000000000E+00 0. -1.
          1   -1    0    0  501    0 -0.00000000000E+00 -0.00000000000E+00 -0.20220772929E+04  0.20220772929E+04  0.00000000000E+00 0. -1.
         25    2    1    2    0    0 -0.18319926682E+02  0.61611611686E+02 -0.22153311524E+03  0.26236287375E+03  0.12500298382E+03 0.  0.
          2    1    1    2  501    0  0.30036444958E+02 -0.21136766926E+02 -0.17637156654E+04  0.17640980413E+04  0.00000000000E+00 0. -1.
          1    1    1    2  502    0 -0.11716518276E+02 -0.40474844760E+02  0.11139180400E+02  0.43584070471E+02  0.00000000000E+00 0. -1.
         22    1    3    3    0    0  0.43936699681E+02  0.28574376299E+02 -0.35169736062E+02  0.63117659133E+02  0.00000000000E+00 0.  1.
         22    1    3    3    0    0 -0.62256626363E+02  0.33037235387E+02 -0.18636337918E+03  0.19924521461E+03  0.00000000000E+00 0.  1.
</event>
<event>
 7    1  0.6105960E-006  0.1198737E+03  0.7818608E-02  0.1319684E+00
          2   -1    0    0  502    0  0.00000000000E+00  0.00000000000E+00  0.12646545393E+04  0.12646545393E+04  0.00000000000E+00 0. -1.
          1   -1    0    0  501    0 -0.00000000000E+00 -0.00000000000E+00 -0.13278036069E+04  0.13278036069E+04  0.00000000000E+00 0. -1.
         25    2    1    2    0    0 -0.16443429124E+03  0.23010574586E+01  0.19871449736E+03  0.28663204450E+03  0.12500618575E+03 0.  0.
          2    1    1    2  501    0  0.11491190639E+03 -0.32525840918E+02 -0.12802400627E+04  0.12857983103E+04  0.00000000000E+00 0. -1.
          1    1    1    2  502    0  0.49522384846E+02  0.30224783459E+02  0.10183764977E+04  0.10200277914E+04  0.00000000000E+00 0. -1.
         22    1    3    3    0    0 -0.18020595996E+03  0.20939458227E+02  0.18245002967E+03  0.25729489354E+03  0.00000000000E+00 0.  1.
         22    1    3    3    0    0  0.15771668720E+02 -0.18638400769E+02  0.16264467692E+02  0.29337150965E+02  0.00000000000E+00 0.  1.
</event>
<event>
 7    1  0.6105960E-006  0.2353262E+03  0.7818608E-02  0.1328032E+00
          2   -1    0    0  502    0  0.00000000000E+00  0.00000000000E+00  0.63498473513E+03  0.63498473513E+03  0.00000000000E+00 0. -1.
          1   -1    0    0  501    0 -0.00000000000E+00 -0.00000000000E+00 -0.28077202557E+03  0.28077202557E+03  0.00000000000E+00 0. -1.
         25    2    1    2    0    0 -0.12200898203E+03 -0.21621246876E+03  0.17607814556E+02  0.27851222604E+03  0.12500000631E+03 0.  0.
          2    1    1    2  501    0  0.12717040222E+03  0.18926037902E+03 -0.63109273365E+02  0.23658948128E+03  0.00000000000E+00 0. -1.
          1    1    1    2  502    0 -0.51614201921E+01  0.26952089742E+02  0.39971416837E+03  0.40065505337E+03  0.00000000000E+00 0. -1.
         22    1    3    3    0    0  0.74151396599E+00 -0.59258635134E+02 -0.39518277792E+02  0.71230821703E+02  0.00000000000E+00 0. -1.
         22    1    3    3    0    0 -0.12275049600E+03 -0.15695383363E+03  0.57126092348E+02  0.20728140434E+03  0.00000000000E+00 0. -1.
</event>
<event>
 7    1  0.6105960E-006  0.7104991E+02  0.7818608E-02  0.1437964E+00
          2   -1    0    0  502    0  0.00000000000E+00  0.00000000000E+00  0.32117596737E+04  0.32117596737E+04  0.00000000000E+00 0. -1.
          1   -1    0    0  501    0 -0.00000000000E+00 -0.00000000000E+00 -0.15686861059E+02  0.15686861059E+02  0.00000000000E+00 0. -1.
         25    2    1    2    0    0  0.41269094858E+02  0.65948033953E+01  0.48498428423E+03  0.50257476632E+03  0.12500004068E+03 0.  0.
          2    1    1    2  501    0  0.29940043138E+02 -0.22037302993E+02  0.47648885421E+02  0.60435628467E+02  0.00000000000E+00 0. -1.
          1    1    1    2  502    0 -0.71209137996E+02  0.15442499598E+02  0.26634396430E+04  0.26644361399E+04  0.00000000000E+00 0. -1.
         22    1    3    3    0    0 -0.43225515257E+01  0.14020525751E+02 -0.70994522900E+00  0.14688894317E+02  0.00000000000E+00 0.  1.
         22    1    3    3    0    0  0.45591646384E+02 -0.74257223553E+01  0.48569422946E+03  0.48788587200E+03  0.00000000000E+00 0.  1.
</event>
<event>
 7    1  0.6105960E-006  0.1062245E+03  0.7818608E-02  0.1437015E+00
          2   -1    0    0  502    0  0.00000000000E+00  0.00000000000E+00  0.29217179018E+03  0.29217179018E+03  0.00000000000E+00 0. -1.
          1   -1    0    0  501    0 -0.00000000000E+00 -0.00000000000E+00 -0.73766815124E+03  0.73766815124E+03  0.00000000000E+00 0. -1.
         25    2    1    2    0    0 -0.19492695640E+02 -0.97083909002E+02 -0.84416525059E+02  0.18043517312E+03  0.12500180568E+03 0.  0.
          2    1    1    2  501    0  0.22986905184E+02 -0.99384054346E+01 -0.59322527938E+03  0.59375365414E+03  0.00000000000E+00 0. -1.
          1    1    1    2  502    0 -0.34942095434E+01  0.10702231444E+03  0.23214544339E+03  0.25565111416E+03  0.00000000000E+00 0. -1.
         22    1    3    3    0    0  0.29752711799E+02  0.17345753980E+02 -0.12807373423E+02  0.36744085980E+02  0.00000000000E+00 0.  1.
         22    1    3    3    0    0 -0.49245407439E+02 -0.11442966298E+03 -0.71609151637E+02  0.14369108714E+03  0.00000000000E+00 0.  1.
</event>
<event>
 7    1  0.6105960E-006  0.7423852E+02  0.7818608E-02  0.1347750E+00
          2   -1    0    0  502    0  0.00000000000E+00  0.00000000000E+00  0.17811373840E+04  0.17811373840E+04  0.00000000000E+00 0. -1.
          1   -1    0    0  501    0 -0.00000000000E+00 -0.00000000000E+00 -0.20268993359E+04  0.20268993359E+04  0.00000000000E+00 0. -1.
         25    2    1    2    0    0 -0.19368369295E+02 -0.27897218149E+02 -0.84012147573E+02  0.15439107210E+03  0.12500069477E+03 0.  0.
          2    1    1    2  501    0 -0.51138030107E+02  0.52497245158E+02 -0.19061947774E+04  0.19076031003E+04  0.00000000000E+00 0. -1.
          1    1    1    2  502    0  0.70506399402E+02 -0.24600027010E+02  0.17444449730E+04  0.17460425475E+04  0.00000000000E+00 0. -1.
         22    1    3    3    0    0  0.11923891841E+02  0.45606360687E+02 -0.16973017193E+02  0.50101922562E+02  0.00000000000E+00 0.  1.
         22    1    3    3    0    0 -0.31292261136E+02 -0.73503578836E+02 -0.67039130380E+02  0.10428914953E+03  0.00000000000E+00 0.  1.
</event>
<event>
 7    1  0.6105960E-006  0.1970770E+03  0.7818608E-02  0.1330516E+00
          2   -1    0    0  502    0  0.00000000000E+00  0.00000000000E+00  0.92159371895E+03  0.92159371895E+03  0.00000000000E+00 0. -1.
          1   -1    0    0  501    0 -0.00000000000E+00 -0.00000000000E+00 -0.31938537423E+03  0.31938537423E+03  0.00000000000E+00 0. -1.
         25    2    1    2    0    0 -0.11823235397E+03 -0.15174151413E+03  0.20100550287E+03  0.30501169658E+03  0.12499818492E+03 0.  0.
          2    1    1    2  501    0  0.22596228087E+02 -0.22741324069E+02 -0.25153851245E+03  0.25357322530E+03  0.00000000000E+00 0. -1.
          1    1    1    2  502    0  0.95636125879E+02  0.17448283820E+03  0.65274135431E+03  0.68239417130E+03  0.00000000000E+00 0. -1.
         22    1    3    3    0    0 -0.12444398890E+03 -0.15014977429E+03  0.13149650584E+03  0.23520755120E+03  0.00000000000E+00 0. -1.
         22    1    3    3    0    0  0.62116349359E+01 -0.15917398347E+01  0.69508997030E+02  0.69804145381E+02  0.00000000000E+00 0. -1.
</event>
<event>
 7    1  0.6105960E-006  0.1870712E+03  0.7818608E-02  0.1308689E+00
          2   -1    0    0  502    0  0.00000000000E+00  0.00000000000E+00  0.12814632275E+04  0.12814632275E+04  0.00000000000E+00 0. -1.
          1   -1    0    0  501    0 -0.00000000000E+00 -0.00000000000E+00 -0.37129355538E+03  0.37129355538E+03  0.00000000000E+00 0. -1.
         25    2    1    2    0    0 -0.15313929112E+03 -0.87053698354E+02  0.16707568863E+03  0.27307478628E+03  0.12500225714E+03 0.  0.
          2    1    1    2  501    0 -0.27562601792E+02  0.30421590569E+02 -0.30847687276E+03  0.31119632263E+03  0.00000000000E+00 0. -1.
          1    1    1    2  502    0  0.18070189292E+03  0.56632107785E+02  0.10515708562E+04  0.10684856739E+04  0.00000000000E+00 0. -1.
         22    1    3    3    0    0 -0.74748458948E+02 -0.10037686597E+03  0.57601931718E+02  0.13777093262E+03  0.00000000000E+00 0. -1.
         22    1    3    3    0    0 -0.78390832175E+02  0.13323167612E+02  0.10947375691E+03  0.13530385367E+03  0.00000000000E+00 0. -1.
</event>
<event>
 7    1  0.6105960E-006  0.8372362E+02  0.7818608E-02  0.1328669E+00
          2   -1    0    0  502    0  0.00000000000E+00  0.00000000000E+00  0.19074920617E+04  0.19074920617E+04  0.00000000000E+00 0. -1.
          1   -1    0    0  501    0 -0.00000000000E+00 -0.00000000000E+00 -0.68600454154E+02  0.68600454154E+02  0.00000000000E+00 0. -1.
         25    2    1    2    0    0  0.40928556833E+02 -0.22681561910E+02  0.12170891786E+04  0.12243843391E+04  0.12498536379E+03 0.  0.
          2    1    1    2  501    0  0.80392445947E+02 -0.23381585317E+02 -0.28609244578E+02  0.88476735770E+02  0.00000000000E+00 0. -1.
          1    1    1    2  502    0 -0.12132100278E+03  0.46063147227E+02  0.65041167352E+03  0.66323144098E+03  0.00000000000E+00 0. -1.
         22    1    3    3    0    0  0.36719316734E+02  0.48976663167E+02  0.50973122500E+03  0.51339355615E+03  0.00000000000E+00 0.  1.
         22    1    3    3    0    0  0.42092400988E+01 -0.71658225077E+02  0.70735795356E+03  0.71099078291E+03  0.00000000000E+00 0.  1.
</event>
<event>
 7    1  0.6105960E-006  0.1140514E+03  0.7818608E-02  0.1268160E+00
          2   -1    0    0  502    0  0.00000000000E+00  0.00000000000E+00  0.88225137722E+03  0.88225137722E+03  0.00000000000E+00 0. -1.
          1   -1    0    0  501    0 -0.00000000000E+00 -0.00000000000E+00 -0.12523925503E+04  0.12523925503E+04  0.00000000000E+00 0. -1.
         25    2    1    2    0    0  0.12576302331E+02  0.12606302729E+03  0.29241175580E+03  0.34231938541E+03  0.12501150534E+03 0.  0.
          2    1    1    2  501    0  0.76809310519E+02 -0.84637009566E+02 -0.12204527912E+04  0.12257928492E+04  0.00000000000E+00 0. -1.
          1    1    1    2  502    0 -0.89385612850E+02 -0.41426017722E+02  0.55789986231E+03  0.56653169293E+03  0.00000000000E+00 0. -1.
         22    1    3    3    0    0 -0.29064056270E+02 -0.72663073632E+01  0.10107869472E+03  0.10542495490E+03  0.00000000000E+00 0.  1.
         22    1    3    3    0    0  0.41640358601E+02  0.13332933465E+03  0.19133306108E+03  0.23689443051E+03  0.00000000000E+00 0.  1.
</event>
<event>
 7    1  0.6105960E-006  0.1508750E+03  0.7818608E-02  0.1352912E+00
          2   -1    0    0  502    0  0.00000000000E+00  0.00000000000E+00  0.27581543829E+03  0.27581543829E+03  0.00000000000E+00 0. -1.
          1   -1    0    0  501    0 -0.00000000000E+00 -0.00000000000E+00 -0.25899710972E+03  0.25899710972E+03  0.00000000000E+00 0. -1.
         25    2    1    2    0    0  0.12660056223E+03  0.10379114137E+03 -0.91233727810E+02  0.22527433059E+03  0.12499851019E+03 0.  0.
          2    1    1    2  501    0 -0.92354347560E+02 -0.10803581615E+03 -0.47767963865E+02  0.14994279395E+03  0.00000000000E+00 0. -1.
          1    1    1    2  502    0 -0.34246214666E+02  0.42446747779E+01  0.15582002025E+03  0.15959542347E+03  0.00000000000E+00 0. -1.
         22    1    3    3    0    0  0.18199992277E+02  0.11205224131E+02 -0.79399523369E+02  0.82225793264E+02  0.00000000000E+00 0. -1.
         22    1    3    3    0    0  0.10840056995E+03  0.92585917241E+02 -0.11834204441E+02  0.14304853733E+03  0.00000000000E+00 0. -1.
</event>
<event>
 7    1  0.6105960E-006  0.1579218E+03  0.7818608E-02  0.1366748E+00
          2   -1    0    0  502    0  0.00000000000E+00  0.00000000000E+00  0.57422021543E+03  0.57422021543E+03  0.00000000000E+00 0. -1.
          1   -1    0    0  501    0 -0.00000000000E+00 -0.00000000000E+00 -0.16656080584E+04  0.16656080584E+04  0.00000000000E+00 0. -1.
         25    2    1    2    0    0 -0.53449563378E+01 -0.14741557924E+03  0.24069471586E+03  0.30873617867E+03  0.12499664083E+03 0.  0.
          2    1    1    2  501    0 -0.24989416643E+02 -0.15391275474E+02 -0.16085502330E+04  0.16088179557E+04  0.00000000000E+00 0. -1.
          1    1    1    2  502    0  0.30334372981E+02  0.16280685471E+03  0.27646767418E+03  0.32227413950E+03  0.00000000000E+00 0. -1.
         22    1    3    3    0    0  0.16847310754E+02 -0.80368257289E+02  0.22048074018E+03  0.23527567968E+03  0.00000000000E+00 0. -1.
         22    1    3    3    0    0 -0.22192267091E+02 -0.67047321950E+02  0.20213975678E+02  0.73460498991E+02  0.00000000000E+00 0. -1.
</event>
<event>
 7    1  0.6105960E-006  0.4518953E+02  0.7818608E-02  0.1520123E+00
          2   -1    0    0  502    0  0.00000000000E+00  0.00000000000E+00  0.12642837283E+04  0.12642837283E+04  0.00000000000E+00 0. -1.
          1   -1    0    0  501    0 -0.00000000000E+00 -0.00000000000E+00 -0.95632240190E+03  0.95632240190E+03  0.00000000000E+00 0. -1.
         25    2    1    2    0    0  0.14293365708E+02 -0.19778495046E+02 -0.16778732262E+03  0.21065032563E+03  0.12500193953E+03 0.  0.
          2    1    1    2  501    0 -0.45164839076E+02  0.90727431492E+01 -0.76619688392E+03  0.76758051193E+03  0.00000000000E+00 0. -1.
          1    1    1    2  502    0  0.30871473369E+02  0.10705751897E+02  0.12419455330E+04  0.12423752927E+04  0.00000000000E+00 0. -1.
         22    1    3    3    0    0 -0.18552361530E+02  0.31684005705E+02 -0.53307347548E+01  0.37100984743E+02  0.00000000000E+00 0. -1.
         22    1    3    3    0    0  0.32845727238E+02 -0.51462500751E+02 -0.16245658786E+03  0.17354934088E+03  0.00000000000E+00 0. -1.
</event>
<event>
 7    1  0.6105960E-006  0.2406450E+03  0.7818608E-02  0.1317325E+00
          2   -1    0    0  502    0  0.00000000000E+00  0.00000000000E+00  0.83153374332E+03  0.83153374332E+03  0.00000000000E+00 0. -1.
          1   -1    0    0  501    0 -0.00000000000E+00 -0.00000000000E+00 -0.42358313953E+03  0.42358313953E+03  0.00000000000E+00 0. -1.
         25    2    1    2    0    0 -0.16223079998E+03 -0.21037665921E+03  0.30142964062E+03  0.42078742491E+03  0.12500023005E+03 0.  0.
          2    1    1    2  501    0  0.15284550252E+03  0.18239123081E+03 -0.32444207281E+03  0.40235676622E+03  0.00000000000E+00 0. -1.
          1    1    1    2  502    0  0.93852974585E+01  0.27985428394E+02  0.43096303598E+03  0.43197269172E+03  0.00000000000E+00 0. -1.
         22    1    3    3    0    0 -0.25280456871E+02 -0.11856880910E+02 -0.74547554384E+01  0.28900873744E+02  0.00000000000E+00 0.  1.
         22    1    3    3    0    0 -0.13695034311E+03 -0.19851977830E+03  0.30888439606E+03  0.39188655116E+03  0.00000000000E+00 0.  1.
</event>
<event>
 7    1  0.6105960E-006  0.1409893E+03  0.7818608E-02  0.1354712E+00
          2   -1    0    0  502    0  0.00000000000E+00  0.00000000000E+00  0.28089238016E+04  0.28089238016E+04  0.00000000000E+00 0. -1.
          1   -1    0    0  501    0 -0.00000000000E+00 -0.00000000000E+00 -0.16849102443E+02  0.16849102443E+02  0.00000000000E+00 0. -1.
         25    2    1    2    0    0 -0.87983798459E+02  0.98594421982E+02  0.70325453391E+03  0.72640594741E+03  0.12504659980E+03 0.  0.
          2    1    1    2  501    0  0.21858176179E+02  0.29067114407E+02  0.12216290190E+03  0.12746156914E+03  0.00000000000E+00 0. -1.
          1    1    1    2  502    0  0.66125622280E+02 -0.12766153639E+03  0.19666572634E+04  0.19719053875E+04  0.00000000000E+00 0. -1.
         22    1    3    3    0    0  0.14099322734E+02  0.55310653694E+02  0.12229266469E+03  0.13495760501E+03  0.00000000000E+00 0. -1.
         22    1    3    3    0    0 -0.10208312119E+03  0.43283768288E+02  0.58096186922E+03  0.59144834239E+03  0.00000000000E+00 0. -1.
</event>
<event>
 7    1  0.6105960E-006  0.5118141E+02  0.7818608E-02  0.1471282E+00
          2   -1    0    0  502    0  0.00000000000E+00  0.00000000000E+00  0.79181390913E+03  0.79181390913E+03  0.00000000000E+00 0. -1.
          1   -1    0    0  501    0 -0.00000000000E+00 -0.00000000000E+00 -0.16323807940E+04  0.16323807940E+04  0.00000000000E+00 0. -1.
         25    2    1    2    0    0 -0.37394461796E+02  0.82112252765E+02 -0.21388386169E+01  0.15417041359E+03  0.12499269566E+03 0.  0.
          2    1    1    2  501    0  0.22482862620E+02 -0.33612350175E+02 -0.15530634442E+04  0.15535898207E+04  0.00000000000E+00 0. -1.
          1    1    1    2  502    0  0.14911599176E+02 -0.48499902590E+02  0.71463539789E+03  0.71643446892E+03  0.00000000000E+00 0. -1.
         22    1    3    3    0    0  0.37689040922E+02  0.67453871915E+02  0.43744214386E+01  0.77392662474E+02  0.00000000000E+00 0. -1.
         22    1    3    3    0    0 -0.75083502718E+02  0.14658380851E+02 -0.65132600555E+01  0.76777751114E+02  0.00000000000E+00 0. -1.
</event>
<event>
 7    1  0.6105960E-006  0.5886942E+02  0.7818608E-02  0.1531056E+00
          2   -1    0    0  502    0  0.00000000000E+00  0.00000000000E+00  0.86981069079E+03  0.86981069079E+03  0.00000000000E+00 0. -1.
          1   -1    0    0  501    0 -0.00000000000E+00 -0.00000000000E+00 -0.37667472467E+03  0.37667472467E+03  0.00000000000E+00 0. -1.
         25    2    1    2    0    0 -0.63534001583E+02 -0.12862618816E+01 -0.68610815483E+02  0.15610921987E+03  0.12499768278E+03 0.  0.
          2    1    1    2  501    0  0.54272808805E+02  0.22695864536E+02 -0.26087410410E+03  0.26742464028E+03  0.00000000000E+00 0. -1.
          1    1    1    2  502    0  0.92611927782E+01 -0.21409602655E+02  0.82262088570E+03  0.82295155530E+03  0.00000000000E+00 0. -1.
         22    1    3    3    0    0 -0.60604988930E+02  0.55898696435E+02 -0.47025438823E+02  0.94915861914E+02  0.00000000000E+00 0. -1.
         22    1    3    3    0    0 -0.29290126526E+01 -0.57184958316E+02 -0.21585376660E+02  0.61193357959E+02  0.00000000000E+00 0. -1.
</event>
<event>
 7    1  0.6105960E-006  0.2098373E+03  0.7818608E-02  0.1160839E+00
          2   -1    0    0  502    0  0.00000000000E+00  0.00000000000E+00  0.31555985035E+03  0.31555985035E+03  0.00000000000E+00 0. -1.
          1   -1    0    0  501    0 -0.00000000000E+00 -0.00000000000E+00 -0.87177164565E+03  0.87177164565E+03  0.00000000000E+00 0. -1.
         25    2    1    2    0    0 -0.15131417817E+03 -0.14824834279E+03 -0.92969773127E+01  0.24614198288E+03  0.12500356111E+03 0.  0.
          2    1    1    2  501    0 -0.93530782690E+00  0.21769338310E+03 -0.68843267935E+03  0.72203243545E+03  0.00000000000E+00 0. -1.
          1    1    1    2  502    0  0.15224948600E+03 -0.69445040304E+02  0.14151786136E+03  0.21915707767E+03  0.00000000000E+00 0. -1.
         22    1    3    3    0    0 -0.86483278894E+02 -0.10729468389E+03 -0.64001401450E+02  0.15194632640E+03  0.00000000000E+00 0.  1.
         22    1    3    3    0    0 -0.64830899280E+02 -0.40953658906E+02  0.54704424137E+02  0.94195656479E+02  0.00000000000E+00 0.  1.
</event>
<event>
 7    1  0.6105960E-006  0.6788008E+02  0.7818608E-02  0.1409923E+00
          2   -1    0    0  502    0  0.00000000000E+00  0.00000000000E+00  0.14174391400E+04  0.14174391400E+04  0.00000000000E+00 0. -1.
          1   -1    0    0  501    0 -0.00000000000E+00 -0.00000000000E+00 -0.78700316336E+03  0.78700316336E+03  0.00000000000E+00 0. -1.
         25    2    1    2    0    0  0.52568272882E+02 -0.25890388927E+02  0.11690303310E+03  0.18091654167E+03  0.12502295928E+03 0.  0.
          2    1    1    2  501    0 -0.23146374449E+02  0.64092567193E+02 -0.75299907210E+03  0.75607619616E+03  0.00000000000E+00 0. -1.
          1    1    1    2  502    0 -0.29421898433E+02 -0.38202178265E+02  0.12665320156E+04  0.12674495655E+04  0.00000000000E+00 0. -1.
         22    1    3    3    0    0 -0.19317581036E+02  0.19173129373E+01 -0.17399030802E+02  0.26068588355E+02  0.00000000000E+00 0.  1.
         22    1    3    3    0    0  0.71885853918E+02 -0.27807701865E+02  0.13430206390E+03  0.15484795331E+03  0.00000000000E+00 0.  1.
</event>
<event>
 7    1  0.6105960E-006  0.9065356E+02  0.7818608E-02  0.1333149E+00
          2   -1    0    0  502    0  0.00000000000E+00  0.00000000000E+00  0.23791253039E+04  0.23791253039E+04  0.00000000000E+00 0. -1.
          1   -1    0    0  501    0 -0.00000000000E+00 -0.00000000000E+00 -0.22625673672E+04  0.22625673672E+04  0.00000000000E+00 0. -1.
         25    2    1    2    0    0  0.11779843719E+03 -0.10189470920E+03 -0.48067551798E+02  0.20541247319E+03  0.12499916416E+03 0.  0.
          2    1    1    2  501    0 -0.58668778433E+02  0.68104783700E+02 -0.21343770817E+04  0.21362691343E+04  0.00000000000E+00 0. -1.
          1    1    1    2  502    0 -0.59129658759E+02  0.33789925498E+02  0.22990025702E+04  0.23000110637E+04  0.00000000000E+00 0. -1.
         22    1    3    3    0    0  0.12733638816E+03 -0.10733101114E+03 -0.70183624789E+02  0.18072145110E+03  0.00000000000E+00 0.  1.
         22    1    3    3    0    0 -0.95379509630E+01  0.54363019385E+01  0.22116072991E+02  0.24691022090E+02  0.00000000000E+00 0.  1.
</event>
<event>
 7    1  0.6105960E-006  0.7023039E+02  0.7818608E-02  0.1389353E+00
          2   -1    0    0  502    0  0.00000000000E+00  0.00000000000E+00  0.23094328812E+04  0.23094328812E+04  0.00000000000E+00 0. -1.
          1   -1    0    0  501    0 -0.00000000000E+00 -0.00000000000E+00 -0.38408342140E+03  0.38408342140E+03  0.00000000000E+00 0. -1.
         25    2    1    2    0    0 -0.82265941284E+01 -0.15973048891E+02  0.42769900411E+02  0.13330614598E+03  0.12497379339E+03 0.  0.
          2    1    1    2  501    0 -0.46479975528E+02 -0.29130677892E+02 -0.33602502392E+03  0.34047290820E+03  0.00000000000E+00 0. -1.
          1    1    1    2  502    0  0.54706569657E+02  0.45103726784E+02  0.22186045833E+04  0.22197372484E+04  0.00000000000E+00 0. -1.
         22    1    3    3    0    0 -0.58707264944E+02 -0.89066523917E+01 -0.96855366221E+01  0.60163785068E+02  0.00000000000E+00 0. -1.
         22    1    3    3    0    0  0.50480670816E+02 -0.70663964997E+01  0.52455437033E+02  0.73142360912E+02  0.00000000000E+00 0. -1.
</event>
<event>
 7    1  0.6105960E-006  0.4292092E+02  0.7818608E-02  0.1570063E+00
          2   -1    0    0  502    0  0.00000000000E+00  0.00000000000E+00  0.10665031341E+04  0.10665031341E+04  0.00000000000E+00 0. -1.
          1   -1    0    0  501    0 -0.00000000000E+00 -0.00000000000E+00 -0.82751510232E+02  0.82751510232E+02  0.00000000000E+00 0. -1.
         25    2    1    2    0    0  0.41074110598E+01 -0.21558593020E+02  0.48845169379E+03  0.50467076831E+03  0.12500353376E+03 0.  0.
          2    1    1    2  501    0  0.10107054495E+02  0.42011849523E+02 -0.68089996832E+02  0.80643634092E+02  0.00000000000E+00 0. -1.
          1    1    1    2  502    0 -0.14214465555E+02 -0.20453256503E+02  0.56338992694E+03  0.56394024196E+03  0.00000000000E+00 0. -1.
         22    1    3    3    0    0  0.12497259894E+02  0.51396552702E+02  0.22876680136E+03  0.23480212209E+03  0.00000000000E+00 0.  1.
         22    1    3    3    0    0 -0.83898488339E+01 -0.72955145722E+02  0.25968489244E+03  0.26986864622E+03  0.00000000000E+00 0.  1.
</event>
<event>
 7    1  0.6105960E-006  0.6143315E+02  0.7818608E-02  0.1506017E+00
          2   -1    0    0  502    0  0.00000000000E+00  0.00000000000E+00  0.77804542985E+03  0.77804542985E+03  0.00000000000E+00 0. -1.
          1   -1    0    0  501    0 -0.00000000000E+00 -0.00000000000E+00 -0.25035350297E+02  0.25035350297E+02  0.00000000000E+00 0. -1.
         25    2    1    2    0    0 -0.17331441048E+02  0.78012275966E+02  0.54849488092E+03  0.56820536325E+03  0.12499762551E+03 0.  0.
          2    1    1    2  501    0  0.11988662314E+02 -0.23561675032E+02  0.36438509649E+01  0.26686292441E+02  0.00000000000E+00 0. -1.
          1    1    1    2  502    0  0.53427787333E+01 -0.54450600935E+02  0.20087134768E+03  0.20818912446E+03  0.00000000000E+00 0. -1.
         22    1    3    3    0    0 -0.16938992345E+02  0.78573318386E+02  0.15403984282E+03  0.17374973093E+03  0.00000000000E+00 0.  1.
         22    1    3    3    0    0 -0.39244870286E+00 -0.56104241987E+00  0.39445503810E+03  0.39445563232E+03  0.00000000000E+00 0.  1.
</event>
<event>
 7    1  0.6105960E-006  0.7022548E+02  0.7818608E-02  0.1406742E+00
          2   -1    0    0  502    0  0.00000000000E+00  0.00000000000E+00  0.17555959352E+03  0.17555959352E+03  0.00000000000E+00 0. -1.
          1   -1    0    0  501    0 -0.00000000000E+00 -0.00000000000E+00 -0.15013822446E+04  0.15013822446E+04  0.00000000000E+00 0. -1.
         25    2    1    2    0    0  0.81296205687E+01  0.25401272437E+02 -0.12730893237E+03  0.18040246386E+03  0.12500467724E+03 0.  0.
          2    1    1    2  501    0 -0.44410106586E+02 -0.56496535535E+02 -0.13427103408E+04  0.13446319851E+04  0.00000000000E+00 0. -1.
          1    1    1    2  502    0  0.36280486017E+02  0.31095263097E+02  0.14419662209E+03  0.15190738914E+03  0.00000000000E+00 0. -1.
         22    1    3    3    0    0 -0.33178129986E+02 -0.11218577844E+02  0.65291301045E+01  0.35626876626E+02  0.00000000000E+00 0. -1.
         22    1    3    3    0    0  0.41307750554E+02  0.36619850281E+02 -0.13383806248E+03  0.14477558723E+03  0.00000000000E+00 0. -1.
</event>
<event>
 7    1  0.6105960E-006  0.9708841E+02  0.7818608E-02  0.1393990E+00
          2   -1    0    0  502    0  0.00000000000E+00  0.00000000000E+00  0.16222023916E+04  0.16222023916E+04  0.00000000000E+00 0. -1.
          1   -1    0    0  501    0 -0.00000000000E+00 -0.00000000000E+00 -0.95731973923E+03  0.95731973923E+03  0.00000000000E+00 0. -1.
         25    2    1    2    0    0 -0.12262900214E+03 -0.25444858474E+02  0.73620417081E+03  0.75716875719E+03  0.12499053070E+03 0.  0.
          2    1    1    2  501    0  0.37590508713E+02 -0.69736826269E+01 -0.94408446042E+03  0.94485826820E+03  0.00000000000E+00 0. -1.
          1    1    1    2  502    0  0.85038493431E+02  0.32418541101E+02  0.87276294198E+03  0.87749510543E+03  0.00000000000E+00 0. -1.
         22    1    3    3    0    0  0.28195029895E+01 -0.31523836228E+02  0.47318292191E+02  0.56927345130E+02  0.00000000000E+00 0.  1.
         22    1    3    3    0    0 -0.12544850513E+03  0.60789777540E+01  0.68888587861E+03  0.70024141206E+03  0.00000000000E+00 0.  1.
</event>
<event>
 7    1  0.6105960E-006  0.7607550E+02  0.7818608E-02  0.1365858E+00
          2   -1    0    0  502    0  0.00000000000E+00  0.00000000000E+00  0.49292809051E+03  0.49292809051E+03  0.00000000000E+00 0. -1.
          1   -1    0    0  501    0 -0.00000000000E+00 -0.00000000000E+00 -0.31097310429E+04  0.31097310429E+04  0.00000000000E+00 0. -1.
         25    2    1    2    0    0 -0.18317266897E+02 -0.90426750281E+01 -0.22328001165E+03  0.25670083074E+03  0.12499624260E+03 0.  0.
          2    1    1    2  501    0  0.77643886704E+02 -0.66894362848E+01 -0.28672313332E+04  0.28682902293E+04  0.00000000000E+00 0. -1.
          1    1    1    2  502    0 -0.59326619807E+02  0.15732111313E+02  0.47370839248E+03  0.47766807330E+03  0.00000000000E+00 0. -1.
         22    1    3    3    0    0  0.52803724046E+02 -0.87219309772E+01 -0.73796592529E+02  0.91160531054E+02  0.00000000000E+00 0.  1.
         22    1    3    3    0    0 -0.71120990943E+02 -0.32074405088E+00 -0.14948341912E+03  0.16554029969E+03  0.00000000000E+00 0.  1.
</event>
<event>
 7    1  0.6105960E-006  0.1331350E+03  0.7818608E-02  0.1398984E+00
          2   -1    0    0  502    0  0.00000000000E+00  0.00000000000E+00  0.30270618668E+03  0.30270618668E+03  0.00000000000E+00 0. -1.
          1   -1    0    0  501    0 -0.00000000000E+00 -0.00000000000E+00 -0.64099596341E+03  0.64099596341E+03  0.00000000000E+00 0. -1.
         25    2    1    2    0    0  0.73738889253E+01 -0.13640596515E+03 -0.62485896295E+02  0.19542426690E+03  0.12500078117E+03 0.  0.
          2    1    1    2  501    0 -0.33069015938E+02  0.12881082480E+03 -0.50260399099E+03  0.51990052910E+03  0.00000000000E+00 0. -1.
          1    1    1    2  502    0  0.25695127012E+02  0.75951403541E+01  0.22680011055E+03  0.22837735408E+03  0.00000000000E+00 0. -1.
         22    1    3    3    0    0 -0.14227060658E+02 -0.96305304765E+02  0.21669536272E+02  0.99733092718E+02  0.00000000000E+00 0.  1.
         22    1    3    3    0    0  0.21600949583E+02 -0.40100660388E+02 -0.84155432567E+02  0.95691174186E+02  0.00000000000E+00 0.  1.
</event>
<event>
 7    1  0.6105960E-006  0.7355926E+02  0.7818608E-02  0.1367848E+00
          2   -1    0    0  502    0  0.00000000000E+00  0.00000000000E+00  0.19103285854E+03  0.19103285854E+03  0.00000000000E+00 0. -1.
          1   -1    0    0  501    0 -0.00000000000E+00 -0.00000000000E+00 -0.21546608587E+04  0.21546608587E+04  0.00000000000E+00 0. -1.
         25    2    1    2    0    0  0.13019662649E+03 -0.87202578546E+00  0.52874205566E+02  0.18807487711E+03  0.12499822322E+03 0.  0.
          2    1    1    2  501    0 -0.70622119986E+02  0.19552186174E+02 -0.20724735281E+04  0.20737686217E+04  0.00000000000E+00 0. -1.
          1    1    1    2  502    0 -0.59574506500E+02 -0.18680160389E+02  0.55971322305E+02  0.83850218470E+02  0.00000000000E+00 0. -1.
         22    1    3    3    0    0  0.72966223417E+02 -0.27682560857E+02  0.86487916133E+02  0.11649271897E+03  0.00000000000E+00 0.  1.
         22    1    3    3    0    0  0.57230403070E+02  0.26810535071E+02 -0.33613710567E+02  0.71582158143E+02  0.00000000000E+00 0.  1.
</event>
<event>
 7    1  0.6105960E-006  0.1897825E+03  0.7818608E-02  0.1224038E+00
          2   -1    0    0  502    0  0.00000000000E+00  0.00000000000E+00  0.16233238976E+04  0.16233238976E+04  0.00000000000E+00 0. -1.
          1   -1    0    0  501    0 -0.00000000000E+00 -0.00000000000E+00 -0.35079997268E+03  0.35079997268E+03  0.00000000000E+00 0. -1.
         25    2    1    2    0    0  0.20025735566E+03  0.18170268127E+03 -0.56198277706E+02  0.30315148662E+03  0.12499481807E+03 0.  0.
          2    1    1    2  501    0 -0.86060844911E+02 -0.33279178306E+02 -0.15234669286E+03  0.17811088557E+03  0.00000000000E+00 0. -1.
          1    1    1    2  502    0 -0.11419651075E+03 -0.14842350296E+03  0.14810688955E+04  0.14928614981E+04  0.00000000000E+00 0. -1.
         22    1    3    3    0    0  0.15231889440E+03  0.11935225064E+03 -0.94864428403E+02  0.21551163565E+03  0.00000000000E+00 0. -1.
         22    1    3    3    0    0  0.47938461262E+02  0.62350430628E+02  0.38666150696E+02  0.87639850966E+02  0.00000000000E+00 0. -1.
</event>
<event>
 7    1  0.6105960E-006  0.9705299E+02  0.7818608E-02  0.1289734E+00
          2   -1    0    0  502    0  0.00000000000E+00  0.00000000000E+00  0.25589377445E+03  0.25589377445E+03  0.00000000000E+00 0. -1.
          1   -1    0    0  501    0 -0.00000000000E+00 -0.00000000000E+00 -0.15799767318E+04  0.15799767318E+04  0.00000000000E+00 0. -1.
         25    2    1    2    0    0 -0.41716134133E+01 -0.36063278104E+02 -0.38051247366E+03  0.40216050524E+03  0.12500146790E+03 0.  0.
          2    1    1    2  501    0  0.92073266451E+02  0.70079633742E+02 -0.11766336885E+04  0.11823093835E+04  0.00000000000E+00 0. -1.
          1    1    1    2  502    0 -0.87901653038E+02 -0.34016355639E+02  0.23306320478E+03  0.25140061750E+03  0.00000000000E+00 0. -1.
         22    1    3    3    0    0  0.35007434557E+02  0.32766680096E+02 -0.10385390340E+03  0.11438885020E+03  0.00000000000E+00 0. -1.
         22    1    3    3    0    0 -0.39179047971E+02 -0.68829958200E+02 -0.27665857026E+03  0.28777165504E+03  0.00000000000E+00 0. -1.
</event>
<event>
 7    1  0.6105960E-006  0.2153508E+03  0.7818608E-02  0.1290115E+00
          2   -1    0    0  502    0  0.00000000000E+00  0.00000000000E+00  0.46667775181E+04  0.46667775181E+04  0.00000000000E+00 0. -1.
          1   -1    0    0  501    0 -0.00000000000E+00 -0.00000000000E+00 -0.26277557661E+03  0.26277557661E+03  0.00000000000E+00 0. -1.
         25    2    1    2    0    0  0.17987321894E+03  0.63577609309E+02 -0.79294530442E+02  0.24147417003E+03  0.12500265972E+03 0.  0.
          2    1    1    2  501    0  0.32753399053E+02 -0.26809171186E+02 -0.95364792784E+02  0.10433580647E+03  0.00000000000E+00 0. -1.
          1    1    1    2  502    0 -0.21262661799E+03 -0.36768438123E+02  0.45786612648E+04  0.45837431182E+04  0.00000000000E+00 0. -1.
         22    1    3    3    0    0  0.37000117102E+02  0.58927738208E+02  0.13729869195E+02  0.70922466849E+02  0.00000000000E+00 0. -1.
         22    1    3    3    0    0  0.14287310184E+03  0.46498711011E+01 -0.93024399637E+02  0.17055170318E+03  0.00000000000E+00 0. -1.
</event>
<event>
 7    1  0.6105960E-006  0.7134724E+02  0.7818608E-02  0.1379566E+00
          2   -1    0    0  502    0  0.00000000000E+00  0.00000000000E+00  0.39230926832E+04  0.39230926832E+04  0.00000000000E+00 0. -1.
          1   -1    0    0  501    0 -0.00000000000E+00 -0.00000000000E+00 -0.16990836927E+04  0.16990836927E+04  0.00000000000E+00 0. -1.
         25    2    1    2    0    0 -0.69636632615E+02 -0.10808554129E+03 -0.82066745386E+02  0.19721045262E+03  0.12500106833E+03 0.  0.
          2    1    1    2  501    0  0.38349318828E+02  0.44111629299E+02 -0.15585692205E+04  0.15596648747E+04  0.00000000000E+00 0. -1.
          1    1    1    2  502    0  0.31287313786E+02  0.63973911994E+02  0.38646449564E+04  0.38653010486E+04  0.00000000000E+00 0. -1.
         22    1    3    3    0    0 -0.30825791268E+02 -0.56422571935E+01  0.27922811940E+02  0.41973180725E+02  0.00000000000E+00 0. -1.
         22    1    3    3    0    0 -0.38810841346E+02 -0.10244328410E+03 -0.10998955733E+03  0.15523727189E+03  0.00000000000E+00 0. -1.
</event>
<event>
 7    1  0.6105960E-006  0.4738694E+02  0.7818608E-02  0.1493233E+00
          2   -1    0    0  502    0  0.00000000000E+00  0.00000000000E+00  0.18338013826E+03  0.18338013826E+03  0.00000000000E+00 0. -1.
          1   -1    0    0  501    0 -0.00000000000E+00 -0.00000000000E+00 -0.23941409569E+04  0.23941409569E+04  0.00000000000E+00 0. -1.
         25    2    1    2    0    0 -0.58310385521E+02  0.38352671047E+02 -0.57787071450E+03  0.59534451518E+03  0.12501800130E+03 0.  0.
          2    1    1    2  501    0  0.46836532611E+02 -0.27342031822E+01 -0.18052205096E+04  0.18058300653E+04  0.00000000000E+00 0. -1.
          1    1    1    2  502    0  0.11473852909E+02 -0.35618467865E+02  0.17233040549E+03  0.17634651460E+03  0.00000000000E+00 0. -1.
         22    1    3    3    0    0  0.34081557850E+02 -0.14122903383E+02 -0.15467049785E+03  0.15900934530E+03  0.00000000000E+00 0. -1.
         22    1    3    3    0    0 -0.92391943371E+02  0.52475574430E+02 -0.42320021665E+03  0.43633516989E+03  0.00000000000E+00 0. -1.
</event>
<event>
 7    1  0.6105960E-006  0.5115629E+02  0.7818608E-02  0.1573331E+00
          2   -1    0    0  502    0  0.00000000000E+00  0.00000000000E+00  0.18503979374E+03  0.18503979374E+03  0.00000000000E+00 0. -1.
          1   -1    0    0  501    0 -0.00000000000E+00 -0.00000000000E+00 -0.48987915940E+03  0.48987915940E+03  0.00000000000E+00 0. -1.
         25    2    1    2    0    0 -0.19076396729E+02 -0.24759933654E+02 -0.12163745518E+02  0.12941938894E+03  0.12499783319E+03 0.  0.
          2    1    1    2  501    0  0.32729641577E+02  0.40019353806E+02 -0.41665021875E+03  0.41984542739E+03  0.00000000000E+00 0. -1.
          1    1    1    2  502    0 -0.13653244848E+02 -0.15259420152E+02  0.12397459860E+03  0.12565413681E+03  0.00000000000E+00 0. -1.
         22    1    3    3    0    0  0.39489105170E+02 -0.38659136251E+02 -0.34578769078E+02  0.65189029091E+02  0.00000000000E+00 0.  1.
         22    1    3    3    0    0 -0.58565501899E+02  0.13899202597E+02  0.22415023560E+02  0.64230359852E+02  0.00000000000E+00 0.  1.
</event>
<event>
 7    1  0.6105960E-006  0.1381740E+03  0.7818608E-02  0.1302772E+00
          2   -1    0    0  502    0  0.00000000000E+00  0.00000000000E+00  0.14569201885E+04  0.14569201885E+04  0.00000000000E+00 0. -1.
          1   -1    0    0  501    0 -0.00000000000E+00 -0.00000000000E+00 -0.44442939534E+03  0.44442939534E+03  0.00000000000E+00 0. -1.
         25    2    1    2    0    0  0.25162825178E+02 -0.80080720342E+02 -0.38992025375E+02  0.15553572758E+03  0.12499957987E+03 0.  0.
          2    1    1    2  501    0  0.36913714444E+02 -0.45595156727E+02 -0.34114358575E+03  0.34615095945E+03  0.00000000000E+00 0. -1.
          1    1    1    2  502    0 -0.62076539622E+02  0.12567587707E+03  0.13926264043E+04  0.13996628968E+04  0.00000000000E+00 0. -1.
         22    1    3    3    0    0  0.32235918878E+02 -0.10441391649E+03 -0.29165473114E+00  0.10927719563E+03  0.00000000000E+00 0. -1.
         22    1    3    3    0    0 -0.70730937000E+01  0.24333196151E+02 -0.38700370644E+02  0.46258531942E+02  0.00000000000E+00 0. -1.
</event>
<event>
 7    1  0.6105960E-006  0.8898878E+02  0.7818608E-02  0.1314267E+00
          2   -1    0    0  502    0  0.00000000000E+00  0.00000000000E+00  0.21799637076E+04  0.21799637076E+04  0.00000000000E+00 0. -1.
          1   -1    0    0  501    0 -0.00000000000E+00 -0.00000000000E+00 -0.90843386896E+03  0.90843386896E+03  0.00000000000E+00 0. -1.
         25    2    1    2    0    0 -0.36328927857E+02 -0.13976419698E+03  0.48152183612E+03  0.51801728851E+03  0.12499924310E+03 0.  0.
          2    1    1    2  501    0  0.63334926289E+02  0.62289804749E+02 -0.88696450446E+03  0.89140190982E+03  0.00000000000E+00 0. -1.
          1    1    1    2  502    0 -0.27005998432E+02  0.77474392234E+02  0.16769725070E+04  0.16789783782E+04  0.00000000000E+00 0. -1.
         22    1    3    3    0    0  0.44644522042E+02 -0.58092952382E+02  0.23139056843E+03  0.24271283366E+03  0.00000000000E+00 0. -1.
         22    1    3    3    0    0 -0.80973449899E+02 -0.81671244601E+02  0.25013126769E+03  0.27530445485E+03  0.00000000000E+00 0. -1.
</event>
<event>
 7    1  0.6105960E-006  0.1282720E+03  0.7818608E-02  0.1296931E+00
          2   -1    0    0  502    0  0.00000000000E+00  0.00000000000E+00  0.25038885907E+04  0.25038885907E+04  0.00000000000E+00 0. -1.
          1   -1    0    0  501    0 -0.00000000000E+00 -0.00000000000E+00 -0.19479144655E+04  0.19479144655E+04  0.00000000000E+00 0. -1.
         25    2    1    2    0    0  0.63107360305E+02 -0.32423448239E+02 -0.66396694864E+02  0.15832845988E+03  0.12500224478E+03 0.  0.
          2    1    1    2  501    0 -0.12921343601E+03  0.23620762430E+02 -0.18327485299E+04  0.18374496528E+04  0.00000000000E+00 0. -1.
          1    1    1    2  502    0  0.66106075703E+02  0.88026858085E+01  0.24551193500E+04  0.24560249435E+04  0.00000000000E+00 0. -1.
         22    1    3    3    0    0  0.10039310751E+03 -0.22474906211E+02 -0.60334510024E+02  0.11926504326E+03  0.00000000000E+00 0.  1.
         22    1    3    3    0    0 -0.37285747203E+02 -0.99485420278E+01 -0.60621848406E+01  0.39063416620E+02  0.00000000000E+00 0.  1.
</event>
<event>
 7    1  0.6105960E-006  0.2622893E+03  0.7818608E-02  0.1183972E+00
          2   -1    0    0  502    0  0.00000000000E+00  0.00000000000E+00  0.10745339057E+04  0.10745339057E+04  0.00000000000E+00 0. -1.
          1   -1    0    0  501    0 -0.00000000000E+00 -0.00000000000E+00 -0.63958363243E+03  0.63958363243E+03  0.00000000000E+00 0. -1.
         25    2    1    2    0    0 -0.12677780811E+02 -0.23960386382E+03  0.59180619707E+03  0.65071489657E+03  0.12499825613E+03 0.  0.
          2    1    1    2  501    0  0.81723358471E+02 -0.62470944977E+02 -0.55185830156E+03  0.56136343957E+03  0.00000000000E+00 0. -1.
          1    1    1    2  502    0 -0.69045577660E+02  0.30207480880E+03  0.39500237771E+03  0.50203920196E+03  0.00000000000E+00 0. -1.
         22    1    3    3    0    0 -0.33003525606E+02 -0.79391148327E+02  0.34659540415E+03  0.35710021186E+03  0.00000000000E+00 0. -1.
         22    1    3    3    0    0  0.20325744795E+02 -0.16021271549E+03  0.24521079293E+03  0.29361468471E+03  0.00000000000E+00 0. -1.
</event>
<event>
 7    1  0.6105960E-006  0.5382462E+02  0.7818608E-02  0.1524840E+00
          2   -1    0    0  502    0  0.00000000000E+00  0.00000000000E+00  0.12603509277E+04  0.12603509277E+04  0.00000000000E+00 0. -1.
          1   -1    0    0  501    0 -0.00000000000E+00 -0.00000000000E+00 -0.12797407658E+03  0.12797407658E+03  0.00000000000E+00 0. -1.
         25    2    1    2    0    0  0.15815475728E+02 -0.34941831955E+02  0.85315720522E+03  0.86311832920E+03  0.12499988997E+03 0.  0.
          2    1    1    2  501    0 -0.58547356785E+01 -0.25931456686E+02 -0.11915520961E+03  0.12208473432E+03  0.00000000000E+00 0. -1.
          1    1    1    2  502    0 -0.99607400490E+01  0.60873288642E+02  0.39837485553E+03  0.40312194077E+03  0.00000000000E+00 0. -1.
         22    1    3    3    0    0  0.37401771644E+02  0.25767936473E+01  0.75875158122E+02  0.84631979816E+02  0.00000000000E+00 0.  1.
         22    1    3    3    0    0 -0.21586295917E+02 -0.37518625603E+02  0.77728204710E+03  0.77848634938E+03  0.00000000000E+00 0.  1.
</event>
<event>
 7    1  0.6105960E-006  0.1309020E+03  0.7818608E-02  0.1230540E+00
          2   -1    0    0  502    0  0.00000000000E+00  0.00000000000E+00  0.31795109943E+04  0.31795109943E+04  0.00000000000E+00 0. -1.
          1   -1    0    0  501    0 -0.00000000000E+00 -0.00000000000E+00 -0.25152953233E+03  0.25152953233E+03  0.00000000000E+00 0. -1.
         25    2    1    2    0    0 -0.44795071294E+02  0.87985753191E+02  0.43730995251E+03  0.46541694054E+03  0.12499937121E+03 0.  0.
          2    1    1    2  501    0  0.13447966758E+03 -0.83861246420E+00 -0.21687720338E+03  0.25518856872E+03  0.00000000000E+00 0. -1.
          1    1    1    2  502    0 -0.89684596282E+02 -0.87147140727E+02  0.27075487129E+04  0.27104350174E+04  0.00000000000E+00 0. -1.
         22    1    3    3    0    0 -0.57206900418E+02  0.99767120414E+02  0.22755884350E+03  0.25496889031E+03  0.00000000000E+00 0.  1.
         22    1    3    3    0    0  0.12411829124E+02 -0.11781367223E+02  0.20975110901E+03  0.21044805024E+03  0.00000000000E+00 0.  1.
</event>
<event>
 7    1  0.6105960E-006  0.1325411E+03  0.7818608E-02  0.1414666E+00
          2   -1    0    0  502    0  0.00000000000E+00  0.00000000000E+00  0.32216954564E+03  0.32216954564E+03  0.00000000000E+00 0. -1.
          1   -1    0    0  501    0 -0.00000000000E+00 -0.00000000000E+00 -0.22381170826E+04  0.22381170826E+04  0.00000000000E+00 0. -1.
         25    2    1    2    0    0 -0.11675101798E+03  0.15213509262E+02  0.25839743658E+03  0.31025225081E+03  0.12499989136E+03 0.  0.
          2    1    1    2  501    0  0.13263001687E+03  0.25159143985E+01 -0.22062474330E+04  0.22102318400E+04  0.00000000000E+00 0. -1.
          1    1    1    2  502    0 -0.15878998890E+02 -0.17729423660E+02  0.31902459408E+02  0.39802537423E+02  0.00000000000E+00 0. -1.
         22    1    3    3    0    0 -0.13180908067E+03 -0.57064451717E+01  0.15431384054E+03  0.20302452721E+03  0.00000000000E+00 0.  1.
         22    1    3    3    0    0  0.15058062693E+02  0.20919954433E+02  0.10408359604E+03  0.10722772360E+03  0.00000000000E+00 0.  1.
</event>
<event>
 7    1  0.6105960E-006  0.1593342E+03  0.7818608E-02  0.1278469E+00
          2   -1    0    0  502    0  0.00000000000E+00  0.00000000000E+00  0.12116295643E+04  0.12116295643E+04  0.00000000000E+00 0. -1.
          1   -1    0    0  501    0 -0.00000000000E+00 -0.00000000000E+00 -0.73131014528E+02  0.73131014528E+02  0.00000000000E+00 0. -1.
         25    2    1    2    0    0 -0.17289585070E+03 -0.81899998713E+02  0.68947337137E+03  0.72636027687E+03  0.12500054804E+03 0.  0.
          2    1    1    2  501    0  0.32565618106E+02  0.54935891981E+02 -0.20926097411E+02  0.67203967615E+02  0.00000000000E+00 0. -1.
          1    1    1    2  502    0  0.14033023260E+03  0.26964106732E+02  0.46995127581E+03  0.49119633434E+03  0.00000000000E+00 0. -1.
         22    1    3    3    0    0 -0.71065068934E+02 -0.90912628974E+02  0.25296269088E+03  0.27803861802E+03  0.00000000000E+00 0. -1.
         22    1    3    3    0    0 -0.10183078177E+03  0.90126302612E+01  0.43651068048E+03  0.44832165885E+03  0.00000000000E+00 0. -1.
</event>
<event>
 7    1  0.6105960E-006  0.1048586E+03  0.7818608E-02  0.1382633E+00
          2   -1    0    0  502    0  0.00000000000E+00  0.00000000000E+00  0.45139018961E+03  0.45139018961E+03  0.00000000000E+00 0. -1.
          1   -1    0    0  501    0 -0.00000000000E+00 -0.00000000000E+00 -0.48019190357E+03  0.48019190357E+03  0.00000000000E+00 0. -1.
         25    2    1    2    0    0 -0.26699747046E+02 -0.76626478912E+02  0.18232601128E+03  0.23548222693E+03  0.12499844418E+03 0.  0.
          2    1    1    2  501    0 -0.25716921068E+02 -0.29039794137E+02 -0.43836252067E+03  0.44007541309E+03  0.00000000000E+00 0. -1.
          1    1    1    2  502    0  0.52416668114E+02  0.10566627305E+03  0.22723479544E+03  0.25602445316E+03  0.00000000000E+00 0. -1.
         22    1    3    3    0    0  0.49046412997E-01  0.55518918246E+01 -0.17183967401E+02  0.18058644579E+02  0.00000000000E+00 0. -1.
         22    1    3    3    0    0 -0.26748793459E+02 -0.82178370737E+02  0.19950997868E+03  0.21742358235E+03  0.00000000000E+00 0. -1.
</event>
<event>
 7    1  0.6105960E-006  0.7526875E+02  0.7818608E-02  0.1356301E+00
          2   -1    0    0  502    0  0.00000000000E+00  0.00000000000E+00  0.33345804493E+03  0.33345804493E+03  0.00000000000E+00 0. -1.
          1   -1    0    0  501    0 -0.00000000000E+00 -0.00000000000E+00 -0.39367377984E+03  0.39367377984E+03  0.00000000000E+00 0. -1.
         25    2    1    2    0    0 -0.52825180785E+02  0.22413938670E+02  0.20622643245E+03  0.24788511924E+03  0.12499922611E+03 0.  0.
          2    1    1    2  501    0 -0.51920704849E+02 -0.42684449348E+02 -0.34198053637E+03  0.34852318296E+03  0.00000000000E+00 0. -1.
          1    1    1    2  502    0  0.10474588563E+03  0.20270510678E+02  0.75538369010E+02  0.13072352257E+03  0.00000000000E+00 0. -1.
         22    1    3    3    0    0 -0.53642951518E+02  0.33593808120E+01  0.15126780260E+02  0.55836109894E+02  0.00000000000E+00 0. -1.
         22    1    3    3    0    0  0.81777073359E+00  0.19054557858E+02  0.19109965219E+03  0.19204900934E+03  0.00000000000E+00 0. -1.
</event>
<event>
 7    1  0.6105960E-006  0.5226636E+03  0.7818608E-02  0.1224109E+00
          2   -1    0    0  502    0  0.00000000000E+00  0.00000000000E+00  0.11812284484E+04  0.11812284484E+04  0.00000000000E+00 0. -1.
          1   -1    0    0  501    0 -0.00000000000E+00 -0.00000000000E+00 -0.73829691038E+03  0.73829691038E+03  0.00000000000E+00 0. -1.
         25    2    1    2    0    0  0.30311140043E+03  0.41576545286E+03  0.69483594099E+03  0.87358457863E+03  0.12496238737E+03 0.  0.
          2    1    1    2  501    0  0.32812731245E+02  0.66479282668E+01 -0.46462549695E+03  0.46583014361E+03  0.00000000000E+00 0. -1.
          1    1    1    2  502    0 -0.33592413168E+03 -0.42241338113E+03  0.21272109398E+03  0.58011063654E+03  0.00000000000E+00 0. -1.
         22    1    3    3    0    0  0.23201327284E+03  0.34817208153E+03  0.47585679358E+03  0.63363526191E+03  0.00000000000E+00 0.  1.
         22    1    3    3    0    0  0.71098127597E+02  0.67593371327E+02  0.21897914741E+03  0.23994931672E+03  0.00000000000E+00 0.  1.
</event>
<event>
 7    1  0.6105960E-006  0.1184721E+03  0.7818608E-02  0.1284749E+00
          2   -1    0    0  502    0  0.00000000000E+00  0.00000000000E+00  0.26929431045E+03  0.26929431045E+03  0.00000000000E+00 0. -1.
          1   -1    0    0  501    0 -0.00000000000E+00 -0.00000000000E+00 -0.11217228538E+04  0.11217228538E+04  0.00000000000E+00 0. -1.
         25    2    1    2    0    0  0.23022237400E+02  0.18619779305E+03 -0.40748093681E+01  0.22547968688E+03  0.12499937428E+03 0.  0.
          2    1    1    2  501    0 -0.18212947543E+02 -0.78843528093E+02 -0.98689348816E+03  0.99020541826E+03  0.00000000000E+00 0. -1.
          1    1    1    2  502    0 -0.48092898570E+01 -0.10735426496E+03  0.13853975417E+03  0.17533205913E+03  0.00000000000E+00 0. -1.
         22    1    3    3    0    0  0.41594897759E+02  0.37652184733E+01 -0.53011029955E+01  0.42100048488E+02  0.00000000000E+00 0.  1.
         22    1    3    3    0    0 -0.18572660359E+02  0.18243257458E+03  0.12262936274E+01  0.18337963839E+03  0.00000000000E+00 0.  1.
</event>
<event>
 7    1  0.6105960E-006  0.5437246E+02  0.7818608E-02  0.1511326E+00
          2   -1    0    0  502    0  0.00000000000E+00  0.00000000000E+00  0.30520181312E+03  0.30520181312E+03  0.00000000000E+00 0. -1.
          1   -1    0    0  501    0 -0.00000000000E+00 -0.00000000000E+00 -0.49565326021E+03  0.49565326021E+03  0.00000000000E+00 0. -1.
         25    2    1    2    0    0 -0.25068445836E+02 -0.68872244398E+01 -0.20789145225E+03  0.24396371763E+03  0.12499431494E+03 0.  0.
          2    1    1    2  501    0 -0.26605778648E+02 -0.11056913055E+02 -0.26633671305E+03  0.26789058868E+03  0.00000000000E+00 0. -1.
          1    1    1    2  502    0  0.51674224484E+02  0.17944137495E+02  0.28377671820E+03  0.28900076703E+03  0.00000000000E+00 0. -1.
         22    1    3    3    0    0  0.18041519201E+01 -0.49515954590E+02 -0.17931130423E+03  0.18603125691E+03  0.00000000000E+00 0. -1.
         22    1    3    3    0    0 -0.26872597756E+02  0.42628730150E+02 -0.28580148013E+02  0.57932460717E+02  0.00000000000E+00 0. -1.
</event>
<event>
 7    1  0.6105960E-006  0.4099385E+02  0.7818608E-02  0.1584219E+00
          2   -1    0    0  502    0  0.00000000000E+00  0.00000000000E+00  0.62935601849E+02  0.62935601849E+02  0.00000000000E+00 0. -1.
          1   -1    0    0  501    0 -0.00000000000E+00 -0.00000000000E+00 -0.56127620109E+03  0.56127620109E+03  0.00000000000E+00 0. -1.
         25    2    1    2    0    0  0.56649699796E+02  0.34826310183E+01 -0.12199236346E+03  0.18365360922E+03  0.12500077692E+03 0.  0.
          2    1    1    2  501    0 -0.18438703651E+02 -0.15187195120E+02 -0.39551530828E+03  0.39623603543E+03  0.00000000000E+00 0. -1.
          1    1    1    2  502    0 -0.38210996145E+02  0.11704564102E+02  0.19167072501E+02  0.44322158290E+02  0.00000000000E+00 0. -1.
         22    1    3    3    0    0 -0.28621408038E+01  0.23361598558E+02 -0.11849735044E+03  0.12081216081E+03  0.00000000000E+00 0.  1.
         22    1    3    3    0    0  0.59511840600E+02 -0.19878967540E+02 -0.34950130142E+01  0.62841448408E+02  0.00000000000E+00 0.  1.
</event>
<event>
 7    1  0.6105960E-006  0.8228095E+02  0.7818608E-02  0.1446014E+00
          2   -1    0    0  502    0  0.00000000000E+00  0.00000000000E+00  0.23974446820E+03  0.23974446820E+03  0.00000000000E+00 0. -1.
          1   -1    0    0  501    0 -0.00000000000E+00 -0.00000000000E+00 -0.23679199273E+03  0.23679199273E+03  0.00000000000E+00 0. -1.
         25    2    1    2    0    0 -0.10486731221E+03  0.18455874943E+02  0.62307493105E+02  0.17562829183E+03  0.12500120280E+03 0.  0.
          2    1    1    2  501    0  0.30227264199E+02  0.57109744940E+00 -0.16634769957E+03  0.16907267907E+03  0.00000000000E+00 0. -1.
          1    1    1    2  502    0  0.74640048015E+02 -0.19026972392E+02  0.10699268194E+03  0.13183549004E+03  0.00000000000E+00 0. -1.
         22    1    3    3    0    0 -0.57075214723E+02  0.40199590888E+02 -0.24661086745E+02  0.74038884667E+02  0.00000000000E+00 0.  1.
         22    1    3    3    0    0 -0.47792097492E+02 -0.21743715946E+02  0.86968579850E+02  0.10158940716E+03  0.00000000000E+00 0.  1.
</event>
<event>
 7    1  0.6105960E-006  0.6410519E+02  0.7818608E-02  0.1411617E+00
          2   -1    0    0  502    0  0.00000000000E+00  0.00000000000E+00  0.85504956489E+03  0.85504956489E+03  0.00000000000E+00 0. -1.
          1   -1    0    0  501    0 -0.00000000000E+00 -0.00000000000E+00 -0.50267721223E+02  0.50267721223E+02  0.00000000000E+00 0. -1.
         25    2    1    2    0    0  0.27721423572E+02  0.44609140225E+01  0.17690300564E+03  0.21842148945E+03  0.12499958627E+03 0.  0.
          2    1    1    2  501    0 -0.58645161894E+02 -0.44244478775E+02  0.18926111209E+02  0.75861891626E+02  0.00000000000E+00 0. -1.
          1    1    1    2  502    0  0.30923738322E+02  0.39783564752E+02  0.60895272682E+03  0.61103390504E+03  0.00000000000E+00 0. -1.
         22    1    3    3    0    0 -0.47565748619E+02  0.12450594305E+02  0.94451748285E+02  0.10648309957E+03  0.00000000000E+00 0.  1.
         22    1    3    3    0    0  0.75287172191E+02 -0.79896802822E+01  0.82451257359E+02  0.11193838987E+03  0.00000000000E+00 0.  1.
</event>
<event>
 7    1  0.6105960E-006  0.3380416E+02  0.7818608E-02  0.1645562E+00
          2   -1    0    0  502    0  0.00000000000E+00  0.00000000000E+00  0.12794112465E+04  0.12794112465E+04  0.00000000000E+00 0. -1.
          1   -1    0    0  501    0 -0.00000000000E+00 -0.00000000000E+00 -0.29819392453E+03  0.29819392453E+03  0.00000000000E+00 0. -1.
         25    2    1    2    0    0  0.11110946426E+02  0.21098135110E+02  0.14960118984E+03  0.19640280264E+03  0.12499984179E+03 0.  0.
          2    1    1    2  501    0 -0.15790832253E+02  0.12542594172E+02 -0.27416204076E+03  0.27490269487E+03  0.00000000000E+00 0. -1.
          1    1    1    2  502    0  0.46798858265E+01 -0.33640729282E+02  0.11057781729E+04  0.11062996735E+04  0.00000000000E+00 0. -1.
         22    1    3    3    0    0  0.38246852086E+02 -0.30906874400E+02  0.12207417635E+03  0.13160608311E+03  0.00000000000E+00 0.  1.
         22    1    3    3    0    0 -0.27135905659E+02  0.52005009510E+02  0.27527013485E+02  0.64796719527E+02  0.00000000000E+00 0.  1.
</event>
<event>
 7    1  0.6105960E-006  0.1373002E+03  0.7818608E-02  0.1250987E+00
          2   -1    0    0  502    0  0.00000000000E+00  0.00000000000E+00  0.12553104421E+04  0.12553104421E+04  0.00000000000E+00 0. -1.
          1   -1    0    0  501    0 -0.00000000000E+00 -0.00000000000E+00 -0.50451560612E+03  0.50451560612E+03  0.00000000000E+00 0. -1.
         25    2    1    2    0    0 -0.10207426732E+03  0.25115680650E+02  0.29457579461E+03  0.33682231469E+03  0.12499767773E+03 0.  0.
          2    1    1    2  501    0  0.12035630482E+03  0.70038134098E+02 -0.47078603135E+03  0.49094853871E+03  0.00000000000E+00 0. -1.
          1    1    1    2  502    0 -0.18282037501E+02 -0.95153814748E+02  0.92700507272E+03  0.93205519482E+03  0.00000000000E+00 0. -1.
         22    1    3    3    0    0  0.23389978491E+02  0.15903091699E+01  0.11115936721E+02  0.25945793999E+02  0.00000000000E+00 0.  1.
         22    1    3    3    0    0 -0.12546424581E+03  0.23525371480E+02  0.28345985789E+03  0.31087652069E+03  0.00000000000E+00 0.  1.
</event>
<event>
 7    1  0.6105960E-006  0.3620093E+02  0.7818608E-02  0.1559594E+00
          2   -1    0    0  502    0  0.00000000000E+00  0.00000000000E+00  0.30983481429E+04  0.30983481429E+04  0.00000000000E+00 0. -1.
          1   -1    0    0  501    0 -0.00000000000E+00 -0.00000000000E+00 -0.28595571700E+02  0.28595571700E+02  0.00000000000E+00 0. -1.
         25    2    1    2    0    0 -0.13632033443E+02 -0.12200386686E+02  0.60423635012E+03  0.61730398202E+03  0.12501183001E+03 0.  0.
          2    1    1    2  501    0  0.20594409499E+02 -0.23893347099E+02 -0.10579765335E+02  0.33270905800E+02  0.00000000000E+00 0. -1.
          1    1    1    2  502    0 -0.69623760564E+01  0.36093733784E+02  0.24760959864E+04  0.24763688268E+04  0.00000000000E+00 0. -1.
         22    1    3    3    0    0 -0.63974975193E+02  0.19415790327E+02  0.31211637506E+03  0.31919649426E+03  0.00000000000E+00 0. -1.
         22    1    3    3    0    0  0.50342941750E+02 -0.31616177012E+02  0.29211997506E+03  0.29810748776E+03  0.00000000000E+00 0. -1.
</event>
<event>
 7    1  0.6105960E-006  0.1240786E+03  0.7818608E-02  0.1445811E+00
          2   -1    0    0  502    0  0.00000000000E+00  0.00000000000E+00  0.41579000550E+03  0.41579000550E+03  0.00000000000E+00 0. -1.
          1   -1    0    0  501    0 -0.00000000000E+00 -0.00000000000E+00 -0.89552560377E+03  0.89552560377E+03  0.00000000000E+00 0. -1.
         25    2    1    2    0    0  0.88242352343E+02  0.11167695870E+03 -0.78030305301E+02  0.20487117415E+03  0.12500005441E+03 0.  0.
          2    1    1    2  501    0 -0.73123026859E+02 -0.98465088356E+02 -0.74879578903E+03  0.75877367136E+03  0.00000000000E+00 0. -1.
          1    1    1    2  502    0 -0.15119325484E+02 -0.13211870347E+02  0.34709049606E+03  0.34767076376E+03  0.00000000000E+00 0. -1.
         22    1    3    3    0    0  0.10683317503E+03  0.47144596701E+02 -0.72585428296E+02  0.13749394418E+03  0.00000000000E+00 0.  1.
         22    1    3    3    0    0 -0.18590822684E+02  0.64532362002E+02 -0.54448770050E+01  0.67377229976E+02  0.00000000000E+00 0.  1.
</event>
<event>
 7    1  0.6105960E-006  0.9005328E+02  0.7818608E-02  0.1333378E+00
          2   -1    0    0  502    0  0.00000000000E+00  0.00000000000E+00  0.24027967841E+03  0.24027967841E+03  0.00000000000E+00 0. -1.
          1   -1    0    0  501    0 -0.00000000000E+00 -0.00000000000E+00 -0.86566725832E+03  0.86566725832E+03  0.00000000000E+00 0. -1.
         25    2    1    2    0    0 -0.49649609213E+02  0.20513279738E+02  0.93726271169E+02  0.16521581919E+03  0.12500309862E+03 0.  0.
          2    1    1    2  501    0  0.29972165252E+02 -0.86042687347E+02 -0.81657990493E+03  0.82164737928E+03  0.00000000000E+00 0. -1.
          1    1    1    2  502    0  0.19677443961E+02  0.65529407609E+02  0.97466053854E+02  0.11908373825E+03  0.00000000000E+00 0. -1.
         22    1    3    3    0    0 -0.80128735825E+02 -0.19865363590E+02  0.74161766423E+02  0.11097393646E+03  0.00000000000E+00 0. -1.
         22    1    3    3    0    0  0.30479126612E+02  0.40378643328E+02  0.19564504746E+02  0.54241882729E+02  0.00000000000E+00 0. -1.
</event>
<event>
 7    1  0.6105960E-006  0.5127760E+02  0.7818608E-02  0.1551936E+00
          2   -1    0    0  502    0  0.00000000000E+00  0.00000000000E+00  0.54054412051E+03  0.54054412051E+03  0.00000000000E+00 0. -1.
          1   -1    0    0  501    0 -0.00000000000E+00 -0.00000000000E+00 -0.26967471699E+03  0.26967471699E+03  0.00000000000E+00 0. -1.
         25    2    1    2    0    0  0.34771406619E+02  0.94396007332E+01  0.33579950159E+02  0.13435181944E+03  0.12499856620E+03 0.  0.
          2    1    1    2  501    0 -0.40906173736E+02 -0.32003851416E+02 -0.21590777283E+03  0.22206694469E+03  0.00000000000E+00 0. -1.
          1    1    1    2  502    0  0.61347671164E+01  0.22564250683E+02  0.45319722618E+03  0.45380007338E+03  0.00000000000E+00 0. -1.
         22    1    3    3    0    0  0.45669908051E+02 -0.49521250898E+02  0.39772228165E+01  0.67482687359E+02  0.00000000000E+00 0. -1.
         22    1    3    3    0    0 -0.10898501431E+02  0.58960851631E+02  0.29602727343E+02  0.66869132076E+02  0.00000000000E+00 0. -1.
</event>
<event>
 7    1  0.6105960E-006  0.1481330E+03  0.7818608E-02  0.1348940E+00
          2   -1    0    0  502    0  0.00000000000E+00  0.00000000000E+00  0.19326130739E+04  0.19326130739E+04  0.00000000000E+00 0. -1.
          1   -1    0    0  501    0 -0.00000000000E+00 -0.00000000000E+00 -0.23471575597E+03  0.23471575597E+03  0.00000000000E+00 0. -1.
         25    2    1    2    0    0  0.49761139534E+02  0.13327593303E+03  0.10161569853E+03  0.21491680586E+03  0.12499935169E+03 0.  0.
          2    1    1    2  501    0  0.34683599920E+02 -0.10902487419E+02 -0.17305831215E+03  0.17683607025E+03  0.00000000000E+00 0. -1.
          1    1    1    2  502    0 -0.84444739453E+02 -0.12237344561E+03  0.17693399316E+04  0.17755759538E+04  0.00000000000E+00 0. -1.
         22    1    3    3    0    0  0.83216272275E+02  0.56954616674E+02  0.80288179676E+02  0.12889906178E+03  0.00000000000E+00 0. -1.
         22    1    3    3    0    0 -0.33455132742E+02  0.76321316355E+02  0.21327518857E+02  0.86017744085E+02  0.00000000000E+00 0. -1.
</event>
<event>
 7    1  0.6105960E-006  0.1219525E+03  0.7818608E-02  0.1297098E+00
          2   -1    0    0  502    0  0.00000000000E+00  0.00000000000E+00  0.13132733065E+03  0.13132733065E+03  0.00000000000E+00 0. -1.
          1   -1    0    0  501    0 -0.00000000000E+00 -0.00000000000E+00 -0.16322071442E+04  0.16322071442E+04  0.00000000000E+00 0. -1.
         25    2    1    2    0    0  0.91262470222E+02 -0.25491128119E+02 -0.47871226294E+02  0.16399245658E+03  0.12499294150E+03 0.  0.
          2    1    1    2  501    0 -0.79914649038E+02  0.94602615927E+02 -0.15063957627E+04  0.15114774891E+04  0.00000000000E+00 0. -1.
          1    1    1    2  502    0 -0.11347821184E+02 -0.69111487808E+02  0.53387175481E+02  0.88064529173E+02  0.00000000000E+00 0. -1.
         22    1    3    3    0    0  0.81377679938E+02  0.25357366612E+02  0.10580127771E+02  0.85890988685E+02  0.00000000000E+00 0.  1.
         22    1    3    3    0    0  0.98847902840E+01 -0.50848494731E+02 -0.58451354065E+02  0.78101467895E+02  0.00000000000E+00 0.  1.
</event>
<event>
 7    1  0.6105960E-006  0.7224822E+02  0.7818608E-02  0.1374837E+00
          2   -1    0    0  502    0  0.00000000000E+00  0.00000000000E+00  0.64404611343E+02  0.64404611343E+02  0.00000000000E+00 0. -1.
          1   -1    0    0  501    0 -0.00000000000E+00 -0.00000000000E+00 -0.70585637308E+03  0.70585637308E+03  0.00000000000E+00 0. -1.
         25    2    1    2    0    0 -0.18434003607E+02  0.12626221973E+02 -0.18363173702E+03  0.22325984272E+03  0.12500043424E+03 0.  0.
          2    1    1    2  501    0 -0.55661811820E+02  0.22404132435E+02 -0.46108912952E+03  0.46497673899E+03  0.00000000000E+00 0. -1.
          1    1    1    2  502    0  0.74095815427E+02 -0.35030354408E+02  0.32691048016E+01  0.82024402710E+02  0.00000000000E+00 0. -1.
         22    1    3    3    0    0 -0.61860772266E+02  0.35723757597E+02 -0.72751790139E+02  0.10195962422E+03  0.00000000000E+00 0. -1.
         22    1    3    3    0    0  0.43426768660E+02 -0.23097535624E+02 -0.11087994688E+03  0.12130021850E+03  0.00000000000E+00 0. -1.
</event>
<event>
 7    1  0.6105960E-006  0.5364179E+02  0.7818608E-02  0.1450450E+00
          2   -1    0    0  502    0  0.00000000000E+00  0.00000000000E+00  0.19204820870E+04  0.19204820870E+04  0.00000000000E+00 0. -1.
          1   -1    0    0  501    0 -0.00000000000E+00 -0.00000000000E+00 -0.20961054616E+03  0.20961054616E+03  0.00000000000E+00 0. -1.
         25    2    1    2    0    0 -0.10322590139E+02 -0.64824670489E+01  0.13789450451E+04  0.13846523267E+04  0.12499620099E+03 0.  0.
          2    1    1    2  501    0  0.53409867569E+02 -0.60714425761E+01 -0.20230625544E+03  0.20932581628E+03  0.00000000000E+00 0. -1.
          1    1    1    2  502    0 -0.43087277430E+02  0.12553909625E+02  0.53423275122E+03  0.53611449019E+03  0.00000000000E+00 0. -1.
         22    1    3    3    0    0  0.28557888937E+02  0.30311899774E+02  0.19035018587E+03  0.19485265600E+03  0.00000000000E+00 0. -1.
         22    1    3    3    0    0 -0.38880479076E+02 -0.36794366823E+02  0.11885948592E+04  0.11897996707E+04  0.00000000000E+00 0. -1.
</event>
<event>
 7    1  0.6105960E-006  0.1042451E+03  0.7818608E-02  0.1407050E+00
          2   -1    0    0  502    0  0.00000000000E+00  0.00000000000E+00  0.27225038984E+03  0.27225038984E+03  0.00000000000E+00 0. -1.
          1   -1    0    0  501    0 -0.00000000000E+00 -0.00000000000E+00 -0.11168302049E+04  0.11168302049E+04  0.00000000000E+00 0. -1.
         25    2    1    2    0    0 -0.11283441165E+03 -0.16070448496E+02 -0.46404446586E+03  0.49391511042E+03  0.12500002496E+03 0.  0.
          2    1    1    2  501    0  0.93588657435E+02  0.41775511086E+02 -0.63270871869E+03  0.64095581192E+03  0.00000000000E+00 0. -1.
          1    1    1    2  502    0  0.19245754217E+02 -0.25705062590E+02  0.25217336945E+03  0.25420967243E+03  0.00000000000E+00 0. -1.
         22    1    3    3    0    0 -0.45081763941E+02 -0.57606681129E+02 -0.33062523383E+03  0.33862064378E+03  0.00000000000E+00 0. -1.
         22    1    3    3    0    0 -0.67752647711E+02  0.41536232632E+02 -0.13341923203E+03  0.15529446664E+03  0.00000000000E+00 0. -1.
</event>
<event>
 7    1  0.6105960E-006  0.7507838E+02  0.7818608E-02  0.1386694E+00
          2   -1    0    0  502    0  0.00000000000E+00  0.00000000000E+00  0.75480083812E+03  0.75480083812E+03  0.00000000000E+00 0. -1.
          1   -1    0    0  501    0 -0.00000000000E+00 -0.00000000000E+00 -0.24000739869E+03  0.24000739869E+03  0.00000000000E+00 0. -1.
         25    2    1    2    0    0  0.30272227189E+02 -0.65522225307E+02  0.53577055330E+02  0.15396553807E+03  0.12500126523E+03 0.  0.
          2    1    1    2  501    0  0.21547410464E+02  0.73455265311E+02 -0.18098334466E+03  0.19650683943E+03  0.00000000000E+00 0. -1.
          1    1    1    2  502    0 -0.51819637653E+02 -0.79330400036E+01  0.64219972876E+03  0.64433585931E+03  0.00000000000E+00 0. -1.
         22    1    3    3    0    0  0.22512692788E+02 -0.98831500392E+02  0.15093775304E+02  0.10248077312E+03  0.00000000000E+00 0.  1.
         22    1    3    3    0    0  0.77595344006E+01  0.33309275084E+02  0.38483280025E+02  0.51484764953E+02  0.00000000000E+00 0.  1.
</event>
<event>
 7    1  0.6105960E-006  0.2455207E+03  0.7818608E-02  0.1281376E+00
          2   -1    0    0  502    0  0.00000000000E+00  0.00000000000E+00  0.13691208597E+04  0.13691208597E+04  0.00000000000E+00 0. -1.
          1   -1    0    0  501    0 -0.00000000000E+00 -0.00000000000E+00 -0.72455250346E+03  0.72455250346E+03  0.00000000000E+00 0. -1.
         25    2    1    2    0    0  0.21338338222E+03 -0.25570336808E+02  0.61275295025E+02  0.25605656701E+03  0.12499597512E+03 0.  0.
          2    1    1    2  501    0  0.36164650384E+02  0.17813624348E+02 -0.61361923660E+03  0.61494209050E+03  0.00000000000E+00 0. -1.
          1    1    1    2  502    0 -0.24954803261E+03  0.77567124597E+01  0.11969122978E+04  0.12226747057E+04  0.00000000000E+00 0. -1.
         22    1    3    3    0    0  0.56318593010E+02 -0.54730239171E+02  0.55573738333E+02  0.96206150482E+02  0.00000000000E+00 0.  1.
         22    1    3    3    0    0  0.15706478921E+03  0.29159902363E+02  0.57015566926E+01  0.15985041653E+03  0.00000000000E+00 0.  1.
</event>
<event>
 7    1  0.6105960E-006  0.7632004E+02  0.7818608E-02  0.1428157E+00
          2   -1    0    0  502    0  0.00000000000E+00  0.00000000000E+00  0.31263313610E+03  0.31263313610E+03  0.00000000000E+00 0. -1.
          1   -1    0    0  501    0 -0.00000000000E+00 -0.00000000000E+00 -0.17564102362E+04  0.17564102362E+04  0.00000000000E+00 0. -1.
         25    2    1    2    0    0  0.47145150524E+02 -0.32687751643E+02 -0.59886627376E+03  0.61445643013E+03  0.12499894538E+03 0.  0.
          2    1    1    2  501    0 -0.40943313269E+02  0.69435966277E+02 -0.11471902712E+04  0.11500187940E+04  0.00000000000E+00 0. -1.
          1    1    1    2  502    0 -0.62018372544E+01 -0.36748214634E+02  0.30227944487E+03  0.30456814813E+03  0.00000000000E+00 0. -1.
         22    1    3    3    0    0  0.90084197337E+02 -0.27929290852E+02 -0.40598919459E+03  0.41680023276E+03  0.00000000000E+00 0.  1.
         22    1    3    3    0    0 -0.42939046813E+02 -0.47584607909E+01 -0.19287707917E+03  0.19765619737E+03  0.00000000000E+00 0.  1.
</event>
<event>
 7    1  0.6105960E-006  0.1030732E+03  0.7818608E-02  0.1276048E+00
          2   -1    0    0  502    0  0.00000000000E+00  0.00000000000E+00  0.29740762696E+04  0.29740762696E+04  0.00000000000E+00 0. -1.
          1   -1    0    0  501    0 -0.00000000000E+00 -0.00000000000E+00 -0.81861870485E+02  0.81861870485E+02  0.00000000000E+00 0. -1.
         25    2    1    2    0    0  0.11481458781E+02 -0.63432739306E+02  0.15288464806E+03  0.20773503214E+03  0.12499836662E+03 0.  0.
          2    1    1    2  501    0 -0.10226021567E+03  0.12920279087E+02 -0.37649456475E+01  0.10314194169E+03  0.00000000000E+00 0. -1.
          1    1    1    2  502    0  0.90778756890E+02  0.50512460219E+02  0.27430946967E+04  0.27450611663E+04  0.00000000000E+00 0. -1.
         22    1    3    3    0    0  0.24523006852E+02 -0.80374972459E+02  0.16352517723E+03  0.18385319592E+03  0.00000000000E+00 0. -1.
         22    1    3    3    0    0 -0.13041548071E+02  0.16942233153E+02 -0.10640529172E+02  0.23881836223E+02  0.00000000000E+00 0. -1.
</event>
<event>
 7    1  0.6105960E-006  0.6530241E+02  0.7818608E-02  0.1412684E+00
          2   -1    0    0  502    0  0.00000000000E+00  0.00000000000E+00  0.35180951518E+02  0.35180951518E+02  0.00000000000E+00 0. -1.
          1   -1    0    0  501    0 -0.00000000000E+00 -0.00000000000E+00 -0.22773819363E+04  0.22773819363E+04  0.00000000000E+00 0. -1.
         25    2    1    2    0    0  0.10223976319E+03  0.81681992621E+01 -0.24176273319E+03  0.29085059259E+03  0.12500063758E+03 0.  0.
          2    1    1    2  501    0 -0.57803408416E+02 -0.28949826238E+02 -0.19509834964E+04  0.19520542845E+04  0.00000000000E+00 0. -1.
          1    1    1    2  502    0 -0.44436354770E+02  0.20781626975E+02 -0.49454755174E+02  0.69658010697E+02  0.00000000000E+00 0. -1.
         22    1    3    3    0    0  0.60623294722E+02  0.50685297591E+02 -0.20786142953E+03  0.22237481229E+03  0.00000000000E+00 0.  1.
         22    1    3    3    0    0  0.41616468464E+02 -0.42517098329E+02 -0.33901303661E+02  0.68475780300E+02  0.00000000000E+00 0.  1.
</event>
<event>
 7    1  0.6105960E-006  0.1390174E+03  0.7818608E-02  0.1325798E+00
          2   -1    0    0  502    0  0.00000000000E+00  0.00000000000E+00  0.36723783654E+03  0.36723783654E+03  0.00000000000E+00 0. -1.
          1   -1    0    0  501    0 -0.00000000000E+00 -0.00000000000E+00 -0.50477160434E+03  0.50477160434E+03  0.00000000000E+00 0. -1.
         25    2    1    2    0    0  0.11746784312E+03 -0.14110251299E+03  0.12857221585E+03  0.25664014599E+03  0.12499894602E+03 0.  0.
          2    1    1    2  501    0 -0.83580225800E+02  0.10799005950E+03 -0.42665485990E+03  0.44797530799E+03  0.00000000000E+00 0. -1.
          1    1    1    2  502    0 -0.33887617323E+02  0.33112453496E+02  0.16054887625E+03  0.16739398689E+03  0.00000000000E+00 0. -1.
         22    1    3    3    0    0  0.63819457027E+02 -0.35672611266E+02  0.11675371860E+03  0.13775662996E+03  0.00000000000E+00 0.  1.
         22    1    3    3    0    0  0.53648386096E+02 -0.10542990173E+03  0.11818497255E+02  0.11888351604E+03  0.00000000000E+00 0.  1.
</event>
<event>
 7    1  0.6105960E-006  0.5693914E+02  0.7818608E-02  0.1498411E+00
          2   -1    0    0  502    0  0.00000000000E+00  0.00000000000E+00  0.14006508137E+03  0.14006508137E+03  0.00000000000E+00 0. -1.
          1   -1    0    0  501    0 -0.00000000000E+00 -0.00000000000E+00 -0.11098892135E+04  0.11098892135E+04  0.00000000000E+00 0. -1.
         25    2    1    2    0    0  0.23699469932E+02 -0.81457698222E+02 -0.28713844303E+03  0.32445566504E+03  0.12500388647E+03 0.  0.
          2    1    1    2  501    0 -0.61991402868E+00  0.30042108845E+02 -0.79725335952E+03  0.79781942310E+03  0.00000000000E+00 0. -1.
          1    1    1    2  502    0 -0.23079555903E+02  0.51415589377E+02  0.11456767042E+03  0.12767920675E+03  0.00000000000E+00 0. -1.
         22    1    3    3    0    0 -0.23213441897E+01  0.30564718558E+02 -0.30569426171E+02  0.43290651136E+02  0.00000000000E+00 0.  1.
         22    1    3    3    0    0  0.26020814122E+02 -0.11202241678E+03 -0.25656901686E+03  0.28116501390E+03  0.00000000000E+00 0.  1.
</event>
<event>
 7    1  0.6105960E-006  0.6477473E+02  0.7818608E-02  0.1403964E+00
          2   -1    0    0  502    0  0.00000000000E+00  0.00000000000E+00  0.39661903107E+03  0.39661903107E+03  0.00000000000E+00 0. -1.
          1   -1    0    0  501    0 -0.00000000000E+00 -0.00000000000E+00 -0.31979422835E+03  0.31979422835E+03  0.00000000000E+00 0. -1.
         25    2    1    2    0    0 -0.67042523393E+02  0.33265624074E+01 -0.62759119077E+02  0.15514317184E+03  0.12499972313E+03 0.  0.
          2    1    1    2  501    0  0.43368768098E+02 -0.50685850771E+02 -0.20348461626E+03  0.21413989486E+03  0.00000000000E+00 0. -1.
          1    1    1    2  502    0  0.23673755294E+02  0.47359288364E+02  0.34306853806E+03  0.34713019271E+03  0.00000000000E+00 0. -1.
         22    1    3    3    0    0 -0.14718132616E+02  0.54223900470E+02 -0.59848260836E+02  0.82089397214E+02  0.00000000000E+00 0. -1.
         22    1    3    3    0    0 -0.52324390777E+02 -0.50897338063E+02 -0.29108582418E+01  0.73053774630E+02  0.00000000000E+00 0. -1.
</event>
<event>
 7    1  0.6105960E-006  0.4676910E+02  0.7818608E-02  0.1555693E+00
          2   -1    0    0  502    0  0.00000000000E+00  0.00000000000E+00  0.13060265869E+04  0.13060265869E+04  0.00000000000E+00 0. -1.
          1   -1    0    0  501    0 -0.00000000000E+00 -0.00000000000E+00 -0.25149568219E+03  0.25149568219E+03  0.00000000000E+00 0. -1.
         25    2    1    2    0    0 -0.39108978804E+02 -0.43740608911E+02  0.34384074836E+03  0.37053346153E+03  0.12500333111E+03 0.  0.
          2    1    1    2  501    0  0.14092794854E+02  0.44549722891E+02 -0.23569034330E+03  0.24027738678E+03  0.00000000000E+00 0. -1.
          1    1    1    2  502    0  0.25016183950E+02 -0.80911398001E+00  0.94638049960E+03  0.94671142073E+03  0.00000000000E+00 0. -1.
         22    1    3    3    0    0  0.99778323063E+01  0.30652928124E+02  0.29139298692E+02  0.43454089201E+02  0.00000000000E+00 0. -1.
         22    1    3    3    0    0 -0.49086811110E+02 -0.74393537034E+02  0.31470144967E+03  0.32707937233E+03  0.00000000000E+00 0. -1.
</event>
<event>
 7    1  0.6105960E-006  0.5696656E+02  0.7818608E-02  0.1524872E+00
          2   -1    0    0  502    0  0.00000000000E+00  0.00000000000E+00  0.24086798351E+03  0.24086798351E+03  0.00000000000E+00 0. -1.
          1   -1    0    0  501    0 -0.00000000000E+00 -0.00000000000E+00 -0.11741506416E+03  0.11741506416E+03  0.00000000000E+00 0. -1.
         25    2    1    2    0    0  0.34195156337E+02  0.16581907158E+02  0.19083213571E+02  0.13203018188E+03  0.12499412596E+03 0.  0.
          2    1    1    2  501    0 -0.48183438752E+02 -0.37437865724E+02 -0.44346614948E+02  0.75431159459E+02  0.00000000000E+00 0. -1.
          1    1    1    2  502    0  0.13988282415E+02  0.20855958567E+02  0.14871632073E+03  0.15082170634E+03  0.00000000000E+00 0. -1.
         22    1    3    3    0    0  0.29793262901E+01  0.47017995185E+02  0.57210656285E+02  0.74112262474E+02  0.00000000000E+00 0.  1.
         22    1    3    3    0    0  0.31215830047E+02 -0.30436088027E+02 -0.38127442714E+02  0.57917919402E+02  0.00000000000E+00 0.  1.
</event>
<event>
 7    1  0.6105960E-006  0.8135018E+02  0.7818608E-02  0.1340232E+00
          2   -1    0    0  502    0  0.00000000000E+00  0.00000000000E+00  0.11322089139E+04  0.11322089139E+04  0.00000000000E+00 0. -1.
          1   -1    0    0  501    0 -0.00000000000E+00 -0.00000000000E+00 -0.13750020401E+03  0.13750020401E+03  0.00000000000E+00 0. -1.
         25    2    1    2    0    0  0.10588531267E+03 -0.10386181383E+03  0.21445742251E+03  0.28916390640E+03  0.12499921153E+03 0.  0.
          2    1    1    2  501    0 -0.57266205917E+02  0.42565540248E+02 -0.85445571617E+02  0.11132021050E+03  0.00000000000E+00 0. -1.
          1    1    1    2  502    0 -0.48619106752E+02  0.61296273586E+02  0.86569685898E+03  0.86922500099E+03  0.00000000000E+00 0. -1.
         22    1    3    3    0    0  0.30387980644E+02 -0.11281954945E+03  0.11462298066E+03  0.16367683954E+03  0.00000000000E+00 0. -1.
         22    1    3    3    0    0  0.75497332026E+02  0.89577356150E+01  0.99834441845E+02  0.12548706686E+03  0.00000000000E+00 0. -1.
</event>
<event>
 7    1  0.6105960E-006  0.1098466E+03  0.7818608E-02  0.1377089E+00
          2   -1    0    0  502    0  0.00000000000E+00  0.00000000000E+00  0.33223815283E+03  0.33223815283E+03  0.00000000000E+00 0. -1.
          1   -1    0    0  501    0 -0.00000000000E+00 -0.00000000000E+00 -0.43814608315E+03  0.43814608315E+03  0.00000000000E+00 0. -1.
         25    2    1    2    0    0  0.70683416476E+01  0.13711346315E+03 -0.73977362875E+02  0.19986987172E+03  0.12500100868E+03 0.  0.
          2    1    1    2  501    0  0.20568045651E+02 -0.32830771656E+02 -0.28907324802E+03  0.29165775627E+03  0.00000000000E+00 0. -1.
          1    1    1    2  502    0 -0.27636387299E+02 -0.10428269150E+03  0.25714268057E+03  0.27885660799E+03  0.00000000000E+00 0. -1.
         22    1    3    3    0    0 -0.41608841363E+02  0.12867614101E+03 -0.63340517027E+02  0.14933474492E+03  0.00000000000E+00 0. -1.
         22    1    3    3    0    0  0.48677183011E+02  0.84373221480E+01 -0.10636845848E+02  0.50535126798E+02  0.00000000000E+00 0. -1.
</event>
<event>
 7    1  0.6105960E-006  0.1238206E+03  0.7818608E-02  0.1336202E+00
          2   -1    0    0  502    0  0.00000000000E+00  0.00000000000E+00  0.85673005496E+03  0.85673005496E+03  0.00000000000E+00 0. -1.
          1   -1    0    0  501    0 -0.00000000000E+00 -0.00000000000E+00 -0.21712465431E+03  0.21712465431E+03  0.00000000000E+00 0. -1.
         25    2    1    2    0    0  0.68923754435E+01 -0.15314086586E+03 -0.56934331904E+02  0.20582756786E+03  0.12499535953E+03 0.  0.
          2    1    1    2  501    0  0.14165486512E+02  0.10939652127E+03 -0.49146087239E+02  0.12076256773E+03  0.00000000000E+00 0. -1.
          1    1    1    2  502    0 -0.21057861956E+02  0.43744344589E+02  0.74568581979E+03  0.74726457367E+03  0.00000000000E+00 0. -1.
         22    1    3    3    0    0  0.12327170629E+02 -0.34892293289E+02 -0.77312764427E+02  0.85712862570E+02  0.00000000000E+00 0.  1.
         22    1    3    3    0    0 -0.54347951855E+01 -0.11824857257E+03  0.20378432522E+02  0.12011470529E+03  0.00000000000E+00 0.  1.
</event>
<event>
 7    1  0.6105960E-006  0.1016018E+03  0.7818608E-02  0.1385043E+00
          2   -1    0    0  502    0  0.00000000000E+00  0.00000000000E+00  0.18606841676E+03  0.18606841676E+03  0.00000000000E+00 0. -1.
          1   -1    0    0  501    0 -0.00000000000E+00 -0.00000000000E+00 -0.53947668148E+03  0.53947668148E+03  0.00000000000E+00 0. -1.
         25    2    1    2    0    0  0.67722208226E+02  0.18335077537E+02 -0.11969177471E+03  0.18675051573E+03  0.12500864626E+03 0.  0.
          2    1    1    2  501    0 -0.10271857456E+03 -0.36125329982E+02 -0.37586778073E+03  0.39132177759E+03  0.00000000000E+00 0. -1.
          1    1    1    2  502    0  0.34996366335E+02  0.17790252445E+02  0.14215129072E+03  0.14747280492E+03  0.00000000000E+00 0. -1.
         22    1    3    3    0    0  0.71534167889E+02  0.51975543551E+02 -0.34212582955E+02  0.94810838703E+02  0.00000000000E+00 0. -1.
         22    1    3    3    0    0 -0.38119596632E+01 -0.33640466015E+02 -0.85479191750E+02  0.91939677030E+02  0.00000000000E+00 0. -1.
</event>
<event>
 7    1  0.6105960E-006  0.1016185E+03  0.7818608E-02  0.1385559E+00
          2   -1    0    0  502    0  0.00000000000E+00  0.00000000000E+00  0.15372315853E+03  0.15372315853E+03  0.00000000000E+00 0. -1.
          1   -1    0    0  501    0 -0.00000000000E+00 -0.00000000000E+00 -0.30052541477E+04  0.30052541477E+04  0.00000000000E+00 0. -1.
         25    2    1    2    0    0  0.36659481325E+02 -0.10634124330E+03 -0.26585512350E+03  0.31458166830E+03  0.12502120517E+03 0.  0.
          2    1    1    2  501    0 -0.38761662442E+02  0.50466951017E+01 -0.26950341890E+04  0.26953176465E+04  0.00000000000E+00 0. -1.
          1    1    1    2  502    0  0.21021811177E+01  0.10129454820E+03  0.10935832331E+03  0.14907799146E+03  0.00000000000E+00 0. -1.
         22    1    3    3    0    0  0.65734180165E+01  0.26660074711E+02 -0.76175263810E+02  0.80973083333E+02  0.00000000000E+00 0. -1.
         22    1    3    3    0    0  0.30086063308E+02 -0.13300131801E+03 -0.18967985969E+03  0.23360858497E+03  0.00000000000E+00 0. -1.
</event>
<event>
 7    1  0.6105960E-006  0.9658468E+02  0.7818608E-02  0.1397084E+00
          2   -1    0    0  502    0  0.00000000000E+00  0.00000000000E+00  0.21276787533E+04  0.21276787533E+04  0.00000000000E+00 0. -1.
          1   -1    0    0  501    0 -0.00000000000E+00 -0.00000000000E+00 -0.81423004091E+03  0.81423004091E+03  0.00000000000E+00 0. -1.
         25    2    1    2    0    0 -0.11912066553E+03  0.13129033766E+02  0.68678220211E+03  0.70827760904E+03  0.12500109542E+03 0.  0.
          2    1    1    2  501    0  0.31544570738E+02  0.20268729541E+02 -0.80150791863E+03  0.80238446207E+03  0.00000000000E+00 0. -1.
          1    1    1    2  502    0  0.87576094795E+02 -0.33397763308E+02  0.14281744289E+04  0.14312467231E+04  0.00000000000E+00 0. -1.
         22    1    3    3    0    0 -0.11741441426E+03  0.46962851002E+02  0.40030685391E+03  0.41980618307E+03  0.00000000000E+00 0. -1.
         22    1    3    3    0    0 -0.17062512714E+01 -0.33833817236E+02  0.28647534820E+03  0.28847142598E+03  0.00000000000E+00 0. -1.
</event>
<event>
 7    1  0.6105960E-006  0.1119167E+03  0.7818608E-02  0.1259676E+00
          2   -1    0    0  502    0  0.00000000000E+00  0.00000000000E+00  0.17448272267E+04  0.17448272267E+04  0.00000000000E+00 0. -1.
          1   -1    0    0  501    0 -0.00000000000E+00 -0.00000000000E+00 -0.13230662834E+03  0.13230662834E+03  0.00000000000E+00 0. -1.
         25    2    1    2    0    0 -0.63768710449E+02 -0.32241581354E+02  0.11926692166E+03  0.18696989545E+03  0.12500870050E+03 0.  0.
          2    1    1    2  501    0  0.10731728029E+03 -0.70854819361E+02 -0.53560804753E+02  0.13930600806E+03  0.00000000000E+00 0. -1.
          1    1    1    2  502    0 -0.43548569839E+02  0.10309640072E+03  0.15468144814E+04  0.15508579515E+04  0.00000000000E+00 0. -1.
         22    1    3    3    0    0 -0.40713098946E+02  0.68253290712E+01 -0.16019640516E+02  0.44280587451E+02  0.00000000000E+00 0.  1.
         22    1    3    3    0    0 -0.23055611503E+02 -0.39066910425E+02  0.13528656218E+03  0.14268930800E+03  0.00000000000E+00 0.  1.
</event>
<event>
 7    1  0.6105960E-006  0.7619740E+02  0.7818608E-02  0.1410090E+00
          2   -1    0    0  502    0  0.00000000000E+00  0.00000000000E+00  0.38187247962E+03  0.38187247962E+03  0.00000000000E+00 0. -1.
          1   -1    0    0  501    0 -0.00000000000E+00 -0.00000000000E+00 -0.43684571590E+03  0.43684571590E+03  0.00000000000E+00 0. -1.
         25    2    1    2    0    0  0.63903697872E+02 -0.20155664832E+02 -0.74318556131E+02  0.16012588683E+03  0.12500847340E+03 0.  0.
          2    1    1    2  501    0 -0.15779612304E+02 -0.39892184347E+02 -0.31377766957E+03  0.31669671368E+03  0.00000000000E+00 0. -1.
          1    1    1    2  502    0 -0.48124085567E+02  0.60047849179E+02  0.33312298942E+03  0.34189559501E+03  0.00000000000E+00 0. -1.
         22    1    3    3    0    0  0.74158049289E+02 -0.58965994195E+02 -0.27918870433E+02  0.98771797959E+02  0.00000000000E+00 0. -1.
         22    1    3    3    0    0 -0.10254351417E+02  0.38810329364E+02 -0.46399685698E+02  0.61354088871E+02  0.00000000000E+00 0. -1.
</event>
<event>
 7    1  0.6105960E-006  0.2362848E+03  0.7818608E-02  0.1208452E+00
          2   -1    0    0  502    0  0.00000000000E+00  0.00000000000E+00  0.15029161393E+04  0.15029161393E+04  0.00000000000E+00 0. -1.
          1   -1    0    0  501    0 -0.00000000000E+00 -0.00000000000E+00 -0.35235061594E+03  0.35235061594E+03  0.00000000000E+00 0. -1.
         25    2    1    2    0    0 -0.14404751121E+03  0.24722643147E+03  0.16903224775E+03  0.35505863367E+03  0.12499655460E+03 0.  0.
          2    1    1    2  501    0  0.61082979958E+02 -0.21980863892E+03 -0.20724881993E+03  0.30821914533E+03  0.00000000000E+00 0. -1.
          1    1    1    2  502    0  0.82964531254E+02 -0.27417792551E+02  0.11887820955E+04  0.11919889762E+04  0.00000000000E+00 0. -1.
         22    1    3    3    0    0 -0.74854002265E+02  0.44641702978E+02  0.86787465878E+01  0.87586094456E+02  0.00000000000E+00 0. -1.
         22    1    3    3    0    0 -0.69193508947E+02  0.20258472849E+03  0.16035350116E+03  0.26747253921E+03  0.00000000000E+00 0. -1.
</event>
<event>
 7    1  0.6105960E-006  0.1406087E+03  0.7818608E-02  0.1335610E+00
          2   -1    0    0  502    0  0.00000000000E+00  0.00000000000E+00  0.30720573055E+04  0.30720573055E+04  0.00000000000E+00 0. -1.
          1   -1    0    0  501    0 -0.00000000000E+00 -0.00000000000E+00 -0.38421968984E+02  0.38421968984E+02  0.00000000000E+00 0. -1.
         25    2    1    2    0    0  0.15512836994E+03  0.73263965040E+02  0.12926273974E+04  0.13099402167E+04  0.12500145257E+03 0.  0.
          2    1    1    2  501    0 -0.11245954863E+03 -0.78371269560E+02  0.12986462462E+03  0.18882273883E+03  0.00000000000E+00 0. -1.
          1    1    1    2  502    0 -0.42668821306E+02  0.51073045201E+01  0.16111433145E+04  0.16117163189E+04  0.00000000000E+00 0. -1.
         22    1    3    3    0    0  0.15373530783E+03  0.84916236398E+02  0.12824095606E+04  0.12943800034E+04  0.00000000000E+00 0.  1.
         22    1    3    3    0    0  0.13930621102E+01 -0.11652271358E+02  0.10217836799E+02  0.15560213324E+02  0.00000000000E+00 0.  1.
</event>
<event>
 7    1  0.6105960E-006  0.1908409E+03  0.7818608E-02  0.1290636E+00
          2   -1    0    0  502    0  0.00000000000E+00  0.00000000000E+00  0.21109856761E+03  0.21109856761E+03  0.00000000000E+00 0. -1.
          1   -1    0    0  501    0 -0.00000000000E+00 -0.00000000000E+00 -0.37390639355E+04  0.37390639355E+04  0.00000000000E+00 0. -1.
         25    2    1    2    0    0 -0.11766872119E+03  0.13249356895E+03 -0.17980995303E+04  0.18111276609E+04  0.12498403651E+03 0.  0.
          2    1    1    2  501    0  0.16388166964E+03 -0.12138083200E+03 -0.19262322434E+04  0.19369979771E+04  0.00000000000E+00 0. -1.
          1    1    1    2  502    0 -0.46212948448E+02 -0.11112736942E+02  0.19636640579E+03  0.20203686508E+03  0.00000000000E+00 0. -1.
         22    1    3    3    0    0 -0.11146293049E+03  0.10231421622E+03 -0.17273068213E+04  0.17339207129E+04  0.00000000000E+00 0. -1.
         22    1    3    3    0    0 -0.62057907002E+01  0.30179352727E+02 -0.70792709030E+02  0.77206948010E+02  0.00000000000E+00 0. -1.
</event>
<event>
 7    1  0.6421136E-006  0.1043055E+03  0.7818608E-02  0.1288347E+00
          2   -1    0    0  502    0  0.00000000000E+00  0.00000000000E+00  0.18109630404E+04  0.18109630404E+04  0.00000000000E+00 0. -1.
          1   -1    0    0  501    0 -0.00000000000E+00 -0.00000000000E+00 -0.66967054579E+03  0.66967054579E+03  0.00000000000E+00 0. -1.
         25    2    1    2    0    0 -0.49963468486E+02 -0.74101629183E+02 -0.44306133362E+02  0.15992200393E+03  0.12499845702E+03 0.  0.
          2    1    1    2  501    0 -0.34009764926E+02  0.10312803473E+03 -0.56122286072E+03  0.57163201017E+03  0.00000000000E+00 0. -1.
          1    1    1    2  502    0  0.83973233411E+02 -0.29026405543E+02  0.17468214887E+04  0.17490795721E+04  0.00000000000E+00 0. -1.
         22    1    3    3    0    0 -0.69617792082E+02 -0.42829536778E+02 -0.75730330023E+02  0.11142750594E+03  0.00000000000E+00 0.  1.
         22    1    3    3    0    0  0.19654323596E+02 -0.31272092404E+02  0.31424196661E+02  0.48494497988E+02  0.00000000000E+00 0.  1.
</event>
<event>
 7    1  0.6105960E-006  0.6121258E+02  0.7818608E-02  0.1427807E+00
          2   -1    0    0  502    0  0.00000000000E+00  0.00000000000E+00  0.12590423277E+04  0.12590423277E+04  0.00000000000E+00 0. -1.
          1   -1    0    0  501    0 -0.00000000000E+00 -0.00000000000E+00 -0.47867379736E+03  0.47867379736E+03  0.00000000000E+00 0. -1.
         25    2    1    2    0    0  0.18330914072E+02 -0.19802654756E+02  0.12368408839E+03  0.17791864471E+03  0.12501649038E+03 0.  0.
          2    1    1    2  501    0  0.44057024660E+02  0.15151181351E+02 -0.44946857495E+03  0.45187673052E+03  0.00000000000E+00 0. -1.
          1    1    1    2  502    0 -0.62387938732E+02  0.46514734055E+01  0.11061530169E+04  0.11079207498E+04  0.00000000000E+00 0. -1.
         22    1    3    3    0    0  0.61892633215E+02  0.91259010108E+01  0.10531124018E+03  0.12249260150E+03  0.00000000000E+00 0.  1.
         22    1    3    3    0    0 -0.43561719143E+02 -0.28928555767E+02  0.18372848218E+02  0.55426043203E+02  0.00000000000E+00 0.  1.
</event>
<event>
 7    1  0.6105960E-006  0.9561717E+02  0.7818608E-02  0.1360729E+00
          2   -1    0    0  502    0  0.00000000000E+00  0.00000000000E+00  0.79899078477E+03  0.79899078477E+03  0.00000000000E+00 0. -1.
          1   -1    0    0  501    0 -0.00000000000E+00 -0.00000000000E+00 -0.92836770473E+03  0.92836770473E+03  0.00000000000E+00 0. -1.
         25    2    1    2    0    0 -0.76583779647E+02 -0.10354926220E+03 -0.29105140215E+03  0.34194199691E+03  0.12500354216E+03 0.  0.
          2    1    1    2  501    0  0.28222884646E+02  0.87441486000E+02 -0.60757328107E+03  0.61448176260E+03  0.00000000000E+00 0. -1.
          1    1    1    2  502    0  0.48360895001E+02  0.16107776197E+02  0.76924776326E+03  0.77093472999E+03  0.00000000000E+00 0. -1.
         22    1    3    3    0    0  0.31595917131E+01 -0.63662692347E+02 -0.39335944164E+02  0.74901521479E+02  0.00000000000E+00 0. -1.
         22    1    3    3    0    0 -0.79743371360E+02 -0.39886569849E+02 -0.25171545799E+03  0.26704047543E+03  0.00000000000E+00 0. -1.
</event>
<event>
 7    1  0.6105960E-006  0.5736120E+02  0.7818608E-02  0.1484978E+00
          2   -1    0    0  502    0  0.00000000000E+00  0.00000000000E+00  0.36366960639E+03  0.36366960639E+03  0.00000000000E+00 0. -1.
          1   -1    0    0  501    0 -0.00000000000E+00 -0.00000000000E+00 -0.15980669994E+03  0.15980669994E+03  0.00000000000E+00 0. -1.
         25    2    1    2    0    0 -0.43492886505E+02 -0.11959223445E+02 -0.52686923507E+01  0.13299051847E+03  0.12499625868E+03 0.  0.
          2    1    1    2  501    0  0.57691323905E+02 -0.17548911688E+02 -0.79623002687E+02  0.99880306929E+02  0.00000000000E+00 0. -1.
          1    1    1    2  502    0 -0.14198437400E+02  0.29508135133E+02  0.28875460149E+03  0.29060548093E+03  0.00000000000E+00 0. -1.
         22    1    3    3    0    0 -0.58694312718E+02 -0.55357826913E+02  0.16119175088E+02  0.82275993774E+02  0.00000000000E+00 0.  1.
         22    1    3    3    0    0  0.15201426213E+02  0.43398603468E+02 -0.21387867439E+02  0.50714524699E+02  0.00000000000E+00 0.  1.
</event>
<event>
 7    1  0.6105960E-006  0.7157971E+02  0.7818608E-02  0.1407671E+00
          2   -1    0    0  502    0  0.00000000000E+00  0.00000000000E+00  0.28327384334E+03  0.28327384334E+03  0.00000000000E+00 0. -1.
          1   -1    0    0  501    0 -0.00000000000E+00 -0.00000000000E+00 -0.76827501911E+03  0.76827501911E+03  0.00000000000E+00 0. -1.
         25    2    1    2    0    0 -0.17642220534E+02  0.43292982454E+02  0.90184042896E+02  0.16107057686E+03  0.12500015544E+03 0.  0.
          2    1    1    2  501    0 -0.46202251153E+02  0.55874938621E+01 -0.72178034664E+03  0.72327915558E+03  0.00000000000E+00 0. -1.
          1    1    1    2  502    0  0.63844471688E+02 -0.48880476316E+02  0.14659512797E+03  0.16719913001E+03  0.00000000000E+00 0. -1.
         22    1    3    3    0    0 -0.12073605188E+02 -0.40077219405E+02  0.56933432852E+01  0.42241799385E+02  0.00000000000E+00 0.  1.
         22    1    3    3    0    0 -0.55686153461E+01  0.83370201859E+02  0.84490699611E+02  0.11882877747E+03  0.00000000000E+00 0.  1.
</event>
<event>
 7    1  0.6858681E-006  0.5840455E+02  0.7818608E-02  0.1420133E+00
          2   -1    0    0  502    0  0.00000000000E+00  0.00000000000E+00  0.10877063564E+04  0.10877063564E+04  0.00000000000E+00 0. -1.
          1   -1    0    0  501    0 -0.00000000000E+00 -0.00000000000E+00 -0.67033624670E+03  0.67033624670E+03  0.00000000000E+00 0. -1.
         25    2    1    2    0    0  0.16227066901E+02 -0.10770235006E+03 -0.93751136281E+02  0.19046835376E+03  0.12500321724E+03 0.  0.
          2    1    1    2  501    0 -0.39977078447E+00  0.51778600073E+02 -0.52614207292E+03  0.52868389812E+03  0.00000000000E+00 0. -1.
          1    1    1    2  502    0 -0.15827296116E+02  0.55923749992E+02  0.10372633189E+04  0.10388903513E+04  0.00000000000E+00 0. -1.
         22    1    3    3    0    0 -0.26910025679E+01 -0.95618816050E+02 -0.16498235494E+01  0.95670901508E+02  0.00000000000E+00 0.  1.
         22    1    3    3    0    0  0.18918069469E+02 -0.12083534015E+02 -0.92101312732E+02  0.94797452253E+02  0.00000000000E+00 0.  1.
</event>
<event>
 7    1  0.6105960E-006  0.1124371E+03  0.7818608E-02  0.1381777E+00
          2   -1    0    0  502    0  0.00000000000E+00  0.00000000000E+00  0.13072571512E+03  0.13072571512E+03  0.00000000000E+00 0. -1.
          1   -1    0    0  501    0 -0.00000000000E+00 -0.00000000000E+00 -0.66288568035E+03  0.66288568035E+03  0.00000000000E+00 0. -1.
         25    2    1    2    0    0  0.23437726809E+02 -0.12180604677E+03 -0.23171184779E+03  0.29103645333E+03  0.12500318672E+03 0.  0.
          2    1    1    2  501    0 -0.34797849558E+02  0.10775683276E+02 -0.36952611119E+03  0.37131732054E+03  0.00000000000E+00 0. -1.
          1    1    1    2  502    0  0.11360122749E+02  0.11103036350E+03  0.69077993755E+02  0.13125762160E+03  0.00000000000E+00 0. -1.
         22    1    3    3    0    0  0.50618058601E+02 -0.43371364393E-01 -0.79238189569E+02  0.94025956118E+02  0.00000000000E+00 0. -1.
         22    1    3    3    0    0 -0.27180331792E+02 -0.12176267541E+03 -0.15247365822E+03  0.19701049721E+03  0.00000000000E+00 0. -1.
</event>
<event>
 7    1  0.6105960E-006  0.1482364E+03  0.7818608E-02  0.1277338E+00
          2   -1    0    0  502    0  0.00000000000E+00  0.00000000000E+00  0.18198462427E+03  0.18198462427E+03  0.00000000000E+00 0. -1.
          1   -1    0    0  501    0 -0.00000000000E+00 -0.00000000000E+00 -0.18827340087E+04  0.18827340087E+04  0.00000000000E+00 0. -1.
         25    2    1    2    0    0 -0.13540999736E+03 -0.15692356481E+03 -0.21500140295E+02  0.24298261039E+03  0.12496967769E+03 0.  0.
          2    1    1    2  501    0  0.11547238624E+03  0.90460676269E+02 -0.17297228822E+04  0.17359315237E+04  0.00000000000E+00 0. -1.
          1    1    1    2  502    0  0.19937611111E+02  0.66462888544E+02  0.50473638022E+02  0.85804498866E+02  0.00000000000E+00 0. -1.
         22    1    3    3    0    0 -0.13192800853E+03 -0.10230698714E+03 -0.58522872471E+02  0.17690857994E+03  0.00000000000E+00 0. -1.
         22    1    3    3    0    0 -0.34819888257E+01 -0.54616577672E+02  0.37022732176E+02  0.66074030455E+02  0.00000000000E+00 0. -1.
</event>
<event>
 7    1  0.6105960E-006  0.1746371E+03  0.7818608E-02  0.1255131E+00
          2   -1    0    0  502    0  0.00000000000E+00  0.00000000000E+00  0.37327166797E+03  0.37327166797E+03  0.00000000000E+00 0. -1.
          1   -1    0    0  501    0 -0.00000000000E+00 -0.00000000000E+00 -0.14176798924E+04  0.14176798924E+04  0.00000000000E+00 0. -1.
         25    2    1    2    0    0  0.98103804842E+02 -0.12464591476E+03 -0.50155634362E+03  0.54068934779E+03  0.12500097759E+03 0.  0.
          2    1    1    2  501    0 -0.16314969323E+03  0.91280685740E+02 -0.88288421723E+03  0.90246026340E+03  0.00000000000E+00 0. -1.
          1    1    1    2  502    0  0.65045888391E+02  0.33365229016E+02  0.34003233637E+03  0.34780194922E+03  0.00000000000E+00 0. -1.
         22    1    3    3    0    0  0.48553108486E+02 -0.11236529604E+03 -0.19734883848E+03  0.23222818121E+03  0.00000000000E+00 0. -1.
         22    1    3    3    0    0  0.49550696356E+02 -0.12280618715E+02 -0.30420750514E+03  0.30846116658E+03  0.00000000000E+00 0. -1.
</event>
<event>
 7    1  0.6105960E-006  0.4066335E+02  0.7818608E-02  0.1610408E+00
          2   -1    0    0  502    0  0.00000000000E+00  0.00000000000E+00  0.11048614771E+04  0.11048614771E+04  0.00000000000E+00 0. -1.
          1   -1    0    0  501    0 -0.00000000000E+00 -0.00000000000E+00 -0.30950257937E+03  0.30950257937E+03  0.00000000000E+00 0. -1.
         25    2    1    2    0    0  0.21506260976E+02 -0.13299675890E+02  0.52820943989E+03  0.54338769626E+03  0.12500230165E+03 0.  0.
          2    1    1    2  501    0 -0.22646127091E+02  0.33828101518E+02 -0.30035421128E+03  0.30310037902E+03  0.00000000000E+00 0. -1.
          1    1    1    2  502    0  0.11398661154E+01 -0.20528425628E+02  0.56750366907E+03  0.56787598114E+03  0.00000000000E+00 0. -1.
         22    1    3    3    0    0  0.11805154841E+02 -0.27240343823E+02  0.22143669966E+02  0.37037010300E+02  0.00000000000E+00 0.  1.
         22    1    3    3    0    0  0.97011061350E+01  0.13940667933E+02  0.50606576993E+03  0.50635068596E+03  0.00000000000E+00 0.  1.
</event>
<event>
 7    1  0.6105960E-006  0.4880255E+02  0.7818608E-02  0.1540974E+00
          2   -1    0    0  502    0  0.00000000000E+00  0.00000000000E+00  0.15379925030E+04  0.15379925030E+04  0.00000000000E+00 0. -1.
          1   -1    0    0  501    0 -0.00000000000E+00 -0.00000000000E+00 -0.22673084194E+02  0.22673084194E+02  0.00000000000E+00 0. -1.
         25    2    1    2    0    0 -0.36364685567E+02 -0.59319416405E+02  0.60120170224E+03  0.61798583177E+03  0.12498727122E+03 0.  0.
          2    1    1    2  501    0  0.13913497607E+02  0.45486856556E+02  0.26074304762E+02  0.54244897491E+02  0.00000000000E+00 0. -1.
          1    1    1    2  502    0  0.22451187959E+02  0.13832559849E+02  0.88804341185E+03  0.88843485798E+03  0.00000000000E+00 0. -1.
         22    1    3    3    0    0  0.46887193741E+02 -0.21523895468E+02  0.21105357515E+03  0.21726780386E+03  0.00000000000E+00 0. -1.
         22    1    3    3    0    0 -0.83251879307E+02 -0.37795520937E+02  0.39014812710E+03  0.40071802791E+03  0.00000000000E+00 0. -1.
</event>
<event>
 7    1  0.6105960E-006  0.9494014E+02  0.7818608E-02  0.1392614E+00
          2   -1    0    0  502    0  0.00000000000E+00  0.00000000000E+00  0.30748753913E+04  0.30748753913E+04  0.00000000000E+00 0. -1.
          1   -1    0    0  501    0 -0.00000000000E+00 -0.00000000000E+00 -0.17638257068E+03  0.17638257068E+03  0.00000000000E+00 0. -1.
         25    2    1    2    0    0  0.12858390668E+03  0.17555306026E+01  0.13988495294E+03  0.22743873356E+03  0.12499469796E+03 0.  0.
          2    1    1    2  501    0 -0.35964565974E+02  0.16405490872E+02 -0.12887144736E+03  0.13479777476E+03  0.00000000000E+00 0. -1.
          1    1    1    2  502    0 -0.92619340710E+02 -0.18161021474E+02  0.28874793150E+04  0.28890214536E+04  0.00000000000E+00 0. -1.
         22    1    3    3    0    0  0.41432787445E+02  0.20062630466E+02 -0.15305793186E+02  0.48512393486E+02  0.00000000000E+00 0. -1.
         22    1    3    3    0    0  0.87151119239E+02 -0.18307099863E+02  0.15519074612E+03  0.17892634007E+03  0.00000000000E+00 0. -1.
</event>
<event>
 7    1  0.6105960E-006  0.1303181E+03  0.7818608E-02  0.1304322E+00
          2   -1    0    0  502    0  0.00000000000E+00  0.00000000000E+00  0.10890253395E+04  0.10890253395E+04  0.00000000000E+00 0. -1.
          1   -1    0    0  501    0 -0.00000000000E+00 -0.00000000000E+00 -0.10254187009E+04  0.10254187009E+04  0.00000000000E+00 0. -1.
         25    2    1    2    0    0 -0.15341649517E+03 -0.44422036020E+02  0.11323224401E+03  0.23228667603E+03  0.12500248200E+03 0.  0.
          2    1    1    2  501    0  0.12929403632E+03 -0.11957581142E+02 -0.96049202588E+03  0.96922900459E+03  0.00000000000E+00 0. -1.
          1    1    1    2  502    0  0.24122458845E+02  0.56379617161E+02  0.91086642040E+03  0.91292835976E+03  0.00000000000E+00 0. -1.
         22    1    3    3    0    0 -0.98550080427E+02  0.32110147611E+02  0.84805409867E+02  0.13392213213E+03  0.00000000000E+00 0. -1.
         22    1    3    3    0    0 -0.54866414740E+02 -0.76532183631E+02  0.28426834143E+02  0.98364543902E+02  0.00000000000E+00 0. -1.
</event>
<event>
 7    1  0.6105960E-006  0.4624803E+02  0.7818608E-02  0.1469705E+00
          2   -1    0    0  502    0  0.00000000000E+00  0.00000000000E+00  0.24846580606E+04  0.24846580606E+04  0.00000000000E+00 0. -1.
          1   -1    0    0  501    0 -0.00000000000E+00 -0.00000000000E+00 -0.11171797584E+04  0.11171797584E+04  0.00000000000E+00 0. -1.
         25    2    1    2    0    0  0.22751076212E+02 -0.40837122749E+02  0.23669338387E+03  0.27172649709E+03  0.12500499665E+03 0.  0.
          2    1    1    2  501    0  0.22507148144E+02  0.40449210325E+02 -0.10989463196E+04  0.10999207806E+04  0.00000000000E+00 0. -1.
          1    1    1    2  502    0 -0.45258224356E+02  0.38791242458E+00  0.22297312379E+04  0.22301905413E+04  0.00000000000E+00 0. -1.
         22    1    3    3    0    0  0.56541986000E+02 -0.36492904995E+02  0.55130418846E+02  0.86994777878E+02  0.00000000000E+00 0. -1.
         22    1    3    3    0    0 -0.33790909789E+02 -0.43442177541E+01  0.18156296503E+03  0.18473171921E+03  0.00000000000E+00 0. -1.
</event>
<event>
 7    1  0.6105960E-006  0.1743511E+03  0.7818608E-02  0.1198710E+00
          2   -1    0    0  502    0  0.00000000000E+00  0.00000000000E+00  0.13946241209E+04  0.13946241209E+04  0.00000000000E+00 0. -1.
          1   -1    0    0  501    0 -0.00000000000E+00 -0.00000000000E+00 -0.78200724677E+03  0.78200724677E+03  0.00000000000E+00 0. -1.
         25    2    1    2    0    0  0.23332948839E+03  0.67440802663E+02  0.53696809268E+03  0.60245408530E+03  0.12500112127E+03 0.  0.
          2    1    1    2  501    0 -0.16744392419E+03  0.46415788005E+02 -0.73380894485E+03  0.75410043142E+03  0.00000000000E+00 0. -1.
          1    1    1    2  502    0 -0.65885564194E+02 -0.11385659067E+03  0.80945772625E+03  0.82007685091E+03  0.00000000000E+00 0. -1.
         22    1    3    3    0    0  0.15921349974E+03  0.10408983917E+03  0.38610367260E+03  0.43041802833E+03  0.00000000000E+00 0. -1.
         22    1    3    3    0    0  0.74115988647E+02 -0.36649036506E+02  0.15086442009E+03  0.17203605697E+03  0.00000000000E+00 0. -1.
</event>
<event>
 7    1  0.6105960E-006  0.3826035E+02  0.7818608E-02  0.1557895E+00
          2   -1    0    0  502    0  0.00000000000E+00  0.00000000000E+00  0.73546892326E+03  0.73546892326E+03  0.00000000000E+00 0. -1.
          1   -1    0    0  501    0 -0.00000000000E+00 -0.00000000000E+00 -0.15392038761E+03  0.15392038761E+03  0.00000000000E+00 0. -1.
         25    2    1    2    0    0 -0.24296090371E+02 -0.55138366857E+01  0.10264894732E+03  0.16365174283E+03  0.12499753656E+03 0.  0.
          2    1    1    2  501    0  0.30437655906E+02 -0.24024295999E+02 -0.11998410708E+03  0.12609442354E+03  0.00000000000E+00 0. -1.
          1    1    1    2  502    0 -0.61415655345E+01  0.29538132685E+02  0.59888369542E+03  0.59964314450E+03  0.00000000000E+00 0. -1.
         22    1    3    3    0    0 -0.62415889611E+02 -0.33043222851E+02  0.91035924857E+02  0.11521778277E+03  0.00000000000E+00 0. -1.
         22    1    3    3    0    0  0.38119799240E+02  0.27529386165E+02  0.11613022459E+02  0.48433960062E+02  0.00000000000E+00 0. -1.
</event>
<event>
 7    1  0.6105960E-006  0.3073955E+03  0.7818608E-02  0.1138240E+00
          2   -1    0    0  502    0  0.00000000000E+00  0.00000000000E+00  0.11670530542E+04  0.11670530542E+04  0.00000000000E+00 0. -1.
          1   -1    0    0  501    0 -0.00000000000E+00 -0.00000000000E+00 -0.14179486024E+04  0.14179486024E+04  0.00000000000E+00 0. -1.
         25    2    1    2    0    0  0.22287231574E+01  0.34217537582E+03  0.48851428137E+02  0.36756575422E+03  0.12501666535E+03 0.  0.
          2    1    1    2  501    0 -0.13581206211E+03 -0.27541470141E+03 -0.12338407659E+04  0.12714799289E+04  0.00000000000E+00 0. -1.
          1    1    1    2  502    0  0.13358333896E+03 -0.66760674414E+02  0.93409378957E+03  0.94595597350E+03  0.00000000000E+00 0. -1.
         22    1    3    3    0    0 -0.31715892684E+02  0.29702941270E+03  0.70756302065E+02  0.30698342649E+03  0.00000000000E+00 0. -1.
         22    1    3    3    0    0  0.33944615842E+02  0.45145963125E+02 -0.21904873928E+02  0.60582327728E+02  0.00000000000E+00 0. -1.
</event>
<event>
 7    1  0.6105960E-006  0.4900425E+02  0.7818608E-02  0.1577408E+00
          2   -1    0    0  502    0  0.00000000000E+00  0.00000000000E+00  0.56448129774E+03  0.56448129774E+03  0.00000000000E+00 0. -1.
          1   -1    0    0  501    0 -0.00000000000E+00 -0.00000000000E+00 -0.22215466473E+02  0.22215466473E+02  0.00000000000E+00 0. -1.
         25    2    1    2    0    0  0.33891913514E+02 -0.10001871765E+02  0.28991086541E+03  0.31768226182E+03  0.12500004141E+03 0.  0.
          2    1    1    2  501    0 -0.46238271798E+02  0.26791651108E+02  0.85248577373E+02  0.10061356913E+03  0.00000000000E+00 0. -1.
          1    1    1    2  502    0  0.12346358284E+02 -0.16789779344E+02  0.16710638848E+03  0.16840093327E+03  0.00000000000E+00 0. -1.
         22    1    3    3    0    0 -0.46493112762E+02 -0.13365551970E+02  0.89760713527E+02  0.10196682405E+03  0.00000000000E+00 0.  1.
         22    1    3    3    0    0  0.80385026276E+02  0.33636802050E+01  0.20015015188E+03  0.21571543777E+03  0.00000000000E+00 0.  1.
</event>
<event>
 7    1  0.6105960E-006  0.7177351E+02  0.7818608E-02  0.1466953E+00
          2   -1    0    0  502    0  0.00000000000E+00  0.00000000000E+00  0.80741244961E+02  0.80741244961E+02  0.00000000000E+00 0. -1.
          1   -1    0    0  501    0 -0.00000000000E+00 -0.00000000000E+00 -0.22085046057E+04  0.22085046057E+04  0.00000000000E+00 0. -1.
         25    2    1    2    0    0  0.30992475105E+02  0.44507090821E+02 -0.19653764328E+03  0.23915154050E+03  0.12499999780E+03 0.  0.
          2    1    1    2  501    0 -0.16556726052E+02 -0.70515054555E+02 -0.19862362963E+04  0.19875565710E+04  0.00000000000E+00 0. -1.
          1    1    1    2  502    0 -0.14435749053E+02  0.26007963734E+02  0.55010578884E+02  0.62537739145E+02  0.00000000000E+00 0. -1.
         22    1    3    3    0    0 -0.22530611826E+02  0.71782181125E+02 -0.95108615179E+02  0.12126812721E+03  0.00000000000E+00 0.  1.
         22    1    3    3    0    0  0.53523086931E+02 -0.27275090304E+02 -0.10142902810E+03  0.11788341329E+03  0.00000000000E+00 0.  1.
</event>
<event>
 7    1  0.6105960E-006  0.1823622E+03  0.7818608E-02  0.1221594E+00
          2   -1    0    0  502    0  0.00000000000E+00  0.00000000000E+00  0.75630109440E+03  0.75630109440E+03  0.00000000000E+00 0. -1.
          1   -1    0    0  501    0 -0.00000000000E+00 -0.00000000000E+00 -0.37086091405E+03  0.37086091405E+03  0.00000000000E+00 0. -1.
         25    2    1    2    0    0 -0.13645997016E+03  0.16557037606E+03  0.32056346659E+03  0.40548551202E+03  0.12499076550E+03 0.  0.
          2    1    1    2  501    0  0.16682389049E+03 -0.71857387356E+02 -0.29616900542E+03  0.34743312209E+03  0.00000000000E+00 0. -1.
          1    1    1    2  502    0 -0.30363920326E+02 -0.93712988700E+02  0.36104571918E+03  0.37424337435E+03  0.00000000000E+00 0. -1.
         22    1    3    3    0    0 -0.13892612258E+03  0.17758937703E+03  0.26205323922E+03  0.34570269677E+03  0.00000000000E+00 0.  1.
         22    1    3    3    0    0  0.24661524227E+01 -0.12019000972E+02  0.58510227366E+02  0.59782815245E+02  0.00000000000E+00 0.  1.
</event>
<event>
 7    1  0.6105960E-006  0.7674736E+02  0.7818608E-02  0.1367112E+00
          2   -1    0    0  502    0  0.00000000000E+00  0.00000000000E+00  0.61886967152E+03  0.61886967152E+03  0.00000000000E+00 0. -1.
          1   -1    0    0  501    0 -0.00000000000E+00 -0.00000000000E+00 -0.24747344396E+04  0.24747344396E+04  0.00000000000E+00 0. -1.
         25    2    1    2    0    0  0.52637481949E+02  0.78199551895E+01 -0.15424564670E+04  0.15484264670E+04  0.12498285782E+03 0.  0.
          2    1    1    2  501    0 -0.84213309684E+02 -0.59083729268E+02 -0.92496313366E+03  0.93066619538E+03  0.00000000000E+00 0. -1.
          1    1    1    2  502    0  0.31575827735E+02  0.51263774079E+02  0.61155483258E+03  0.61451144878E+03  0.00000000000E+00 0. -1.
         22    1    3    3    0    0  0.22750156986E+02 -0.11703698869E+02 -0.56290068307E+02  0.61831367445E+02  0.00000000000E+00 0. -1.
         22    1    3    3    0    0  0.29887324963E+02  0.19523654058E+02 -0.14861663987E+04  0.14865950995E+04  0.00000000000E+00 0. -1.
</event>
<event>
 7    1  0.6105960E-006  0.1046084E+03  0.7818608E-02  0.1367973E+00
          2   -1    0    0  502    0  0.00000000000E+00  0.00000000000E+00  0.72771898904E+03  0.72771898904E+03  0.00000000000E+00 0. -1.
          1   -1    0    0  501    0 -0.00000000000E+00 -0.00000000000E+00 -0.59330266587E+03  0.59330266587E+03  0.00000000000E+00 0. -1.
         25    2    1    2    0    0  0.62397834141E+02 -0.71263275903E+02 -0.17063553065E+02  0.15775768242E+03  0.12499750926E+03 0.  0.
          2    1    1    2  501    0 -0.30626808456E+02  0.10149734114E+03 -0.49959178122E+03  0.51071680951E+03  0.00000000000E+00 0. -1.
          1    1    1    2  502    0 -0.31771025685E+02 -0.30234065233E+02  0.65107165746E+03  0.65254716298E+03  0.00000000000E+00 0. -1.
         22    1    3    3    0    0  0.50305940935E+02  0.22509720170E+02  0.16335914406E+02  0.57482495552E+02  0.00000000000E+00 0. -1.
         22    1    3    3    0    0  0.12091893206E+02 -0.93772996073E+02 -0.33399467471E+02  0.10027518687E+03  0.00000000000E+00 0. -1.
</event>
<event>
 7    1  0.6105960E-006  0.4743759E+02  0.7818608E-02  0.1494412E+00
          2   -1    0    0  502    0  0.00000000000E+00  0.00000000000E+00  0.35810784979E+03  0.35810784979E+03  0.00000000000E+00 0. -1.
          1   -1    0    0  501    0 -0.00000000000E+00 -0.00000000000E+00 -0.27892404670E+03  0.27892404670E+03  0.00000000000E+00 0. -1.
         25    2    1    2    0    0  0.29107969158E+02  0.13297533248E+02 -0.85847850010E+01  0.12932147045E+03  0.12500498361E+03 0.  0.
          2    1    1    2  501    0 -0.13288748984E+02 -0.46830235724E+02 -0.20596837830E+03  0.21164270526E+03  0.00000000000E+00 0. -1.
          1    1    1    2  502    0 -0.15819220175E+02  0.33532702476E+02  0.29373696639E+03  0.29606772078E+03  0.00000000000E+00 0. -1.
         22    1    3    3    0    0 -0.18188344951E+02 -0.46573365479E+01  0.49116834027E+02  0.52582982614E+02  0.00000000000E+00 0. -1.
         22    1    3    3    0    0  0.47296314109E+02  0.17954869796E+02 -0.57701619028E+02  0.76738487841E+02  0.00000000000E+00 0. -1.
</event>
<event>
 7    1  0.6105960E-006  0.6979534E+02  0.7818608E-02  0.1404355E+00
          2   -1    0    0  502    0  0.00000000000E+00  0.00000000000E+00  0.90363073879E+03  0.90363073879E+03  0.00000000000E+00 0. -1.
          1   -1    0    0  501    0 -0.00000000000E+00 -0.00000000000E+00 -0.76759067129E+02  0.76759067129E+02  0.00000000000E+00 0. -1.
         25    2    1    2    0    0  0.79067964363E+02  0.64588073536E+02  0.25528220775E+03  0.30202181712E+03  0.12499924075E+03 0.  0.
          2    1    1    2  501    0 -0.48836012065E+02 -0.38429723085E+01 -0.39866368027E+02  0.63158940858E+02  0.00000000000E+00 0. -1.
          1    1    1    2  502    0 -0.30231952298E+02 -0.60745101227E+02  0.61145583193E+03  0.61520904794E+03  0.00000000000E+00 0. -1.
         22    1    3    3    0    0 -0.12460812928E+01 -0.29734119602E+02  0.94337306193E+02  0.98920159355E+02  0.00000000000E+00 0. -1.
         22    1    3    3    0    0  0.80314045656E+02  0.94322193138E+02  0.16094490156E+03  0.20310165776E+03  0.00000000000E+00 0. -1.
</event>
<event>
 7    1  0.6105960E-006  0.1252209E+03  0.7818608E-02  0.1387607E+00
          2   -1    0    0  502    0  0.00000000000E+00  0.00000000000E+00  0.22213323583E+04  0.22213323583E+04  0.00000000000E+00 0. -1.
          1   -1    0    0  501    0 -0.00000000000E+00 -0.00000000000E+00 -0.25328262243E+03  0.25328262243E+03  0.00000000000E+00 0. -1.
         25    2    1    2    0    0  0.92275425731E+02  0.98214329984E+02  0.14313315879E+04  0.14430833427E+04  0.12497443893E+03 0.  0.
          2    1    1    2  501    0 -0.10416986316E+03 -0.69369792088E+02 -0.23124196853E+03  0.26293797074E+03  0.00000000000E+00 0. -1.
          1    1    1    2  502    0  0.11894437429E+02 -0.28844537895E+02  0.76796011649E+03  0.76859366738E+03  0.00000000000E+00 0. -1.
         22    1    3    3    0    0  0.36402653057E+02 -0.13639870382E+02  0.70481955640E+03  0.70589078922E+03  0.00000000000E+00 0. -1.
         22    1    3    3    0    0  0.55872772673E+02  0.11185420037E+03  0.72651203155E+03  0.73719255344E+03  0.00000000000E+00 0. -1.
</event>
<event>
 7    1  0.6105960E-006  0.6069245E+02  0.7818608E-02  0.1514875E+00
          2   -1    0    0  502    0  0.00000000000E+00  0.00000000000E+00  0.11103627116E+03  0.11103627116E+03  0.00000000000E+00 0. -1.
          1   -1    0    0  501    0 -0.00000000000E+00 -0.00000000000E+00 -0.81515178879E+03  0.81515178879E+03  0.00000000000E+00 0. -1.
         25    2    1    2    0    0 -0.17653794978E+02  0.35120631372E+02 -0.33148973111E+03  0.35644601557E+03  0.12499281964E+03 0.  0.
          2    1    1    2  501    0  0.27805154950E+02 -0.58186211736E+02 -0.46732169322E+03  0.47175028016E+03  0.00000000000E+00 0. -1.
          1    1    1    2  502    0 -0.10151359972E+02  0.23065580364E+02  0.94695906707E+02  0.97991764215E+02  0.00000000000E+00 0. -1.
         22    1    3    3    0    0  0.49756068321E+01  0.56946268412E+01 -0.31621442323E+03  0.31630483223E+03  0.00000000000E+00 0.  1.
         22    1    3    3    0    0 -0.22629401810E+02  0.29426004531E+02 -0.15275307884E+02  0.40141183339E+02  0.00000000000E+00 0.  1.
</event>
<event>
 7    1  0.6105960E-006  0.6366768E+03  0.7818608E-02  0.1102685E+00
          2   -1    0    0  502    0  0.00000000000E+00  0.00000000000E+00  0.77880423527E+03  0.77880423527E+03  0.00000000000E+00 0. -1.
          1   -1    0    0  501    0 -0.00000000000E+00 -0.00000000000E+00 -0.36957340620E+04  0.36957340620E+04  0.00000000000E+00 0. -1.
         25    2    1    2    0    0  0.28328718644E+03  0.59349004727E+03 -0.14894626694E+04  0.16329743918E+04  0.12499701714E+03 0.  0.
          2    1    1    2  501    0 -0.11094826833E+03  0.18254552366E+02 -0.19897836256E+04  0.19929580085E+04  0.00000000000E+00 0. -1.
          1    1    1    2  502    0 -0.17233891811E+03 -0.61174459964E+03  0.56231646832E+03  0.84860589700E+03  0.00000000000E+00 0. -1.
         22    1    3    3    0    0  0.13947103457E+03  0.17535601730E+03 -0.42813739193E+03  0.48322202832E+03  0.00000000000E+00 0.  1.
         22    1    3    3    0    0  0.14381615187E+03  0.41813402997E+03 -0.10613252775E+04  0.11497523634E+04  0.00000000000E+00 0.  1.
</event>
<event>
 7    1  0.6105960E-006  0.4021772E+02  0.7818608E-02  0.1545485E+00
          2   -1    0    0  502    0  0.00000000000E+00  0.00000000000E+00  0.73750162687E+03  0.73750162687E+03  0.00000000000E+00 0. -1.
          1   -1    0    0  501    0 -0.00000000000E+00 -0.00000000000E+00 -0.89193304110E+03  0.89193304110E+03  0.00000000000E+00 0. -1.
         25    2    1    2    0    0 -0.39656803092E+02  0.54199182621E+02 -0.39097515885E+03  0.41592840424E+03  0.12499859674E+03 0.  0.
          2    1    1    2  501    0  0.26503818766E+02 -0.16228133799E+02 -0.48742921632E+03  0.48841892435E+03  0.00000000000E+00 0. -1.
          1    1    1    2  502    0  0.13152984327E+02 -0.37971048822E+02  0.72397296095E+03  0.72508733938E+03  0.00000000000E+00 0. -1.
         22    1    3    3    0    0  0.17317513366E+02 -0.29720095744E+02 -0.54058059703E+02  0.64073818203E+02  0.00000000000E+00 0. -1.
         22    1    3    3    0    0 -0.56974316458E+02  0.83919278365E+02 -0.33691709915E+03  0.35185458604E+03  0.00000000000E+00 0. -1.
</event>
<event>
 7    1  0.6105960E-006  0.6069327E+02  0.7818608E-02  0.1443231E+00
          2   -1    0    0  502    0  0.00000000000E+00  0.00000000000E+00  0.10883175955E+04  0.10883175955E+04  0.00000000000E+00 0. -1.
          1   -1    0    0  501    0 -0.00000000000E+00 -0.00000000000E+00 -0.72700008796E+02  0.72700008796E+02  0.00000000000E+00 0. -1.
         25    2    1    2    0    0 -0.33011333495E+01 -0.36304207718E+02  0.12787925399E+03  0.18250694018E+03  0.12500714633E+03 0.  0.
          2    1    1    2  501    0  0.39422051469E+02 -0.14021693343E+02 -0.34477720577E+02  0.54216411191E+02  0.00000000000E+00 0. -1.
          1    1    1    2  502    0 -0.36120918120E+02  0.50325901061E+02  0.92221605333E+03  0.92429425297E+03  0.00000000000E+00 0. -1.
         22    1    3    3    0    0  0.75867917129E+00 -0.16672540621E+02  0.15099192127E+03  0.15191151863E+03  0.00000000000E+00 0. -1.
         22    1    3    3    0    0 -0.40598125208E+01 -0.19631667097E+02 -0.23112667281E+02  0.30595421546E+02  0.00000000000E+00 0. -1.
</event>
<event>
 7    1  0.6105960E-006  0.7401675E+02  0.7818608E-02  0.1372619E+00
          2   -1    0    0  502    0  0.00000000000E+00  0.00000000000E+00  0.95984897283E+03  0.95984897283E+03  0.00000000000E+00 0. -1.
          1   -1    0    0  501    0 -0.00000000000E+00 -0.00000000000E+00 -0.20246815205E+03  0.20246815205E+03  0.00000000000E+00 0. -1.
         25    2    1    2    0    0 -0.83731837931E+02 -0.24805407884E+02  0.66771144101E+02  0.16646216183E+03  0.12499974677E+03 0.  0.
          2    1    1    2  501    0  0.67178436616E+02 -0.32498229378E+02 -0.14236975204E+03  0.16074272473E+03  0.00000000000E+00 0. -1.
          1    1    1    2  502    0  0.16553401315E+02  0.57303637262E+02  0.83297942871E+03  0.83511223832E+03  0.00000000000E+00 0. -1.
         22    1    3    3    0    0 -0.48504684635E+01 -0.42457456021E+02 -0.20595579491E+02  0.47437754064E+02  0.00000000000E+00 0.  1.
         22    1    3    3    0    0 -0.78881369467E+02  0.17652048137E+02  0.87366723591E+02  0.11902440776E+03  0.00000000000E+00 0.  1.
</event>
<event>
 7    1  0.6105960E-006  0.3288261E+02  0.7818608E-02  0.1624315E+00
          2   -1    0    0  502    0  0.00000000000E+00  0.00000000000E+00  0.62057997932E+02  0.62057997932E+02  0.00000000000E+00 0. -1.
          1   -1    0    0  501    0 -0.00000000000E+00 -0.00000000000E+00 -0.49849353732E+03  0.49849353732E+03  0.00000000000E+00 0. -1.
         25    2    1    2    0    0  0.73578318883E+01 -0.75177646318E+01 -0.15678283001E+03  0.20078960284E+03  0.12499981739E+03 0.  0.
          2    1    1    2  501    0 -0.26714386604E+02  0.20714993144E+02 -0.31529916436E+03  0.31710618480E+03  0.00000000000E+00 0. -1.
          1    1    1    2  502    0  0.19356554715E+02 -0.13197228512E+02  0.35646454988E+02  0.42655747609E+02  0.00000000000E+00 0. -1.
         22    1    3    3    0    0 -0.57881589705E+02 -0.13612161432E+02 -0.83173340823E+02  0.10224174289E+03  0.00000000000E+00 0. -1.
         22    1    3    3    0    0  0.65239421593E+02  0.60943968005E+01 -0.73609489192E+02  0.98547859953E+02  0.00000000000E+00 0. -1.
</event>
<event>
 7    1  0.6105960E-006  0.6038898E+02  0.7818608E-02  0.1452878E+00
          2   -1    0    0  502    0  0.00000000000E+00  0.00000000000E+00  0.14971272642E+04  0.14971272642E+04  0.00000000000E+00 0. -1.
          1   -1    0    0  501    0 -0.00000000000E+00 -0.00000000000E+00 -0.62221459764E+02  0.62221459764E+02  0.00000000000E+00 0. -1.
         25    2    1    2    0    0 -0.25101190782E+02 -0.50838970395E+02  0.56430669509E+03  0.58076514891E+03  0.12502576286E+03 0.  0.
          2    1    1    2  501    0 -0.31028384750E+02  0.23889750586E+02 -0.45693528513E+02  0.60177897863E+02  0.00000000000E+00 0. -1.
          1    1    1    2  502    0  0.56129575532E+02  0.26949219809E+02  0.91629263789E+03  0.91840567722E+03  0.00000000000E+00 0. -1.
         22    1    3    3    0    0 -0.72810263096E+02 -0.24125805793E+02  0.24235611498E+03  0.25420439686E+03  0.00000000000E+00 0. -1.
         22    1    3    3    0    0  0.47709072314E+02 -0.26713164601E+02  0.32195058011E+03  0.32656075205E+03  0.00000000000E+00 0. -1.
</event>
<event>
 7    1  0.6105960E-006  0.6758565E+02  0.7818608E-02  0.1418948E+00
          2   -1    0    0  502    0  0.00000000000E+00  0.00000000000E+00  0.33296780838E+03  0.33296780838E+03  0.00000000000E+00 0. -1.
          1   -1    0    0  501    0 -0.00000000000E+00 -0.00000000000E+00 -0.14474674067E+03  0.14474674067E+03  0.00000000000E+00 0. -1.
         25    2    1    2    0    0  0.77802597367E+02  0.14705535460E+02  0.70250642528E+02  0.16379741028E+03  0.12499976763E+03 0.  0.
          2    1    1    2  501    0 -0.61844132889E+02  0.27536801858E+02 -0.83473174140E+02  0.10747438314E+03  0.00000000000E+00 0. -1.
          1    1    1    2  502    0 -0.15958464478E+02 -0.42242337318E+02  0.20144359932E+03  0.20644275564E+03  0.00000000000E+00 0. -1.
         22    1    3    3    0    0 -0.17627019403E+02 -0.43553899116E+01 -0.22805802071E+02  0.29151086471E+02  0.00000000000E+00 0.  1.
         22    1    3    3    0    0  0.95429616770E+02  0.19060925372E+02  0.93056444599E+02  0.13464632381E+03  0.00000000000E+00 0.  1.
</event>
<event>
 7    1  0.6105960E-006  0.5578697E+02  0.7818608E-02  0.1467939E+00
          2   -1    0    0  502    0  0.00000000000E+00  0.00000000000E+00  0.15843079282E+03  0.15843079282E+03  0.00000000000E+00 0. -1.
          1   -1    0    0  501    0 -0.00000000000E+00 -0.00000000000E+00 -0.33533281293E+03  0.33533281293E+03  0.00000000000E+00 0. -1.
         25    2    1    2    0    0  0.69133333863E+01 -0.53446205838E+02  0.80792311305E+02  0.15829445562E+03  0.12500178405E+03 0.  0.
          2    1    1    2  501    0  0.36744082723E+02  0.96871408221E+01 -0.26981624268E+03  0.27247894070E+03  0.00000000000E+00 0. -1.
          1    1    1    2  502    0 -0.43657416109E+02  0.43759065016E+02  0.12121911263E+02  0.62990209438E+02  0.00000000000E+00 0. -1.
         22    1    3    3    0    0 -0.42332228124E+02 -0.45564611301E+02  0.88150132303E+02  0.10788233018E+03  0.00000000000E+00 0. -1.
         22    1    3    3    0    0  0.49245561511E+02 -0.78815945365E+01 -0.73578209985E+01  0.50412125434E+02  0.00000000000E+00 0. -1.
</event>
<event>
 7    1  0.6105960E-006  0.8840894E+02  0.7818608E-02  0.1358640E+00
          2   -1    0    0  502    0  0.00000000000E+00  0.00000000000E+00  0.44493215191E+04  0.44493215191E+04  0.00000000000E+00 0. -1.
          1   -1    0    0  501    0 -0.00000000000E+00 -0.00000000000E+00 -0.11932527141E+03  0.11932527141E+03  0.00000000000E+00 0. -1.
         25    2    1    2    0    0  0.24020991923E+02 -0.27406502333E+02  0.54022901382E+02  0.14096769179E+03  0.12500116732E+03 0.  0.
          2    1    1    2  501    0  0.53916865855E+02 -0.15518298600E+02 -0.64959409489E+02  0.85834555374E+02  0.00000000000E+00 0. -1.
          1    1    1    2  502    0 -0.77937857778E+02  0.42924800933E+02  0.43409327558E+04  0.43418445434E+04  0.00000000000E+00 0. -1.
         22    1    3    3    0    0  0.35898943734E+02  0.17847809246E+02 -0.26345429046E+02  0.47972493032E+02  0.00000000000E+00 0.  1.
         22    1    3    3    0    0 -0.11877951811E+02 -0.45254311579E+02  0.80368330428E+02  0.92995198755E+02  0.00000000000E+00 0.  1.
</event>
<event>
 7    1  0.6105960E-006  0.6958635E+02  0.7818608E-02  0.1500892E+00
          2   -1    0    0  502    0  0.00000000000E+00  0.00000000000E+00  0.11147056344E+04  0.11147056344E+04  0.00000000000E+00 0. -1.
          1   -1    0    0  501    0 -0.00000000000E+00 -0.00000000000E+00 -0.66607863581E+03  0.66607863581E+03  0.00000000000E+00 0. -1.
         25    2    1    2    0    0  0.39266110131E+02 -0.44058395499E+02  0.30268358160E+03  0.33275421355E+03  0.12500018578E+03 0.  0.
          2    1    1    2  501    0 -0.61044957668E+02  0.33573166933E+02 -0.64899529836E+03  0.65272393988E+03  0.00000000000E+00 0. -1.
          1    1    1    2  502    0  0.21778847537E+02  0.10485228566E+02  0.79493871540E+03  0.79530611683E+03  0.00000000000E+00 0. -1.
         22    1    3    3    0    0 -0.37122967964E+01 -0.78048026159E+02  0.22089493890E+03  0.23430716926E+03  0.00000000000E+00 0.  1.
         22    1    3    3    0    0  0.42978406927E+02  0.33989630660E+02  0.81788642695E+02  0.98447044284E+02  0.00000000000E+00 0.  1.
</event>
<event>
 7    1  0.7875002E-006  0.7988941E+02  0.7818608E-02  0.1435562E+00
          2   -1    0    0  502    0  0.00000000000E+00  0.00000000000E+00  0.22253156850E+04  0.22253156850E+04  0.00000000000E+00 0. -1.
          1   -1    0    0  501    0 -0.00000000000E+00 -0.00000000000E+00 -0.10845635882E+04  0.10845635882E+04  0.00000000000E+00 0. -1.
         25    2    1    2    0    0  0.38539064343E+01 -0.47673097155E+02 -0.61689528821E+02  0.14737232280E+03  0.12500170709E+03 0.  0.
          2    1    1    2  501    0 -0.32292881440E+00  0.81151542556E+02 -0.97822256066E+03  0.98158293349E+03  0.00000000000E+00 0. -1.
          1    1    1    2  502    0 -0.35309776199E+01 -0.33478445401E+02  0.21806641863E+04  0.21809240169E+04  0.00000000000E+00 0. -1.
         22    1    3    3    0    0 -0.17379841733E+02  0.89288895647E+01  0.31039573933E+02  0.36677501516E+02  0.00000000000E+00 0. -1.
         22    1    3    3    0    0  0.21233748167E+02 -0.56601986719E+02 -0.92729102754E+02  0.11069482129E+03  0.00000000000E+00 0. -1.
</event>
<event>
 7    1  0.6105960E-006  0.8555491E+02  0.7818608E-02  0.1337459E+00
          2   -1    0    0  502    0  0.00000000000E+00  0.00000000000E+00  0.10661953232E+04  0.10661953232E+04  0.00000000000E+00 0. -1.
          1   -1    0    0  501    0 -0.00000000000E+00 -0.00000000000E+00 -0.17418506893E+04  0.17418506893E+04  0.00000000000E+00 0. -1.
         25    2    1    2    0    0 -0.89044439062E+02  0.12236175767E+03  0.21992755941E+03  0.29477847057E+03  0.12499961384E+03 0.  0.
          2    1    1    2  501    0  0.42812127290E+02 -0.54746140795E+02 -0.17016403622E+04  0.17030589950E+04  0.00000000000E+00 0. -1.
          1    1    1    2  502    0  0.46232311772E+02 -0.67615616872E+02  0.80605743667E+03  0.81020854692E+03  0.00000000000E+00 0. -1.
         22    1    3    3    0    0  0.22970478172E+02  0.55395822194E+02  0.10482059253E+03  0.12076297696E+03  0.00000000000E+00 0. -1.
         22    1    3    3    0    0 -0.11201491723E+03  0.66965935472E+02  0.11510696687E+03  0.17401549362E+03  0.00000000000E+00 0. -1.
</event>
<event>
 7    1  0.6105960E-006  0.3262753E+02  0.7818608E-02  0.1579270E+00
          2   -1    0    0  502    0  0.00000000000E+00  0.00000000000E+00  0.21209692199E+04  0.21209692199E+04  0.00000000000E+00 0. -1.
          1   -1    0    0  501    0 -0.00000000000E+00 -0.00000000000E+00 -0.99979292200E+01  0.99979292200E+01  0.00000000000E+00 0. -1.
         25    2    1    2    0    0 -0.29631159534E+02  0.12496256075E+00  0.69044989072E+03  0.70229936014E+03  0.12500127373E+03 0.  0.
          2    1    1    2  501    0  0.18425856955E+02 -0.28967310904E+02  0.71738979902E+02  0.79530488135E+02  0.00000000000E+00 0. -1.
          1    1    1    2  502    0  0.11205302579E+02  0.28842348343E+02  0.13487824200E+04  0.13491373008E+04  0.00000000000E+00 0. -1.
         22    1    3    3    0    0 -0.56814802155E+02  0.13117346161E+02  0.64584784631E+03  0.64847469272E+03  0.00000000000E+00 0. -1.
         22    1    3    3    0    0  0.27183642621E+02 -0.12992383601E+02  0.44602044405E+02  0.53824667420E+02  0.00000000000E+00 0. -1.
</event>
<event>
 7    1  0.6105960E-006  0.7861552E+02  0.7818608E-02  0.1476573E+00
          2   -1    0    0  502    0  0.00000000000E+00  0.00000000000E+00  0.15284213027E+03  0.15284213027E+03  0.00000000000E+00 0. -1.
          1   -1    0    0  501    0 -0.00000000000E+00 -0.00000000000E+00 -0.13371009839E+03  0.13371009839E+03  0.00000000000E+00 0. -1.
         25    2    1    2    0    0  0.61554407409E+02 -0.40145506151E+02  0.13240254801E+02  0.14560540236E+03  0.12500008845E+03 0.  0.
          2    1    1    2  501    0  0.17021426600E+02  0.18789516105E+02 -0.40090350246E+02  0.47434281504E+02  0.00000000000E+00 0. -1.
          1    1    1    2  502    0 -0.78575834008E+02  0.21355990046E+02  0.45982127319E+02  0.93512544793E+02  0.00000000000E+00 0. -1.
         22    1    3    3    0    0  0.33425439517E+02 -0.44289025443E+02 -0.50993712423E+02  0.75360045702E+02  0.00000000000E+00 0.  1.
         22    1    3    3    0    0  0.28128967892E+02  0.41435192914E+01  0.64233967223E+02  0.70245356658E+02  0.00000000000E+00 0.  1.
</event>
<event>
 7    1  0.6105960E-006  0.9741221E+02  0.7818608E-02  0.1361146E+00
          2   -1    0    0  502    0  0.00000000000E+00  0.00000000000E+00  0.95342152831E+03  0.95342152831E+03  0.00000000000E+00 0. -1.
          1   -1    0    0  501    0 -0.00000000000E+00 -0.00000000000E+00 -0.45385583908E+03  0.45385583908E+03  0.00000000000E+00 0. -1.
         25    2    1    2    0    0  0.39951935964E+02 -0.34951805382E+02  0.16461878330E+03  0.21340404591E+03  0.12499662839E+03 0.  0.
          2    1    1    2  501    0 -0.89253706978E+02  0.42386200937E+02 -0.42295007257E+03  0.43433809195E+03  0.00000000000E+00 0. -1.
          1    1    1    2  502    0  0.49301771015E+02 -0.74343955554E+01  0.75789697850E+03  0.75953522952E+03  0.00000000000E+00 0. -1.
         22    1    3    3    0    0  0.72314623629E+02  0.63923758625E+01  0.52469620045E+02  0.89573033260E+02  0.00000000000E+00 0.  1.
         22    1    3    3    0    0 -0.32362687665E+02 -0.41344181244E+02  0.11214916326E+03  0.12383101265E+03  0.00000000000E+00 0.  1.
</event>
<event>
 7    1  0.7367804E-006  0.1067455E+03  0.7818608E-02  0.1295191E+00
          2   -1    0    0  502    0  0.00000000000E+00  0.00000000000E+00  0.22668339546E+04  0.22668339546E+04  0.00000000000E+00 0. -1.
          1   -1    0    0  501    0 -0.00000000000E+00 -0.00000000000E+00 -0.11997505850E+04  0.11997505850E+04  0.00000000000E+00 0. -1.
         25    2    1    2    0    0 -0.78420047332E+02 -0.16411484576E+03 -0.19869207458E+03  0.29696368606E+03  0.12500201564E+03 0.  0.
          2    1    1    2  501    0  0.12726250267E+02  0.80441786741E+02 -0.94890165924E+03  0.95239025478E+03  0.00000000000E+00 0. -1.
          1    1    1    2  502    0  0.65693797065E+02  0.83673059019E+02  0.22146771034E+04  0.22172305988E+04  0.00000000000E+00 0. -1.
         22    1    3    3    0    0 -0.22533677671E+02 -0.85940733044E+02 -0.17759508154E+03  0.19857892439E+03  0.00000000000E+00 0.  1.
         22    1    3    3    0    0 -0.55886369660E+02 -0.78174112717E+02 -0.21096993039E+02  0.98384761666E+02  0.00000000000E+00 0.  1.
</event>
<event>
 7    1  0.6105960E-006  0.1623916E+03  0.7818608E-02  0.1213561E+00
          2   -1    0    0  502    0  0.00000000000E+00  0.00000000000E+00  0.10530427364E+04  0.10530427364E+04  0.00000000000E+00 0. -1.
          1   -1    0    0  501    0 -0.00000000000E+00 -0.00000000000E+00 -0.53383589819E+03  0.53383589819E+03  0.00000000000E+00 0. -1.
         25    2    1    2    0    0 -0.11599238053E+03 -0.98664522443E+02  0.46752341393E+03  0.50733811815E+03  0.12499961290E+03 0.  0.
          2    1    1    2  501    0 -0.71921102055E+02  0.96557568414E+02 -0.49084011529E+03  0.50539096521E+03  0.00000000000E+00 0. -1.
          1    1    1    2  502    0  0.18791348259E+03  0.21069540289E+01  0.54252353957E+03  0.57414955124E+03  0.00000000000E+00 0. -1.
         22    1    3    3    0    0 -0.92175799821E+02 -0.72883585534E+02  0.45522589666E+03  0.47014786195E+03  0.00000000000E+00 0.  1.
         22    1    3    3    0    0 -0.23816580713E+02 -0.25780936910E+02  0.12297517269E+02  0.37190256194E+02  0.00000000000E+00 0.  1.
</event>
<event>
 7    1  0.6105960E-006  0.1455208E+03  0.7818608E-02  0.1312201E+00
          2   -1    0    0  502    0  0.00000000000E+00  0.00000000000E+00  0.11037306312E+03  0.11037306312E+03  0.00000000000E+00 0. -1.
          1   -1    0    0  501    0 -0.00000000000E+00 -0.00000000000E+00 -0.52058102108E+03  0.52058102108E+03  0.00000000000E+00 0. -1.
         25    2    1    2    0    0 -0.10789091140E+03 -0.66066459850E+02 -0.53048630414E+02  0.18559427295E+03  0.12500340429E+03 0.  0.
          2    1    1    2  501    0 -0.49616874537E+02 -0.12296629182E+02 -0.20960317129E+03  0.21574645013E+03  0.00000000000E+00 0. -1.
          1    1    1    2  502    0  0.15750778594E+03  0.78363089031E+02 -0.14755615626E+03  0.22961336112E+03  0.00000000000E+00 0. -1.
         22    1    3    3    0    0  0.41140525934E+01  0.14273678336E+02  0.23593501417E+02  0.27880398690E+02  0.00000000000E+00 0. -1.
         22    1    3    3    0    0 -0.11200496399E+03 -0.80340138186E+02 -0.76642131831E+02  0.15771387426E+03  0.00000000000E+00 0. -1.
</event>
<event>
 7    1  0.6105960E-006  0.4782492E+02  0.7818608E-02  0.1489670E+00
          2   -1    0    0  502    0  0.00000000000E+00  0.00000000000E+00  0.88424225225E+03  0.88424225225E+03  0.00000000000E+00 0. -1.
          1   -1    0    0  501    0 -0.00000000000E+00 -0.00000000000E+00 -0.93644872948E+02  0.93644872948E+02  0.00000000000E+00 0. -1.
         25    2    1    2    0    0  0.57338258133E+02 -0.12459268757E+01  0.12359923094E+03  0.18490621199E+03  0.12499723662E+03 0.  0.
          2    1    1    2  501    0 -0.36887768448E+02 -0.30791775466E+02 -0.53253498564E+02  0.71727093951E+02  0.00000000000E+00 0. -1.
          1    1    1    2  502    0 -0.20450489685E+02  0.32037702342E+02  0.72025164693E+03  0.72125381926E+03  0.00000000000E+00 0. -1.
         22    1    3    3    0    0 -0.38065796732E+02 -0.15370744788E+02  0.35131018616E+02  0.54031964107E+02  0.00000000000E+00 0.  1.
         22    1    3    3    0    0  0.95404054866E+02  0.14124817913E+02  0.88468212325E+02  0.13087424788E+03  0.00000000000E+00 0.  1.
</event>
<event>
 7    1  0.6105960E-006  0.1078216E+03  0.7818608E-02  0.1333031E+00
          2   -1    0    0  502    0  0.00000000000E+00  0.00000000000E+00  0.35810380449E+03  0.35810380449E+03  0.00000000000E+00 0. -1.
          1   -1    0    0  501    0 -0.00000000000E+00 -0.00000000000E+00 -0.53303862526E+03  0.53303862526E+03  0.00000000000E+00 0. -1.
         25    2    1    2    0    0 -0.15377379957E+03 -0.20876294366E+02 -0.11634934249E+03  0.23074487831E+03  0.12499531298E+03 0.  0.
          2    1    1    2  501    0  0.10195696408E+03 -0.36271217665E+01 -0.34939907329E+03  0.36398913576E+03  0.00000000000E+00 0. -1.
          1    1    1    2  502    0  0.51816835493E+02  0.24503416133E+02  0.29081359501E+03  0.29640841568E+03  0.00000000000E+00 0. -1.
         22    1    3    3    0    0 -0.16612769248E+03 -0.44656792925E+02 -0.10573033102E+03  0.20191964308E+03  0.00000000000E+00 0. -1.
         22    1    3    3    0    0  0.12353892906E+02  0.23780498559E+02 -0.10619011468E+02  0.28825235233E+02  0.00000000000E+00 0. -1.
</event>
<event>
 7    1  0.6159574E-006  0.1586724E+03  0.7818608E-02  0.1350039E+00
          2   -1    0    0  502    0  0.00000000000E+00  0.00000000000E+00  0.13664293092E+04  0.13664293092E+04  0.00000000000E+00 0. -1.
          1   -1    0    0  501    0 -0.00000000000E+00 -0.00000000000E+00 -0.66411356435E+03  0.66411356435E+03  0.00000000000E+00 0. -1.
         25    2    1    2    0    0 -0.82970603279E+02  0.16140712131E+03 -0.22144349643E+03  0.31240790667E+03  0.12500039288E+03 0.  0.
          2    1    1    2  501    0 -0.88305032670E+01 -0.32444700671E+02 -0.39172244737E+03  0.39316295879E+03  0.00000000000E+00 0. -1.
          1    1    1    2  502    0  0.91801106546E+02 -0.12896242064E+03  0.13154816886E+04  0.13249720081E+04  0.00000000000E+00 0. -1.
         22    1    3    3    0    0 -0.79412092910E+02  0.30239743403E+02 -0.11752105645E+03  0.14502386456E+03  0.00000000000E+00 0.  1.
         22    1    3    3    0    0 -0.35585103691E+01  0.13116737791E+03 -0.10392243998E+03  0.16738404211E+03  0.00000000000E+00 0.  1.
</event>
<event>
 7    1  0.6105960E-006  0.7897040E+02  0.7818608E-02  0.1453332E+00
          2   -1    0    0  502    0  0.00000000000E+00  0.00000000000E+00  0.10770278441E+03  0.10770278441E+03  0.00000000000E+00 0. -1.
          1   -1    0    0  501    0 -0.00000000000E+00 -0.00000000000E+00 -0.92357236178E+03  0.92357236178E+03  0.00000000000E+00 0. -1.
         25    2    1    2    0    0  0.13960152428E+02  0.10053779024E+03 -0.49265681539E+02  0.16839056334E+03  0.12500216527E+03 0.  0.
          2    1    1    2  501    0  0.57351634594E+01 -0.78112770702E+02 -0.80803531329E+03  0.81182237255E+03  0.00000000000E+00 0. -1.
          1    1    1    2  502    0 -0.19695315887E+02 -0.22425019539E+02  0.41431417459E+02  0.51062210311E+02  0.00000000000E+00 0. -1.
         22    1    3    3    0    0 -0.13213681605E+02 -0.21064596745E+02 -0.35058550659E+02  0.42981630866E+02  0.00000000000E+00 0.  1.
         22    1    3    3    0    0  0.27173834032E+02  0.12160238699E+03 -0.14207130880E+02  0.12540893248E+03  0.00000000000E+00 0.  1.
</event>
<event>
 7    1  0.6105960E-006  0.5502221E+03  0.7818608E-02  0.1093833E+00
          2   -1    0    0  502    0  0.00000000000E+00  0.00000000000E+00  0.22711619657E+04  0.22711619657E+04  0.00000000000E+00 0. -1.
          1   -1    0    0  501    0 -0.00000000000E+00 -0.00000000000E+00 -0.72635914191E+03  0.72635914191E+03  0.00000000000E+00 0. -1.
         25    2    1    2    0    0 -0.67755208196E+02 -0.52867781531E+03  0.43047545386E+03  0.69643849310E+03  0.12500583049E+03 0.  0.
          2    1    1    2  501    0 -0.14566442929E+03  0.98277921539E+01 -0.53729385054E+03  0.55677589144E+03  0.00000000000E+00 0. -1.
          1    1    1    2  502    0  0.21341963749E+03  0.51885002315E+03  0.16516212204E+04  0.17443067230E+04  0.00000000000E+00 0. -1.
         22    1    3    3    0    0 -0.48127422197E+02 -0.51406069339E+03  0.38242015683E+03  0.64251056147E+03  0.00000000000E+00 0. -1.
         22    1    3    3    0    0 -0.19627785999E+02 -0.14617121915E+02  0.48055297034E+02  0.53927931625E+02  0.00000000000E+00 0. -1.
</event>
<event>
 7    1  0.6105960E-006  0.7965840E+02  0.7818608E-02  0.1435735E+00
          2   -1    0    0  502    0  0.00000000000E+00  0.00000000000E+00  0.18140934984E+04  0.18140934984E+04  0.00000000000E+00 0. -1.
          1   -1    0    0  501    0 -0.00000000000E+00 -0.00000000000E+00 -0.16887411885E+03  0.16887411885E+03  0.00000000000E+00 0. -1.
         25    2    1    2    0    0  0.97033584500E+02 -0.52675938581E+02  0.26306563932E+03  0.31147828939E+03  0.12499969259E+03 0.  0.
          2    1    1    2  501    0 -0.72970867868E+02  0.29056206465E+02 -0.13380584536E+03  0.15515480961E+03  0.00000000000E+00 0. -1.
          1    1    1    2  502    0 -0.24062716631E+02  0.23619732116E+02  0.15159595856E+04  0.15163345183E+04  0.00000000000E+00 0. -1.
         22    1    3    3    0    0  0.22175679606E+02  0.41152880275E+02  0.73750504195E+02  0.87318137806E+02  0.00000000000E+00 0.  1.
         22    1    3    3    0    0  0.74857904894E+02 -0.93828818856E+02  0.18931513512E+03  0.22416015159E+03  0.00000000000E+00 0.  1.
</event>
<event>
 7    1  0.6105960E-006  0.1913400E+03  0.7818608E-02  0.1210028E+00
          2   -1    0    0  502    0  0.00000000000E+00  0.00000000000E+00  0.69966341195E+03  0.69966341195E+03  0.00000000000E+00 0. -1.
          1   -1    0    0  501    0 -0.00000000000E+00 -0.00000000000E+00 -0.31541596036E+03  0.31541596036E+03  0.00000000000E+00 0. -1.
         25    2    1    2    0    0 -0.26506513863E+03  0.15750381316E+02 -0.10565501178E+03  0.31192218318E+03  0.12499945848E+03 0.  0.
          2    1    1    2  501    0  0.91615501400E+02  0.53513101673E+02 -0.60356826207E+02  0.12206555049E+03  0.00000000000E+00 0. -1.
          1    1    1    2  502    0  0.17344963723E+03 -0.69263482989E+02  0.55025928957E+03  0.58109163863E+03  0.00000000000E+00 0. -1.
         22    1    3    3    0    0 -0.25522213534E+03 -0.15994993911E+02 -0.11004811209E+03  0.27839677651E+03  0.00000000000E+00 0.  1.
         22    1    3    3    0    0 -0.98430032867E+01  0.31745375227E+02  0.43931003134E+01  0.33525406669E+02  0.00000000000E+00 0.  1.
</event>
<event>
 7    1  0.6105960E-006  0.7644470E+02  0.7818608E-02  0.1461217E+00
          2   -1    0    0  502    0  0.00000000000E+00  0.00000000000E+00  0.18661836712E+04  0.18661836712E+04  0.00000000000E+00 0. -1.
          1   -1    0    0  501    0 -0.00000000000E+00 -0.00000000000E+00 -0.75851737533E+03  0.75851737533E+03  0.00000000000E+00 0. -1.
         25    2    1    2    0    0  0.40462773160E+02  0.54160942572E+02 -0.64444626289E+03  0.65992891201E+03  0.12499815775E+03 0.  0.
          2    1    1    2  501    0  0.25077617664E+02 -0.14780648008E+02 -0.10353533838E+03  0.10754961997E+03  0.00000000000E+00 0. -1.
          1    1    1    2  502    0 -0.65540390824E+02 -0.39380294564E+02  0.18556478972E+04  0.18572225146E+04  0.00000000000E+00 0. -1.
         22    1    3    3    0    0  0.44941901131E+01 -0.26274655840E+02 -0.34233934305E+02  0.43387988456E+02  0.00000000000E+00 0.  1.
         22    1    3    3    0    0  0.35968583047E+02  0.80435598412E+02 -0.61021232859E+03  0.61654092356E+03  0.00000000000E+00 0.  1.
</event>
<event>
 7    1  0.6105960E-006  0.8104219E+02  0.7818608E-02  0.1385515E+00
          2   -1    0    0  502    0  0.00000000000E+00  0.00000000000E+00  0.41490392778E+03  0.41490392778E+03  0.00000000000E+00 0. -1.
          1   -1    0    0  501    0 -0.00000000000E+00 -0.00000000000E+00 -0.11902523617E+03  0.11902523617E+03  0.00000000000E+00 0. -1.
         25    2    1    2    0    0  0.91049812237E+02 -0.12815405840E+02  0.66467708143E+02  0.16881202999E+03  0.12500096922E+03 0.  0.
          2    1    1    2  501    0 -0.16914162201E+02  0.46020694528E+02 -0.52441573987E+02  0.71792143651E+02  0.00000000000E+00 0. -1.
          1    1    1    2  502    0 -0.74135650036E+02 -0.33205288688E+02  0.28185255745E+03  0.29332499032E+03  0.00000000000E+00 0. -1.
         22    1    3    3    0    0  0.34279918742E+02  0.51511828850E+01 -0.36203576043E+02  0.50123312265E+02  0.00000000000E+00 0. -1.
         22    1    3    3    0    0  0.56769893495E+02 -0.17966588725E+02  0.10267128419E+03  0.11868871772E+03  0.00000000000E+00 0. -1.
</event>
<event>
 7    1  0.6105960E-006  0.1081068E+03  0.7818608E-02  0.1438580E+00
          2   -1    0    0  502    0  0.00000000000E+00  0.00000000000E+00  0.11994842886E+04  0.11994842886E+04  0.00000000000E+00 0. -1.
          1   -1    0    0  501    0 -0.00000000000E+00 -0.00000000000E+00 -0.10231503742E+03  0.10231503742E+03  0.00000000000E+00 0. -1.
         25    2    1    2    0    0  0.49368348533E+02  0.11900437061E+03  0.44139793795E+03  0.47650455542E+03  0.12500071059E+03 0.  0.
          2    1    1    2  501    0 -0.32406559847E+02 -0.10157511234E+03 -0.50941243160E+02  0.11816386428E+03  0.00000000000E+00 0. -1.
          1    1    1    2  502    0 -0.16961788687E+02 -0.17429258269E+02  0.70671255643E+03  0.70713090637E+03  0.00000000000E+00 0. -1.
         22    1    3    3    0    0  0.84817137217E+02  0.44678241962E+02  0.26573814553E+03  0.28250106913E+03  0.00000000000E+00 0.  1.
         22    1    3    3    0    0 -0.35448788683E+02  0.74326128646E+02  0.17565979242E+03  0.19400348629E+03  0.00000000000E+00 0.  1.
</event>
<event>
 7    1  0.6105960E-006  0.1261011E+03  0.7818608E-02  0.1320644E+00
          2   -1    0    0  502    0  0.00000000000E+00  0.00000000000E+00  0.20288393860E+03  0.20288393860E+03  0.00000000000E+00 0. -1.
          1   -1    0    0  501    0 -0.00000000000E+00 -0.00000000000E+00 -0.10561640045E+04  0.10561640045E+04  0.00000000000E+00 0. -1.
         25    2    1    2    0    0  0.76773081362E+02  0.11401228296E+03 -0.87676423099E+02  0.20544443982E+03  0.12500942364E+03 0.  0.
          2    1    1    2  501    0 -0.22997781693E+02 -0.12392342743E+03 -0.89985725023E+03  0.90864128490E+03  0.00000000000E+00 0. -1.
          1    1    1    2  502    0 -0.53775299669E+02  0.99111444764E+01  0.13425360745E+03  0.14496221836E+03  0.00000000000E+00 0. -1.
         22    1    3    3    0    0  0.56072810237E+02  0.67139731466E+02 -0.11724765481E+03  0.14628368380E+03  0.00000000000E+00 0. -1.
         22    1    3    3    0    0  0.20700271125E+02  0.46872551489E+02  0.29571231706E+02  0.59160756016E+02  0.00000000000E+00 0. -1.
</event>
<event>
 7    1  0.6105960E-006  0.3519765E+03  0.7818608E-02  0.1227861E+00
          2   -1    0    0  502    0  0.00000000000E+00  0.00000000000E+00  0.94451860227E+03  0.94451860227E+03  0.00000000000E+00 0. -1.
          1   -1    0    0  501    0 -0.00000000000E+00 -0.00000000000E+00 -0.80234203510E+03  0.80234203510E+03  0.00000000000E+00 0. -1.
         25    2    1    2    0    0  0.22071527306E+03 -0.32094384452E+03 -0.25246615616E+03  0.48071017797E+03  0.12499172815E+03 0.  0.
          2    1    1    2  501    0 -0.42663015134E+02  0.21587099417E+02 -0.39773513252E+03  0.40059876605E+03  0.00000000000E+00 0. -1.
          1    1    1    2  502    0 -0.17805225792E+03  0.29935674510E+03  0.79237785586E+03  0.86555169334E+03  0.00000000000E+00 0. -1.
         22    1    3    3    0    0  0.12552386771E+02  0.78162335173E+01  0.31793518013E+01  0.15124952823E+02  0.00000000000E+00 0.  1.
         22    1    3    3    0    0  0.20816288628E+03 -0.32876007804E+03 -0.25564550796E+03  0.46558522515E+03  0.00000000000E+00 0.  1.
</event>
<event>
 7    1  0.6105960E-006  0.1176737E+03  0.7818608E-02  0.1395106E+00
          2   -1    0    0  502    0  0.00000000000E+00  0.00000000000E+00  0.48174306084E+03  0.48174306084E+03  0.00000000000E+00 0. -1.
          1   -1    0    0  501    0 -0.00000000000E+00 -0.00000000000E+00 -0.30214245283E+03  0.30214245283E+03  0.00000000000E+00 0. -1.
         25    2    1    2    0    0 -0.61623505997E+02 -0.10313752763E+03 -0.95393876982E+02  0.19788758696E+03  0.12499879683E+03 0.  0.
          2    1    1    2  501    0  0.32089022218E+02  0.11339205865E+03 -0.13248974666E+03  0.17731609426E+03  0.00000000000E+00 0. -1.
          1    1    1    2  502    0  0.29534483779E+02 -0.10254531019E+02  0.40748423165E+03  0.40868183246E+03  0.00000000000E+00 0. -1.
         22    1    3    3    0    0 -0.78036034712E+02 -0.11269195693E+02 -0.32121309107E+02  0.85137512201E+02  0.00000000000E+00 0.  1.
         22    1    3    3    0    0  0.16412528715E+02 -0.91868331937E+02 -0.63272567875E+02  0.11275007475E+03  0.00000000000E+00 0.  1.
</event>
<event>
 7    1  0.6105960E-006  0.1654393E+03  0.7818608E-02  0.1228860E+00
          2   -1    0    0  502    0  0.00000000000E+00  0.00000000000E+00  0.64372543638E+03  0.64372543638E+03  0.00000000000E+00 0. -1.
          1   -1    0    0  501    0 -0.00000000000E+00 -0.00000000000E+00 -0.11137399718E+04  0.11137399718E+04  0.00000000000E+00 0. -1.
         25    2    1    2    0    0  0.16906104977E+03  0.15184415523E+03  0.39396626373E+03  0.47167023698E+03  0.12500043789E+03 0.  0.
          2    1    1    2  501    0 -0.54100146403E+02 -0.84906833366E+02 -0.10512643245E+04  0.10560741812E+04  0.00000000000E+00 0. -1.
          1    1    1    2  502    0 -0.11496090337E+03 -0.66937321860E+02  0.18728352538E+03  0.22972098998E+03  0.00000000000E+00 0. -1.
         22    1    3    3    0    0  0.25281538756E+02  0.30493728847E+02  0.19038941200E+03  0.19446632588E+03  0.00000000000E+00 0.  1.
         22    1    3    3    0    0  0.14377951101E+03  0.12135042638E+03  0.20357685173E+03  0.27720391110E+03  0.00000000000E+00 0.  1.
</event>
<event>
 7    1  0.6105960E-006  0.6322463E+02  0.7818608E-02  0.1397005E+00
          2   -1    0    0  502    0  0.00000000000E+00  0.00000000000E+00  0.26252009152E+04  0.26252009152E+04  0.00000000000E+00 0. -1.
          1   -1    0    0  501    0 -0.00000000000E+00 -0.00000000000E+00 -0.89977653954E+03  0.89977653954E+03  0.00000000000E+00 0. -1.
         25    2    1    2    0    0 -0.28902273001E+02 -0.31256283612E+02  0.27411566596E+03  0.30426608285E+03  0.12500461670E+03 0.  0.
          2    1    1    2  501    0 -0.20738867549E+02  0.59905690266E+02 -0.88321350869E+03  0.88548568271E+03  0.00000000000E+00 0. -1.
          1    1    1    2  502    0  0.49641140550E+02 -0.28649406654E+02  0.23345222184E+04  0.23352256892E+04  0.00000000000E+00 0. -1.
         22    1    3    3    0    0  0.34136579382E+02  0.24250044385E+02  0.13901234709E+03  0.14518196633E+03  0.00000000000E+00 0. -1.
         22    1    3    3    0    0 -0.63038852383E+02 -0.55506327997E+02  0.13510331887E+03  0.15908411652E+03  0.00000000000E+00 0. -1.
</event>
<event>
 7    1  0.6105960E-006  0.4344293E+02  0.7818608E-02  0.1524019E+00
          2   -1    0    0  502    0  0.00000000000E+00  0.00000000000E+00  0.29745267196E+04  0.29745267196E+04  0.00000000000E+00 0. -1.
          1   -1    0    0  501    0 -0.00000000000E+00 -0.00000000000E+00 -0.93654847927E+02  0.93654847927E+02  0.00000000000E+00 0. -1.
         25    2    1    2    0    0 -0.29847184787E+01  0.99826408993E+01  0.19875038763E+04  0.19914581612E+04  0.12500155244E+03 0.  0.
          2    1    1    2  501    0  0.11088727368E+02 -0.42092893306E+02 -0.86215129418E+02  0.96580640307E+02  0.00000000000E+00 0. -1.
          1    1    1    2  502    0 -0.81040088896E+01  0.32110252407E+02  0.97958312483E+03  0.98014276599E+03  0.00000000000E+00 0. -1.
         22    1    3    3    0    0 -0.60068531321E+02  0.12202921169E+02  0.13530173036E+04  0.13544050220E+04  0.00000000000E+00 0. -1.
         22    1    3    3    0    0  0.57083812843E+02 -0.22202802701E+01  0.63448657266E+03  0.63705313924E+03  0.00000000000E+00 0. -1.
</event>
<event>
 7    1  0.6105960E-006  0.4255363E+02  0.7818608E-02  0.1584121E+00
          2   -1    0    0  502    0  0.00000000000E+00  0.00000000000E+00  0.30215344208E+04  0.30215344208E+04  0.00000000000E+00 0. -1.
          1   -1    0    0  501    0 -0.00000000000E+00 -0.00000000000E+00 -0.13105590707E+02  0.13105590707E+02  0.00000000000E+00 0. -1.
         25    2    1    2    0    0  0.56429957209E+02 -0.26134922341E+02  0.14732338335E+04  0.14798343430E+04  0.12499752025E+03 0.  0.
          2    1    1    2  501    0 -0.16763654309E+02  0.15785820225E+02  0.43767249693E+01  0.23438599519E+02  0.00000000000E+00 0. -1.
          1    1    1    2  502    0 -0.39666302900E+02  0.10349102116E+02  0.15308182716E+04  0.15313670690E+04  0.00000000000E+00 0. -1.
         22    1    3    3    0    0  0.85569961976E+02  0.15857426177E+02  0.10277109665E+04  0.10313891153E+04  0.00000000000E+00 0.  1.
         22    1    3    3    0    0 -0.29140004766E+02 -0.41992348518E+02  0.44552286701E+03  0.44844522769E+03  0.00000000000E+00 0.  1.
</event>
<event>
 7    1  0.6105960E-006  0.6921181E+02  0.7818608E-02  0.1485303E+00
          2   -1    0    0  502    0  0.00000000000E+00  0.00000000000E+00  0.20274596991E+04  0.20274596991E+04  0.00000000000E+00 0. -1.
          1   -1    0    0  501    0 -0.00000000000E+00 -0.00000000000E+00 -0.49490022875E+03  0.49490022875E+03  0.00000000000E+00 0. -1.
         25    2    1    2    0    0  0.10823405916E+02 -0.68526217462E+02 -0.36468846267E+02  0.14753467284E+03  0.12499405725E+03 0.  0.
          2    1    1    2  501    0  0.25361295321E+02  0.94871920471E+01 -0.40183478617E+03  0.40274607073E+03  0.00000000000E+00 0. -1.
          1    1    1    2  502    0 -0.36184701237E+02  0.59039025415E+02  0.19708631028E+04  0.19720791843E+04  0.00000000000E+00 0. -1.
         22    1    3    3    0    0 -0.17047564868E+02 -0.90994240801E+02 -0.54523474883E+02  0.10744012584E+03  0.00000000000E+00 0. -1.
         22    1    3    3    0    0  0.27870970784E+02  0.22468023339E+02  0.18054628616E+02  0.40094547006E+02  0.00000000000E+00 0. -1.
</event>
<event>
 7    1  0.6105960E-006  0.3677152E+02  0.7818608E-02  0.1586890E+00
          2   -1    0    0  502    0  0.00000000000E+00  0.00000000000E+00  0.16855795172E+03  0.16855795172E+03  0.00000000000E+00 0. -1.
          1   -1    0    0  501    0 -0.00000000000E+00 -0.00000000000E+00 -0.10240027737E+04  0.10240027737E+04  0.00000000000E+00 0. -1.
         25    2    1    2    0    0 -0.10483501452E+02  0.19916628719E+02 -0.95947770935E+03  0.96784730520E+03  0.12499742216E+03 0.  0.
          2    1    1    2  501    0  0.21280019556E+02  0.15281572948E+02 -0.55294825040E+02  0.61187281197E+02  0.00000000000E+00 0. -1.
          1    1    1    2  502    0 -0.10796518103E+02 -0.35198201667E+02  0.15932771240E+03  0.16352613902E+03  0.00000000000E+00 0. -1.
         22    1    3    3    0    0 -0.14167089920E+02 -0.52028636965E+02 -0.47319180328E+03  0.47625431042E+03  0.00000000000E+00 0.  1.
         22    1    3    3    0    0  0.36835884680E+01  0.71945265684E+02 -0.48628590607E+03  0.49159299478E+03  0.00000000000E+00 0.  1.
</event>
<event>
 7    1  0.6105960E-006  0.1061988E+03  0.7818608E-02  0.1342044E+00
          2   -1    0    0  502    0  0.00000000000E+00  0.00000000000E+00  0.43600150651E+03  0.43600150651E+03  0.00000000000E+00 0. -1.
          1   -1    0    0  501    0 -0.00000000000E+00 -0.00000000000E+00 -0.17932622998E+03  0.17932622998E+03  0.00000000000E+00 0. -1.
         25    2    1    2    0    0 -0.43728059583E+02 -0.10872194400E+03 -0.86446651265E+02  0.19191257773E+03  0.12499923869E+03 0.  0.
          2    1    1    2  501    0 -0.91619463982E+01  0.98825601876E+02  0.27152042463E+02  0.10289642490E+03  0.00000000000E+00 0. -1.
          1    1    1    2  502    0  0.52890005981E+02  0.98963421255E+01  0.31596988533E+03  0.32051873386E+03  0.00000000000E+00 0. -1.
         22    1    3    3    0    0  0.67095609111E+01  0.63436953346E+01  0.23319672114E+02  0.25081223767E+02  0.00000000000E+00 0.  1.
         22    1    3    3    0    0 -0.50437620494E+02 -0.11506563934E+03 -0.10976632338E+03  0.16683135396E+03  0.00000000000E+00 0.  1.
</event>
<event>
 7    1  0.6105960E-006  0.6018429E+02  0.7818608E-02  0.1516018E+00
          2   -1    0    0  502    0  0.00000000000E+00  0.00000000000E+00  0.20173296578E+03  0.20173296578E+03  0.00000000000E+00 0. -1.
          1   -1    0    0  501    0 -0.00000000000E+00 -0.00000000000E+00 -0.10893953628E+04  0.10893953628E+04  0.00000000000E+00 0. -1.
         25    2    1    2    0    0  0.32708821197E+02  0.68644814042E+02 -0.98222933334E+02  0.17622389517E+03  0.12500055647E+03 0.  0.
          2    1    1    2  501    0 -0.23267085276E+02 -0.97277026617E+01 -0.94652867850E+03  0.94686457568E+03  0.00000000000E+00 0. -1.
          1    1    1    2  502    0 -0.94417359204E+01 -0.58917111380E+02  0.15708921479E+03  0.16803985775E+03  0.00000000000E+00 0. -1.
         22    1    3    3    0    0 -0.25905374633E+02  0.14830275656E+02  0.18382090361E+02  0.35056051645E+02  0.00000000000E+00 0.  1.
         22    1    3    3    0    0  0.58614195830E+02  0.53814538386E+02 -0.11660502369E+03  0.14116784352E+03  0.00000000000E+00 0.  1.
</event>
<event>
 7    1  0.6105960E-006  0.5404409E+02  0.7818608E-02  0.1517509E+00
          2   -1    0    0  502    0  0.00000000000E+00  0.00000000000E+00  0.11340718215E+04  0.11340718215E+04  0.00000000000E+00 0. -1.
          1   -1    0    0  501    0 -0.00000000000E+00 -0.00000000000E+00 -0.32939284291E+02  0.32939284291E+02  0.00000000000E+00 0. -1.
         25    2    1    2    0    0  0.70150765411E+02  0.35786264303E+02  0.39884438063E+03  0.42532316088E+03  0.12498465755E+03 0.  0.
          2    1    1    2  501    0 -0.20817566477E+02 -0.18430935924E+02 -0.84255627423E+01  0.29052720708E+02  0.00000000000E+00 0. -1.
          1    1    1    2  502    0 -0.49333198934E+02 -0.17355328379E+02  0.71071371937E+03  0.71263522425E+03  0.00000000000E+00 0. -1.
         22    1    3    3    0    0  0.28568446007E+02  0.25195562266E+02  0.37360298218E+03  0.37553982579E+03  0.00000000000E+00 0. -1.
         22    1    3    3    0    0  0.41582319404E+02  0.10590702037E+02  0.25241398450E+02  0.49783335086E+02  0.00000000000E+00 0. -1.
</event>
<event>
 7    1  0.6105960E-006  0.3979301E+02  0.7818608E-02  0.1544589E+00
          2   -1    0    0  502    0  0.00000000000E+00  0.00000000000E+00  0.14626037269E+04  0.14626037269E+04  0.00000000000E+00 0. -1.
          1   -1    0    0  501    0 -0.00000000000E+00 -0.00000000000E+00 -0.78110477676E+02  0.78110477676E+02  0.00000000000E+00 0. -1.
         25    2    1    2    0    0  0.37381442447E+02  0.11582808175E+02  0.13694187980E+04  0.13756687076E+04  0.12500005999E+03 0.  0.
          2    1    1    2  501    0 -0.34532140103E+02  0.19879990542E+02 -0.66524377531E+02  0.77544667966E+02  0.00000000000E+00 0. -1.
          1    1    1    2  502    0 -0.28493023437E+01 -0.31462798717E+02  0.81598828659E+02  0.87500828942E+02  0.00000000000E+00 0. -1.
         22    1    3    3    0    0 -0.44609584578E+02 -0.47342112243E+00  0.64106354475E+03  0.64261396465E+03  0.00000000000E+00 0. -1.
         22    1    3    3    0    0  0.81991027025E+02  0.12056229297E+02  0.72835525330E+03  0.73305474297E+03  0.00000000000E+00 0. -1.
</event>
<event>
 7    1  0.6105960E-006  0.7642285E+02  0.7818608E-02  0.1348986E+00
          2   -1    0    0  502    0  0.00000000000E+00  0.00000000000E+00  0.31891810782E+03  0.31891810782E+03  0.00000000000E+00 0. -1.
          1   -1    0    0  501    0 -0.00000000000E+00 -0.00000000000E+00 -0.46864903097E+03  0.46864903097E+03  0.00000000000E+00 0. -1.
         25    2    1    2    0    0 -0.18493231524E+02  0.25219236178E+02  0.85642528901E+01  0.12913521302E+03  0.12499818931E+03 0.  0.
          2    1    1    2  501    0 -0.51591524435E+02 -0.56380549294E+02 -0.39876711318E+03  0.40602421391E+03  0.00000000000E+00 0. -1.
          1    1    1    2  502    0  0.70084755959E+02  0.31161313116E+02  0.24047193713E+03  0.25240771185E+03  0.00000000000E+00 0. -1.
         22    1    3    3    0    0 -0.26890125433E+02  0.38713270927E+02  0.59424831269E+02  0.75849237063E+02  0.00000000000E+00 0. -1.
         22    1    3    3    0    0  0.83968939092E+01 -0.13494034749E+02 -0.50860578379E+02  0.53285975961E+02  0.00000000000E+00 0. -1.
</event>
<event>
 7    1  0.6105960E-006  0.7238017E+02  0.7818608E-02  0.1402340E+00
          2   -1    0    0  502    0  0.00000000000E+00  0.00000000000E+00  0.17971135636E+04  0.17971135636E+04  0.00000000000E+00 0. -1.
          1   -1    0    0  501    0 -0.00000000000E+00 -0.00000000000E+00 -0.44677974360E+02  0.44677974360E+02  0.00000000000E+00 0. -1.
         25    2    1    2    0    0  0.10555548100E+03 -0.45127837690E+02  0.24647506406E+03  0.29925566257E+03  0.12500205226E+03 0.  0.
          2    1    1    2  501    0 -0.47860309738E+02  0.35725569190E+01  0.15578167727E+02  0.50458415759E+02  0.00000000000E+00 0. -1.
          1    1    1    2  502    0 -0.57695171263E+02  0.41555280771E+02  0.14903823575E+04  0.14920774597E+04  0.00000000000E+00 0. -1.
         22    1    3    3    0    0  0.11790154641E+03  0.60211648674E+00  0.20406402020E+03  0.23567617938E+03  0.00000000000E+00 0. -1.
         22    1    3    3    0    0 -0.12346065409E+02 -0.45729954176E+02  0.42411043863E+02  0.63579483181E+02  0.00000000000E+00 0. -1.
</event>
<event>
 7    1  0.6105960E-006  0.1606408E+03  0.7818608E-02  0.1251763E+00
          2   -1    0    0  502    0  0.00000000000E+00  0.00000000000E+00  0.82332194882E+03  0.82332194882E+03  0.00000000000E+00 0. -1.
          1   -1    0    0  501    0 -0.00000000000E+00 -0.00000000000E+00 -0.16366960507E+04  0.16366960507E+04  0.00000000000E+00 0. -1.
         25    2    1    2    0    0 -0.69559224924E+02  0.54436578660E+02 -0.13268316526E+03  0.20256293659E+03  0.12500037626E+03 0.  0.
          2    1    1    2  501    0 -0.29996827899E+02  0.76507149729E+02 -0.14593242935E+04  0.14616362568E+04  0.00000000000E+00 0. -1.
          1    1    1    2  502    0  0.99556052823E+02 -0.13094372839E+03  0.77863335690E+03  0.79581880610E+03  0.00000000000E+00 0. -1.
         22    1    3    3    0    0 -0.47457400708E+02  0.49893971187E+02 -0.15575142381E+03  0.17029421382E+03  0.00000000000E+00 0.  1.
         22    1    3    3    0    0 -0.22101824217E+02  0.45426074722E+01  0.23068258547E+02  0.32268722763E+02  0.00000000000E+00 0.  1.
</event>
<event>
 7    1  0.6105960E-006  0.1138369E+03  0.7818608E-02  0.1291789E+00
          2   -1    0    0  502    0  0.00000000000E+00  0.00000000000E+00  0.10120069688E+04  0.10120069688E+04  0.00000000000E+00 0. -1.
          1   -1    0    0  501    0 -0.00000000000E+00 -0.00000000000E+00 -0.48046698339E+03  0.48046698339E+03  0.00000000000E+00 0. -1.
         25    2    1    2    0    0  0.34057256195E+02  0.53625412363E+02 -0.35930416803E+02  0.14474986432E+03  0.12500378721E+03 0.  0.
          2    1    1    2  501    0 -0.11288317967E+03 -0.53155369950E+02 -0.37846905897E+03  0.39850587725E+03  0.00000000000E+00 0. -1.
          1    1    1    2  502    0  0.78825923472E+02 -0.47004241247E+00  0.94593946123E+03  0.94921821066E+03  0.00000000000E+00 0. -1.
         22    1    3    3    0    0  0.10120049426E+02  0.67419056935E+02  0.29076409975E+02  0.74116005393E+02  0.00000000000E+00 0.  1.
         22    1    3    3    0    0  0.23937206769E+02 -0.13793644572E+02 -0.65006826778E+02  0.70633858922E+02  0.00000000000E+00 0.  1.
</event>
<event>
 7    1  0.6105960E-006  0.9695598E+02  0.7818608E-02  0.1419297E+00
          2   -1    0    0  502    0  0.00000000000E+00  0.00000000000E+00  0.38408214668E+03  0.38408214668E+03  0.00000000000E+00 0. -1.
          1   -1    0    0  501    0 -0.00000000000E+00 -0.00000000000E+00 -0.10473351318E+03  0.10473351318E+03  0.00000000000E+00 0. -1.
         25    2    1    2    0    0  0.10351927764E+03 -0.54666348880E+02  0.48018852522E+02  0.17786266659E+03  0.12499866970E+03 0.  0.
          2    1    1    2  501    0 -0.72413581724E+02  0.50429969529E+02  0.11612384257E+02  0.89004247724E+02  0.00000000000E+00 0. -1.
          1    1    1    2  502    0 -0.31105695915E+02  0.42363793511E+01  0.21971739672E+03  0.22194874555E+03  0.00000000000E+00 0. -1.
         22    1    3    3    0    0  0.24517501887E+02  0.13478762995E+02 -0.34802709438E+02  0.44654378676E+02  0.00000000000E+00 0.  1.
         22    1    3    3    0    0  0.79001775751E+02 -0.68145111875E+02  0.82821561960E+02  0.13320828792E+03  0.00000000000E+00 0.  1.
</event>
<event>
 7    1  0.6105960E-006  0.8075660E+02  0.7818608E-02  0.1327519E+00
          2   -1    0    0  502    0  0.00000000000E+00  0.00000000000E+00  0.12553252638E+03  0.12553252638E+03  0.00000000000E+00 0. -1.
          1   -1    0    0  501    0 -0.00000000000E+00 -0.00000000000E+00 -0.80685741760E+03  0.80685741760E+03  0.00000000000E+00 0. -1.
         25    2    1    2    0    0  0.30410186814E+02  0.21265286483E+02 -0.14899955880E+03  0.19799718645E+03  0.12500010179E+03 0.  0.
          2    1    1    2  501    0  0.16249183331E+02 -0.87178351703E+02 -0.61350800574E+03  0.61988400049E+03  0.00000000000E+00 0. -1.
          1    1    1    2  502    0 -0.46659370145E+02  0.65913065219E+02  0.81182673327E+02  0.11450875703E+03  0.00000000000E+00 0. -1.
         22    1    3    3    0    0 -0.18937984591E+02 -0.43702170450E+02 -0.68095614572E+02  0.83099576933E+02  0.00000000000E+00 0.  1.
         22    1    3    3    0    0  0.49348171405E+02  0.64967456934E+02 -0.80903944230E+02  0.11489760952E+03  0.00000000000E+00 0.  1.
</event>
<event>
 7    1  0.6105960E-006  0.6553236E+02  0.7818608E-02  0.1467832E+00
          2   -1    0    0  502    0  0.00000000000E+00  0.00000000000E+00  0.22511307937E+04  0.22511307937E+04  0.00000000000E+00 0. -1.
          1   -1    0    0  501    0 -0.00000000000E+00 -0.00000000000E+00 -0.16739185232E+02  0.16739185232E+02  0.00000000000E+00 0. -1.
         25    2    1    2    0    0 -0.37448125915E+02 -0.26074472868E+02  0.70908919500E+03  0.72146666358E+03  0.12499767965E+03 0.  0.
          2    1    1    2  501    0  0.67716118380E+02  0.14590478040E+02  0.10535794259E+03  0.12608985211E+03  0.00000000000E+00 0. -1.
          1    1    1    2  502    0 -0.30267992465E+02  0.11483994828E+02  0.14199444709E+04  0.14203134632E+04  0.00000000000E+00 0. -1.
         22    1    3    3    0    0 -0.56511271409E+02  0.36022808276E+02  0.31385557320E+03  0.32093065815E+03  0.00000000000E+00 0. -1.
         22    1    3    3    0    0  0.19063145494E+02 -0.62097281144E+02  0.39523362179E+03  0.40053600542E+03  0.00000000000E+00 0. -1.
</event>
<event>
 7    1  0.6105960E-006  0.5598972E+02  0.7818608E-02  0.1475763E+00
          2   -1    0    0  502    0  0.00000000000E+00  0.00000000000E+00  0.19985842537E+04  0.19985842537E+04  0.00000000000E+00 0. -1.
          1   -1    0    0  501    0 -0.00000000000E+00 -0.00000000000E+00 -0.10922552029E+03  0.10922552029E+03  0.00000000000E+00 0. -1.
         25    2    1    2    0    0 -0.20376155001E+02  0.69605939766E+01  0.40020710981E+03  0.41982646848E+03  0.12499958133E+03 0.  0.
          2    1    1    2  501    0  0.49043854889E+02 -0.28409551556E+02 -0.91118364712E+02  0.10730777563E+03  0.00000000000E+00 0. -1.
          1    1    1    2  502    0 -0.28667699888E+02  0.21448957579E+02  0.15802699884E+04  0.15806755299E+04  0.00000000000E+00 0. -1.
         22    1    3    3    0    0  0.37529435515E+02  0.85210735411E+01  0.41998552148E+02  0.56964424046E+02  0.00000000000E+00 0.  1.
         22    1    3    3    0    0 -0.57905590516E+02 -0.15604795645E+01  0.35820855766E+03  0.36286204443E+03  0.00000000000E+00 0.  1.
</event>
<event>
 7    1  0.6105960E-006  0.1181702E+03  0.7818608E-02  0.1272518E+00
          2   -1    0    0  502    0  0.00000000000E+00  0.00000000000E+00  0.54028272993E+03  0.54028272993E+03  0.00000000000E+00 0. -1.
          1   -1    0    0  501    0 -0.00000000000E+00 -0.00000000000E+00 -0.28990273134E+04  0.28990273134E+04  0.00000000000E+00 0. -1.
         25    2    1    2    0    0 -0.17904892874E+03  0.97904680028E+02 -0.52781323274E+02  0.24506083689E+03  0.12500040175E+03 0.  0.
          2    1    1    2  501    0  0.91244005551E+02 -0.73388016537E+02 -0.27441665029E+04  0.27466636244E+04  0.00000000000E+00 0. -1.
          1    1    1    2  502    0  0.87804923190E+02 -0.24516663492E+02  0.43820324274E+03  0.44758558207E+03  0.00000000000E+00 0. -1.
         22    1    3    3    0    0 -0.45802939682E+02  0.67432741692E+02 -0.69802150833E+02  0.10731926293E+03  0.00000000000E+00 0.  1.
         22    1    3    3    0    0 -0.13324598906E+03  0.30471938336E+02  0.17020827559E+02  0.13774157396E+03  0.00000000000E+00 0.  1.
</event>
<event>
 7    1  0.6105960E-006  0.1615776E+03  0.7818608E-02  0.1193427E+00
          2   -1    0    0  502    0  0.00000000000E+00  0.00000000000E+00  0.92504813258E+03  0.92504813258E+03  0.00000000000E+00 0. -1.
          1   -1    0    0  501    0 -0.00000000000E+00 -0.00000000000E+00 -0.23046073643E+04  0.23046073643E+04  0.00000000000E+00 0. -1.
         25    2    1    2    0    0  0.11605125720E+03  0.15641857608E+02  0.32078065761E+03  0.36364879799E+03  0.12501062345E+03 0.  0.
          2    1    1    2  501    0  0.31345259767E+02 -0.15850802239E+03 -0.22621279213E+04  0.22678911020E+04  0.00000000000E+00 0. -1.
          1    1    1    2  502    0 -0.14739651697E+03  0.14286616478E+03  0.56178803200E+03  0.59811559681E+03  0.00000000000E+00 0. -1.
         22    1    3    3    0    0  0.97137298166E+02 -0.45431357207E+02  0.20744969402E+03  0.23352738268E+03  0.00000000000E+00 0. -1.
         22    1    3    3    0    0  0.18913959034E+02  0.61073214815E+02  0.11333096359E+03  0.13012141531E+03  0.00000000000E+00 0. -1.
</event>
<event>
 7    1  0.6105960E-006  0.1512633E+03  0.7818608E-02  0.1266918E+00
          2   -1    0    0  502    0  0.00000000000E+00  0.00000000000E+00  0.10394822403E+03  0.10394822403E+03  0.00000000000E+00 0. -1.
          1   -1    0    0  501    0 -0.00000000000E+00 -0.00000000000E+00 -0.74704777306E+03  0.74704777306E+03  0.00000000000E+00 0. -1.
         25    2    1    2    0    0  0.18344828850E+03  0.59221113490E+02 -0.97910040413E+02  0.24974375829E+03  0.12500061583E+03 0.  0.
          2    1    1    2  501    0 -0.69892830926E+02 -0.27704758952E+02 -0.42977576575E+03  0.43630238403E+03  0.00000000000E+00 0. -1.
          1    1    1    2  502    0 -0.11355545757E+03 -0.31516354538E+02 -0.11541374286E+03  0.16494985477E+03  0.00000000000E+00 0. -1.
         22    1    3    3    0    0  0.33806066018E+02  0.65217794210E+02 -0.52769362915E+01  0.73648196433E+02  0.00000000000E+00 0.  1.
         22    1    3    3    0    0  0.14964222248E+03 -0.59966807194E+01 -0.92633104122E+02  0.17609556186E+03  0.00000000000E+00 0.  1.
</event>
<event>
 7    1  0.6105960E-006  0.4516270E+02  0.7818608E-02  0.1539937E+00
          2   -1    0    0  502    0  0.00000000000E+00  0.00000000000E+00  0.16032803652E+04  0.16032803652E+04  0.00000000000E+00 0. -1.
          1   -1    0    0  501    0 -0.00000000000E+00 -0.00000000000E+00 -0.29320612836E+02  0.29320612836E+02  0.00000000000E+00 0. -1.
         25    2    1    2    0    0 -0.61332972409E+02  0.18559991295E+02  0.68509372576E+03  0.69934575474E+03  0.12499945924E+03 0.  0.
          2    1    1    2  501    0  0.27156716696E+02  0.92491006407E+01 -0.12155166170E+02  0.31157361714E+02  0.00000000000E+00 0. -1.
          1    1    1    2  502    0  0.34176255713E+02 -0.27809091936E+02  0.90102119277E+03  0.90209786159E+03  0.00000000000E+00 0. -1.
         22    1    3    3    0    0 -0.52583712817E+02  0.64665683491E+02  0.55120801428E+03  0.55747374152E+03  0.00000000000E+00 0.  1.
         22    1    3    3    0    0 -0.87492595917E+01 -0.46105692196E+02  0.13388571148E+03  0.14187201322E+03  0.00000000000E+00 0.  1.
</event>
<event>
 7    1  0.6105960E-006  0.1458124E+03  0.7818608E-02  0.1355914E+00
          2   -1    0    0  502    0  0.00000000000E+00  0.00000000000E+00  0.12833066335E+04  0.12833066335E+04  0.00000000000E+00 0. -1.
          1   -1    0    0  501    0 -0.00000000000E+00 -0.00000000000E+00 -0.12123869138E+04  0.12123869138E+04  0.00000000000E+00 0. -1.
         25    2    1    2    0    0  0.50452334657E+02  0.13838310321E+03 -0.94956208010E+02  0.21526278701E+03  0.12500425875E+03 0.  0.
          2    1    1    2  501    0  0.30401392945E+02 -0.16954810083E+02 -0.10526388379E+04  0.10532142391E+04  0.00000000000E+00 0. -1.
          1    1    1    2  502    0 -0.80853727602E+02 -0.12142829312E+03  0.12185147656E+04  0.12272165211E+04  0.00000000000E+00 0. -1.
         22    1    3    3    0    0  0.54709709297E+02  0.13030276880E+03 -0.12201302400E+03  0.18670603063E+03  0.00000000000E+00 0.  1.
         22    1    3    3    0    0 -0.42573746406E+01  0.80803344080E+01  0.27056815994E+02  0.28556756376E+02  0.00000000000E+00 0.  1.
</event>
<event>
 7    1  0.6105960E-006  0.4958062E+02  0.7818608E-02  0.1538735E+00
          2   -1    0    0  502    0  0.00000000000E+00  0.00000000000E+00  0.24368968429E+03  0.24368968429E+03  0.00000000000E+00 0. -1.
          1   -1    0    0  501    0 -0.00000000000E+00 -0.00000000000E+00 -0.10153120825E+03  0.10153120825E+03  0.00000000000E+00 0. -1.
         25    2    1    2    0    0 -0.62838527886E+02  0.22434355212E+02  0.13802383410E+03  0.19781424639E+03  0.12501166510E+03 0.  0.
          2    1    1    2  501    0  0.16943681553E+02 -0.20163843530E+02 -0.61720331471E+02  0.67104904794E+02  0.00000000000E+00 0. -1.
          1    1    1    2  502    0  0.45894846334E+02 -0.22705116817E+01  0.65854973404E+02  0.80301741359E+02  0.00000000000E+00 0. -1.
         22    1    3    3    0    0 -0.36489801887E+02  0.74708721131E+02  0.79344973158E+02  0.11492834037E+03  0.00000000000E+00 0. -1.
         22    1    3    3    0    0 -0.26348725999E+02 -0.52274365919E+02  0.58678860946E+02  0.82885906015E+02  0.00000000000E+00 0. -1.
</event>
<event>
 7    1  0.6105960E-006  0.8763903E+02  0.7818608E-02  0.1470098E+00
          2   -1    0    0  502    0  0.00000000000E+00  0.00000000000E+00  0.12268469541E+04  0.12268469541E+04  0.00000000000E+00 0. -1.
          1   -1    0    0  501    0 -0.00000000000E+00 -0.00000000000E+00 -0.20522287835E+03  0.20522287835E+03  0.00000000000E+00 0. -1.
         25    2    1    2    0    0  0.64156369047E+02  0.83494092421E+02 -0.30755809628E+02  0.16630579304E+03  0.12499757523E+03 0.  0.
          2    1    1    2  501    0 -0.57339320651E+02 -0.60673457159E+02 -0.90219100653E+02  0.12291685083E+03  0.00000000000E+00 0. -1.
          1    1    1    2  502    0 -0.68170483960E+01 -0.22820635262E+02  0.11425989860E+04  0.11428471886E+04  0.00000000000E+00 0. -1.
         22    1    3    3    0    0  0.45361201953E+02 -0.25909261573E+02 -0.60960817813E+01  0.52593637362E+02  0.00000000000E+00 0. -1.
         22    1    3    3    0    0  0.18795167094E+02  0.10940335399E+03 -0.24659727846E+02  0.11371215568E+03  0.00000000000E+00 0. -1.
</event>
<event>
 7    1  0.6105960E-006  0.4432968E+02  0.7818608E-02  0.1487138E+00
          2   -1    0    0  502    0  0.00000000000E+00  0.00000000000E+00  0.26314907776E+03  0.26314907776E+03  0.00000000000E+00 0. -1.
          1   -1    0    0  501    0 -0.00000000000E+00 -0.00000000000E+00 -0.18444386358E+04  0.18444386358E+04  0.00000000000E+00 0. -1.
         25    2    1    2    0    0  0.39811150731E+02  0.31063081163E+02 -0.11089274880E+03  0.17456344442E+03  0.12500140662E+03 0.  0.
          2    1    1    2  501    0 -0.39507485232E+02  0.13456906969E+02 -0.16993096883E+04  0.16998221514E+04  0.00000000000E+00 0. -1.
          1    1    1    2  502    0 -0.30366549976E+00 -0.44519988131E+02  0.22891287900E+03  0.23320211776E+03  0.00000000000E+00 0. -1.
         22    1    3    3    0    0  0.63213546172E+02  0.43108900146E+02 -0.18808528198E+02  0.78791436238E+02  0.00000000000E+00 0. -1.
         22    1    3    3    0    0 -0.23402395440E+02 -0.12045818984E+02 -0.92084220598E+02  0.95772008178E+02  0.00000000000E+00 0. -1.
</event>
<event>
 7    1  0.6105960E-006  0.1320605E+03  0.7818608E-02  0.1286404E+00
          2   -1    0    0  502    0  0.00000000000E+00  0.00000000000E+00  0.36012806599E+03  0.36012806599E+03  0.00000000000E+00 0. -1.
          1   -1    0    0  501    0 -0.00000000000E+00 -0.00000000000E+00 -0.84564790454E+03  0.84564790454E+03  0.00000000000E+00 0. -1.
         25    2    1    2    0    0 -0.73541460140E+01  0.81862261512E+02 -0.95545144545E+02  0.17750774657E+03  0.12499844848E+03 0.  0.
          2    1    1    2  501    0  0.62873775195E+02 -0.12686772531E+03 -0.69791995225E+03  0.71213818257E+03  0.00000000000E+00 0. -1.
          1    1    1    2  502    0 -0.55519629181E+02  0.45005463796E+02  0.30794525824E+03  0.31613004139E+03  0.00000000000E+00 0. -1.
         22    1    3    3    0    0 -0.10030918873E+02  0.89140314027E+02 -0.84854564200E+01  0.90103373350E+02  0.00000000000E+00 0.  1.
         22    1    3    3    0    0  0.26767728590E+01 -0.72780525151E+01 -0.87059688125E+02  0.87404373219E+02  0.00000000000E+00 0.  1.
</event>
<event>
 7    1  0.6105960E-006  0.1371250E+03  0.7818608E-02  0.1326419E+00
          2   -1    0    0  502    0  0.00000000000E+00  0.00000000000E+00  0.75025121629E+03  0.75025121629E+03  0.00000000000E+00 0. -1.
          1   -1    0    0  501    0 -0.00000000000E+00 -0.00000000000E+00 -0.73383322036E+02  0.73383322036E+02  0.00000000000E+00 0. -1.
         25    2    1    2    0    0 -0.14105504428E+03 -0.43883568955E+02  0.15605525630E+03  0.24859975438E+03  0.12500520676E+03 0.  0.
          2    1    1    2  501    0  0.30890884854E+02 -0.36437856882E+02  0.13383582273E+02  0.49609318234E+02  0.00000000000E+00 0. -1.
          1    1    1    2  502    0  0.11016415942E+03  0.80321425837E+02  0.50742905568E+03  0.52542546572E+03  0.00000000000E+00 0. -1.
         22    1    3    3    0    0 -0.16264314302E+03 -0.51174706730E+02  0.13363793148E+03  0.21663503712E+03  0.00000000000E+00 0.  1.
         22    1    3    3    0    0  0.21588098738E+02  0.72911377748E+01  0.22417324818E+02  0.31964717255E+02  0.00000000000E+00 0.  1.
</event>
<event>
 7    1  0.6105960E-006  0.8396132E+02  0.7818608E-02  0.1357377E+00
          2   -1    0    0  502    0  0.00000000000E+00  0.00000000000E+00  0.63813932697E+02  0.63813932697E+02  0.00000000000E+00 0. -1.
          1   -1    0    0  501    0 -0.00000000000E+00 -0.00000000000E+00 -0.16812611300E+04  0.16812611300E+04  0.00000000000E+00 0. -1.
         25    2    1    2    0    0 -0.34562941191E+02 -0.24856932069E+02 -0.52165293713E+03  0.53810605165E+03  0.12499548805E+03 0.  0.
          2    1    1    2  501    0  0.44723514689E+02  0.83696289500E+02 -0.11327694922E+04  0.11367374297E+04  0.00000000000E+00 0. -1.
          1    1    1    2  502    0 -0.10160573498E+02 -0.58839357431E+02  0.36975232012E+02  0.70231581351E+02  0.00000000000E+00 0. -1.
         22    1    3    3    0    0  0.22157614134E+02 -0.47584886286E+02 -0.38307208046E+03  0.38665165213E+03  0.00000000000E+00 0. -1.
         22    1    3    3    0    0 -0.56720555325E+02  0.22727954217E+02 -0.13858085667E+03  0.15145439952E+03  0.00000000000E+00 0. -1.
</event>
<event>
 7    1  0.6105960E-006  0.5030882E+02  0.7818608E-02  0.1481066E+00
          2   -1    0    0  502    0  0.00000000000E+00  0.00000000000E+00  0.76617588528E+03  0.76617588528E+03  0.00000000000E+00 0. -1.
          1   -1    0    0  501    0 -0.00000000000E+00 -0.00000000000E+00 -0.75340468066E+02  0.75340468066E+02  0.00000000000E+00 0. -1.
         25    2    1    2    0    0 -0.40705920688E+02 -0.51201004928E+01  0.61295184665E+03  0.62691205793E+03  0.12500229860E+03 0.  0.
          2    1    1    2  501    0 -0.17192077301E+02  0.34312208912E+02 -0.54812917486E+02  0.66913011633E+02  0.00000000000E+00 0. -1.
          1    1    1    2  502    0  0.57897997990E+02 -0.29192108420E+02  0.13269648805E+03  0.14769128378E+03  0.00000000000E+00 0. -1.
         22    1    3    3    0    0 -0.63725808750E+02  0.19952985902E+02  0.16985516319E+03  0.18250993619E+03  0.00000000000E+00 0.  1.
         22    1    3    3    0    0  0.23019888061E+02 -0.25073086394E+02  0.44309668347E+03  0.44440212174E+03  0.00000000000E+00 0.  1.
</event>
<event>
 7    1  0.6105960E-006  0.8177065E+02  0.7818608E-02  0.1455070E+00
          2   -1    0    0  502    0  0.00000000000E+00  0.00000000000E+00  0.58245388528E+03  0.58245388528E+03  0.00000000000E+00 0. -1.
          1   -1    0    0  501    0 -0.00000000000E+00 -0.00000000000E+00 -0.14858351902E+04  0.14858351902E+04  0.00000000000E+00 0. -1.
         25    2    1    2    0    0 -0.78157251746E+01  0.73738507193E+02 -0.36845569406E+03  0.39608532928E+03  0.12500214631E+03 0.  0.
          2    1    1    2  501    0 -0.19779718423E+02 -0.80697688531E+02 -0.11016432273E+04  0.11047719921E+04  0.00000000000E+00 0. -1.
          1    1    1    2  502    0  0.27595443598E+02  0.69591813379E+01  0.56671761649E+03  0.56743175409E+03  0.00000000000E+00 0. -1.
         22    1    3    3    0    0 -0.36126309295E+02  0.98178733820E+02 -0.30482441013E+03  0.32227642639E+03  0.00000000000E+00 0. -1.
         22    1    3    3    0    0  0.28310584120E+02 -0.24440226627E+02 -0.63631283935E+02  0.73808902892E+02  0.00000000000E+00 0. -1.
</event>
<event>
 7    1  0.6105960E-006  0.9884010E+02  0.7818608E-02  0.1383050E+00
          2   -1    0    0  502    0  0.00000000000E+00  0.00000000000E+00  0.39065530202E+03  0.39065530202E+03  0.00000000000E+00 0. -1.
          1   -1    0    0  501    0 -0.00000000000E+00 -0.00000000000E+00 -0.10953010088E+04  0.10953010088E+04  0.00000000000E+00 0. -1.
         25    2    1    2    0    0  0.34335004844E+02 -0.91552629904E+02  0.10330238361E+03  0.18936004713E+03  0.12500027355E+03 0.  0.
          2    1    1    2  501    0 -0.69516382808E+02  0.70473725898E+02 -0.10482025405E+04  0.10528663920E+04  0.00000000000E+00 0. -1.
          1    1    1    2  502    0  0.35181377964E+02  0.21078904005E+02  0.24025445011E+03  0.24372987167E+03  0.00000000000E+00 0. -1.
         22    1    3    3    0    0 -0.29926945883E+02 -0.81334037801E+02  0.30886134861E+02  0.92004353819E+02  0.00000000000E+00 0. -1.
         22    1    3    3    0    0  0.64261950727E+02 -0.10218592102E+02  0.72416248754E+02  0.97355693307E+02  0.00000000000E+00 0. -1.
</event>
<event>
 7    1  0.6105960E-006  0.6648787E+02  0.7818608E-02  0.1463092E+00
          2   -1    0    0  502    0  0.00000000000E+00  0.00000000000E+00  0.10039962440E+04  0.10039962440E+04  0.00000000000E+00 0. -1.
          1   -1    0    0  501    0 -0.00000000000E+00 -0.00000000000E+00 -0.60001584843E+03  0.60001584843E+03  0.00000000000E+00 0. -1.
         25    2    1    2    0    0  0.33055337602E+02 -0.92576820747E+02  0.18507781013E+03  0.24401367886E+03  0.12500302632E+03 0.  0.
          2    1    1    2  501    0 -0.16175521634E+02  0.64200517367E+02 -0.56828000649E+03  0.57212369266E+03  0.00000000000E+00 0. -1.
          1    1    1    2  502    0 -0.16879815968E+02  0.28376303380E+02  0.78718259190E+03  0.78787472086E+03  0.00000000000E+00 0. -1.
         22    1    3    3    0    0  0.12420892834E+02 -0.11374854850E+03  0.18104849869E+03  0.21417649204E+03  0.00000000000E+00 0.  1.
         22    1    3    3    0    0  0.20634444768E+02  0.21171727751E+02  0.40293114333E+01  0.29837186822E+02  0.00000000000E+00 0.  1.
</event>
<event>
 7    1  0.6105960E-006  0.9453586E+02  0.7818608E-02  0.1319257E+00
          2   -1    0    0  502    0  0.00000000000E+00  0.00000000000E+00  0.14007373114E+04  0.14007373114E+04  0.00000000000E+00 0. -1.
          1   -1    0    0  501    0 -0.00000000000E+00 -0.00000000000E+00 -0.17643462310E+03  0.17643462310E+03  0.00000000000E+00 0. -1.
         25    2    1    2    0    0 -0.57295166767E+02 -0.42883733829E+02  0.26943440343E+02  0.14653903536E+03  0.12500395651E+03 0.  0.
          2    1    1    2  501    0  0.51535121648E+02 -0.52893095720E+02 -0.10300022672E+03  0.12673829351E+03  0.00000000000E+00 0. -1.
          1    1    1    2  502    0  0.57600451189E+01  0.95776829549E+02  0.13003594747E+04  0.13038946057E+04  0.00000000000E+00 0. -1.
         22    1    3    3    0    0  0.92504090523E+01 -0.58478616433E+02 -0.21254840036E+02  0.62905380315E+02  0.00000000000E+00 0. -1.
         22    1    3    3    0    0 -0.66545575819E+02  0.15594882605E+02  0.48198280379E+02  0.83633655044E+02  0.00000000000E+00 0. -1.
</event>
<event>
 7    1  0.6105960E-006  0.3927818E+02  0.7818608E-02  0.1586631E+00
          2   -1    0    0  502    0  0.00000000000E+00  0.00000000000E+00  0.68819373939E+03  0.68819373939E+03  0.00000000000E+00 0. -1.
          1   -1    0    0  501    0 -0.00000000000E+00 -0.00000000000E+00 -0.50868990799E+03  0.50868990799E+03  0.00000000000E+00 0. -1.
         25    2    1    2    0    0 -0.21028988312E+01 -0.35194245223E+02  0.23101803758E+03  0.26502337094E+03  0.12499998551E+03 0.  0.
          2    1    1    2  501    0  0.24467334960E+02  0.21947200481E+01 -0.49047664734E+03  0.49109144654E+03  0.00000000000E+00 0. -1.
          1    1    1    2  502    0 -0.22364436129E+02  0.32999525175E+02  0.43896244116E+03  0.44076882991E+03  0.00000000000E+00 0. -1.
         22    1    3    3    0    0 -0.34550372445E+02  0.34344493953E+02  0.57952574302E+02  0.75708476204E+02  0.00000000000E+00 0. -1.
         22    1    3    3    0    0  0.32447473614E+02 -0.69538739176E+02  0.17306546328E+03  0.18931489474E+03  0.00000000000E+00 0. -1.
</event>
<event>
 7    1  0.6105960E-006  0.3483061E+02  0.7818608E-02  0.1560580E+00
          2   -1    0    0  502    0  0.00000000000E+00  0.00000000000E+00  0.47410652252E+03  0.47410652252E+03  0.00000000000E+00 0. -1.
          1   -1    0    0  501    0 -0.00000000000E+00 -0.00000000000E+00 -0.33874419632E+03  0.33874419632E+03  0.00000000000E+00 0. -1.
         25    2    1    2    0    0 -0.44997584356E+01  0.25956844885E+01 -0.52058082643E+02  0.13550713043E+03  0.12500061209E+03 0.  0.
          2    1    1    2  501    0  0.34033208641E+02  0.11162436955E+02 -0.24303341962E+03  0.24565850757E+03  0.00000000000E+00 0. -1.
          1    1    1    2  502    0 -0.29533450205E+02 -0.13758121444E+02  0.43045382846E+03  0.43168508084E+03  0.00000000000E+00 0. -1.
         22    1    3    3    0    0 -0.58489687936E+01  0.62979675606E+02 -0.16301768141E+02  0.65317666981E+02  0.00000000000E+00 0.  1.
         22    1    3    3    0    0  0.13492103580E+01 -0.60383991117E+02 -0.35756314502E+02  0.70189463444E+02  0.00000000000E+00 0.  1.
</event>
<event>
 7    1  0.6105960E-006  0.1196019E+03  0.7818608E-02  0.1446595E+00
          2   -1    0    0  502    0  0.00000000000E+00  0.00000000000E+00  0.98642568969E+03  0.98642568969E+03  0.00000000000E+00 0. -1.
          1   -1    0    0  501    0 -0.00000000000E+00 -0.00000000000E+00 -0.23380312429E+03  0.23380312429E+03  0.00000000000E+00 0. -1.
         25    2    1    2    0    0 -0.10759006761E+01  0.13467571633E+03  0.29037572057E+03  0.34363038738E+03  0.12500031162E+03 0.  0.
          2    1    1    2  501    0 -0.11556674378E+02 -0.11826540794E+03 -0.18995892012E+03  0.22406395242E+03  0.00000000000E+00 0. -1.
          1    1    1    2  502    0  0.12632575054E+02 -0.16410308381E+02  0.65220576494E+03  0.65253447418E+03  0.00000000000E+00 0. -1.
         22    1    3    3    0    0 -0.55656614102E+02  0.81030806621E+02  0.10906094090E+03  0.14682622090E+03  0.00000000000E+00 0.  1.
         22    1    3    3    0    0  0.54580713426E+02  0.53644909705E+02  0.18131477967E+03  0.19680416648E+03  0.00000000000E+00 0.  1.
</event>
<event>
 7    1  0.6105960E-006  0.2430898E+03  0.7818608E-02  0.1156042E+00
          2   -1    0    0  502    0  0.00000000000E+00  0.00000000000E+00  0.30034885225E+03  0.30034885225E+03  0.00000000000E+00 0. -1.
          1   -1    0    0  501    0 -0.00000000000E+00 -0.00000000000E+00 -0.11664913554E+04  0.11664913554E+04  0.00000000000E+00 0. -1.
         25    2    1    2    0    0 -0.34706276553E+03  0.55007231436E+02 -0.31692049529E+03  0.48943037634E+03  0.12500053688E+03 0.  0.
          2    1    1    2  501    0  0.20084278937E+03 -0.99251733326E+02 -0.71659695513E+03  0.75079952631E+03  0.00000000000E+00 0. -1.
          1    1    1    2  502    0  0.14621997616E+03  0.44244501890E+02  0.16737494725E+03  0.22661030502E+03  0.00000000000E+00 0. -1.
         22    1    3    3    0    0 -0.26948779914E+03 -0.96873252045E+01 -0.25383815351E+03  0.37033947444E+03  0.00000000000E+00 0. -1.
         22    1    3    3    0    0 -0.77574966391E+02  0.64694556641E+02 -0.63082341777E+02  0.11909090189E+03  0.00000000000E+00 0. -1.
</event>
<event>
 7    1  0.6105960E-006  0.2772039E+03  0.7818608E-02  0.1309085E+00
          2   -1    0    0  502    0  0.00000000000E+00  0.00000000000E+00  0.87806152430E+03  0.87806152430E+03  0.00000000000E+00 0. -1.
          1   -1    0    0  501    0 -0.00000000000E+00 -0.00000000000E+00 -0.22796639802E+03  0.22796639802E+03  0.00000000000E+00 0. -1.
         25    2    1    2    0    0 -0.25792761463E+03 -0.46909593179E+02  0.22085186268E+03  0.36486935860E+03  0.12500775686E+03 0.  0.
          2    1    1    2  501    0  0.27576831947E+03  0.67973056776E+02 -0.25880288572E+02  0.28519868830E+03  0.00000000000E+00 0. -1.
          1    1    1    2  502    0 -0.17840704833E+02 -0.21063463597E+02  0.45512355218E+03  0.45595987543E+03  0.00000000000E+00 0. -1.
         22    1    3    3    0    0  0.36235990599E+01  0.19996333284E+02  0.12631484100E+02  0.23927770592E+02  0.00000000000E+00 0. -1.
         22    1    3    3    0    0 -0.26155121369E+03 -0.66905926463E+02  0.20822037858E+03  0.34094158801E+03  0.00000000000E+00 0. -1.
</event>
<event>
 7    1  0.6105960E-006  0.7112170E+02  0.7818608E-02  0.1395743E+00
          2   -1    0    0  502    0  0.00000000000E+00  0.00000000000E+00  0.14989324117E+04  0.14989324117E+04  0.00000000000E+00 0. -1.
          1   -1    0    0  501    0 -0.00000000000E+00 -0.00000000000E+00 -0.91423601033E+02  0.91423601033E+02  0.00000000000E+00 0. -1.
         25    2    1    2    0    0 -0.44196872917E+02 -0.50507297815E+02  0.47782164712E+03  0.49844074980E+03  0.12500121559E+03 0.  0.
          2    1    1    2  501    0 -0.26623944023E+01  0.71789012530E+02 -0.64410930381E+02  0.96485846716E+02  0.00000000000E+00 0. -1.
          1    1    1    2  502    0  0.46859267319E+02 -0.21281714715E+02  0.99409809396E+03  0.99542941625E+03  0.00000000000E+00 0. -1.
         22    1    3    3    0    0 -0.56536371197E+02  0.27332178653E+02  0.22729201252E+03  0.23580726921E+03  0.00000000000E+00 0. -1.
         22    1    3    3    0    0  0.12339498280E+02 -0.77839476467E+02  0.25052963460E+03  0.26263348059E+03  0.00000000000E+00 0. -1.
</event>
<event>
 7    1  0.6105960E-006  0.1547248E+03  0.7818608E-02  0.1350309E+00
          2   -1    0    0  502    0  0.00000000000E+00  0.00000000000E+00  0.44758583550E+03  0.44758583550E+03  0.00000000000E+00 0. -1.
          1   -1    0    0  501    0 -0.00000000000E+00 -0.00000000000E+00 -0.12327979415E+03  0.12327979415E+03  0.00000000000E+00 0. -1.
         25    2    1    2    0    0  0.12660637712E+03 -0.51166120699E+02  0.18165877009E+03  0.25936672876E+03  0.12499617836E+03 0.  0.
          2    1    1    2  501    0  0.34100866318E+02 -0.45524542639E+01 -0.46032759007E+02  0.57468328889E+02  0.00000000000E+00 0. -1.
          1    1    1    2  502    0 -0.16070724343E+03  0.55718574963E+02  0.18868003026E+03  0.25403057200E+03  0.00000000000E+00 0. -1.
         22    1    3    3    0    0  0.12233684037E+03 -0.32090416719E+02  0.19728238647E+03  0.23434256414E+03  0.00000000000E+00 0.  1.
         22    1    3    3    0    0  0.42695367508E+01 -0.19075703980E+02 -0.15623616378E+02  0.25024164624E+02  0.00000000000E+00 0.  1.
</event>
<event>
 7    1  0.6105960E-006  0.3209419E+02  0.7818608E-02  0.1576628E+00
          2   -1    0    0  502    0  0.00000000000E+00  0.00000000000E+00  0.39634060536E+03  0.39634060536E+03  0.00000000000E+00 0. -1.
          1   -1    0    0  501    0 -0.00000000000E+00 -0.00000000000E+00 -0.61396452931E+02  0.61396452931E+02  0.00000000000E+00 0. -1.
         25    2    1    2    0    0  0.60005983210E+00  0.52208069195E+01  0.28438181598E+03  0.31068024604E+03  0.12498632376E+03 0.  0.
          2    1    1    2  501    0  0.30899196559E+02 -0.10718452247E+02 -0.39619174720E+02  0.51374357145E+02  0.00000000000E+00 0. -1.
          1    1    1    2  502    0 -0.31499256391E+02  0.54976453272E+01  0.90181511174E+02  0.95682455106E+02  0.00000000000E+00 0. -1.
         22    1    3    3    0    0 -0.14087722682E+02 -0.31143892206E+02  0.13144437959E+02  0.36622154515E+02  0.00000000000E+00 0. -1.
         22    1    3    3    0    0  0.14687782514E+02  0.36364699125E+02  0.27123737802E+03  0.27405809153E+03  0.00000000000E+00 0. -1.
</event>
<event>
 7    1  0.6105960E-006  0.8081368E+02  0.7818608E-02  0.1413411E+00
          2   -1    0    0  502    0  0.00000000000E+00  0.00000000000E+00  0.35853689077E+03  0.35853689077E+03  0.00000000000E+00 0. -1.
          1   -1    0    0  501    0 -0.00000000000E+00 -0.00000000000E+00 -0.13132543347E+04  0.13132543347E+04  0.00000000000E+00 0. -1.
         25    2    1    2    0    0  0.11922379283E+02  0.41186180081E+02  0.47490254176E+02  0.14042404422E+03  0.12500057358E+03 0.  0.
          2    1    1    2  501    0 -0.33708129578E+02 -0.74035362265E+02 -0.12640045991E+04  0.12666195560E+04  0.00000000000E+00 0. -1.
          1    1    1    2  502    0  0.21785750295E+02  0.32849182185E+02  0.26179690106E+03  0.26474762528E+03  0.00000000000E+00 0. -1.
         22    1    3    3    0    0 -0.15564491068E+02 -0.33650153191E+02  0.48058256893E+02  0.60697464919E+02  0.00000000000E+00 0. -1.
         22    1    3    3    0    0  0.27486870351E+02  0.74836333271E+02 -0.56800271729E+00  0.79726579296E+02  0.00000000000E+00 0. -1.
</event>
<event>
 7    1  0.6105960E-006  0.4759577E+02  0.7818608E-02  0.1480423E+00
          2   -1    0    0  502    0  0.00000000000E+00  0.00000000000E+00  0.32237950331E+03  0.32237950331E+03  0.00000000000E+00 0. -1.
          1   -1    0    0  501    0 -0.00000000000E+00 -0.00000000000E+00 -0.39580612482E+03  0.39580612482E+03  0.00000000000E+00 0. -1.
         25    2    1    2    0    0  0.24273177363E+02 -0.33835643970E+02 -0.10777228860E+03  0.17021659399E+03  0.12499913894E+03 0.  0.
          2    1    1    2  501    0  0.14253085055E+02  0.47115003142E+02 -0.25300211349E+03  0.25774608316E+03  0.00000000000E+00 0. -1.
          1    1    1    2  502    0 -0.38526262418E+02 -0.13279359172E+02  0.28734778058E+03  0.29022295099E+03  0.00000000000E+00 0. -1.
         22    1    3    3    0    0 -0.19950551943E+02  0.30690216928E+02 -0.78640034964E+02  0.86741968141E+02  0.00000000000E+00 0. -1.
         22    1    3    3    0    0  0.44223729306E+02 -0.64525860897E+02 -0.29132253632E+02  0.83474625845E+02  0.00000000000E+00 0. -1.
</event>
<event>
 7    1  0.6105960E-006  0.2444750E+03  0.7818608E-02  0.1227118E+00
          2   -1    0    0  502    0  0.00000000000E+00  0.00000000000E+00  0.27956782069E+04  0.27956782069E+04  0.00000000000E+00 0. -1.
          1   -1    0    0  501    0 -0.00000000000E+00 -0.00000000000E+00 -0.21518054483E+04  0.21518054483E+04  0.00000000000E+00 0. -1.
         25    2    1    2    0    0  0.21221929851E+03  0.21670438905E+03 -0.10623969885E+04  0.11118948111E+04  0.12499954790E+03 0.  0.
          2    1    1    2  501    0 -0.19661333624E+02 -0.66525771393E+02 -0.10581414428E+04  0.10604129193E+04  0.00000000000E+00 0. -1.
          1    1    1    2  502    0 -0.19255796488E+03 -0.15017861766E+03  0.27644111899E+04  0.27751759248E+04  0.00000000000E+00 0. -1.
         22    1    3    3    0    0  0.12877306614E+03  0.19413563327E+03 -0.64869298883E+03  0.68925593246E+03  0.00000000000E+00 0. -1.
         22    1    3    3    0    0  0.83446232365E+02  0.22568755781E+02 -0.41370399965E+03  0.42263887866E+03  0.00000000000E+00 0. -1.
</event>
<event>
 7    1  0.6105960E-006  0.1216616E+03  0.7818608E-02  0.1312708E+00
          2   -1    0    0  502    0  0.00000000000E+00  0.00000000000E+00  0.26938046760E+04  0.26938046760E+04  0.00000000000E+00 0. -1.
          1   -1    0    0  501    0 -0.00000000000E+00 -0.00000000000E+00 -0.91163559367E+03  0.91163559367E+03  0.00000000000E+00 0. -1.
         25    2    1    2    0    0 -0.12057234378E+03 -0.32378044798E+02  0.35935932958E+02  0.18028729237E+03  0.12500435451E+03 0.  0.
          2    1    1    2  501    0  0.20447079511E+01  0.60828607577E+02 -0.83691764669E+03  0.83912778983E+03  0.00000000000E+00 0. -1.
          1    1    1    2  502    0  0.11852763582E+03 -0.28450562778E+02  0.25831507961E+04  0.25860251874E+04  0.00000000000E+00 0. -1.
         22    1    3    3    0    0  0.11509928155E+02  0.28731326108E+02  0.94630872710E+01  0.32365376049E+02  0.00000000000E+00 0. -1.
         22    1    3    3    0    0 -0.13208227193E+03 -0.61109370907E+02  0.26472845687E+02  0.14792191633E+03  0.00000000000E+00 0. -1.
</event>
<event>
 7    1  0.6105960E-006  0.1386381E+03  0.7818608E-02  0.1375529E+00
          2   -1    0    0  502    0  0.00000000000E+00  0.00000000000E+00  0.27528585614E+03  0.27528585614E+03  0.00000000000E+00 0. -1.
          1   -1    0    0  501    0 -0.00000000000E+00 -0.00000000000E+00 -0.25712525422E+03  0.25712525422E+03  0.00000000000E+00 0. -1.
         25    2    1    2    0    0  0.44630214346E+02  0.10279381289E+03  0.11449319721E+03  0.20320305399E+03  0.12499745974E+03 0.  0.
          2    1    1    2  501    0 -0.51320594846E+02 -0.13315659192E+03 -0.18592338344E+03  0.23437573666E+03  0.00000000000E+00 0. -1.
          1    1    1    2  502    0  0.66903804996E+01  0.30362779028E+02  0.89590788149E+02  0.94832319716E+02  0.00000000000E+00 0. -1.
         22    1    3    3    0    0 -0.33925166664E+02  0.78345623462E+02  0.52987098728E+02  0.10048177089E+03  0.00000000000E+00 0.  1.
         22    1    3    3    0    0  0.78555381010E+02  0.24448189427E+02  0.61506098481E+02  0.10272128310E+03  0.00000000000E+00 0.  1.
</event>
<event>
 7    1  0.6105960E-006  0.1366148E+03  0.7818608E-02  0.1332021E+00
          2   -1    0    0  502    0  0.00000000000E+00  0.00000000000E+00  0.79140836319E+03  0.79140836319E+03  0.00000000000E+00 0. -1.
          1   -1    0    0  501    0 -0.00000000000E+00 -0.00000000000E+00 -0.95933793277E+03  0.95933793277E+03  0.00000000000E+00 0. -1.
         25    2    1    2    0    0  0.10293959071E+03 -0.22404123858E+01  0.12058219869E+03  0.20190628983E+03  0.12499801778E+03 0.  0.
          2    1    1    2  501    0  0.38082794834E+02 -0.25154185122E+02 -0.90990902867E+03  0.91105294728E+03  0.00000000000E+00 0. -1.
          1    1    1    2  502    0 -0.14102238554E+03  0.27394597507E+02  0.62139726040E+03  0.63778705885E+03  0.00000000000E+00 0. -1.
         22    1    3    3    0    0 -0.18946368094E+02 -0.22470262139E+02  0.54182321028E+02  0.61640907330E+02  0.00000000000E+00 0.  1.
         22    1    3    3    0    0  0.12188595880E+03  0.20229849753E+02  0.66399877663E+02  0.14026538250E+03  0.00000000000E+00 0.  1.
</event>
<event>
 7    1  0.6105960E-006  0.2152987E+03  0.7818608E-02  0.1211914E+00
          2   -1    0    0  502    0  0.00000000000E+00  0.00000000000E+00  0.55884710123E+03  0.55884710123E+03  0.00000000000E+00 0. -1.
          1   -1    0    0  501    0 -0.00000000000E+00 -0.00000000000E+00 -0.40939394718E+03  0.40939394718E+03  0.00000000000E+00 0. -1.
         25    2    1    2    0    0  0.12984904045E+03 -0.19980178841E+03  0.12825351139E+03  0.29808709306E+03  0.12500169564E+03 0.  0.
          2    1    1    2  501    0 -0.92052533796E+02 -0.81915444451E+01 -0.28413091574E+03  0.29878277671E+03  0.00000000000E+00 0. -1.
          1    1    1    2  502    0 -0.37796506651E+02  0.20799333285E+03  0.30533055840E+03  0.37137117864E+03  0.00000000000E+00 0. -1.
         22    1    3    3    0    0 -0.10701566436E+02 -0.78877237211E+02  0.15535015935E+02  0.81101657161E+02  0.00000000000E+00 0. -1.
         22    1    3    3    0    0  0.14055060688E+03 -0.12092455120E+03  0.11271849545E+03  0.21698543590E+03  0.00000000000E+00 0. -1.
</event>
<event>
 7    1  0.6105960E-006  0.1744569E+03  0.7818608E-02  0.1263096E+00
          2   -1    0    0  502    0  0.00000000000E+00  0.00000000000E+00  0.29788609389E+04  0.29788609389E+04  0.00000000000E+00 0. -1.
          1   -1    0    0  501    0 -0.00000000000E+00 -0.00000000000E+00 -0.33098931013E+04  0.33098931013E+04  0.00000000000E+00 0. -1.
         25    2    1    2    0    0  0.13327110547E+02  0.23771526656E+03 -0.62262274827E+03  0.67821104627E+03  0.12499990717E+03 0.  0.
          2    1    1    2  501    0  0.15394040004E+02 -0.65888153464E+02 -0.26564739846E+04  0.26573355558E+04  0.00000000000E+00 0. -1.
          1    1    1    2  502    0 -0.28721150550E+02 -0.17182711310E+03  0.29480645705E+04  0.29532074382E+04  0.00000000000E+00 0. -1.
         22    1    3    3    0    0  0.23855557934E+02  0.20187373772E+03 -0.36409107665E+03  0.41699449124E+03  0.00000000000E+00 0. -1.
         22    1    3    3    0    0 -0.10528447387E+02  0.35841528838E+02 -0.25853167162E+03  0.26121655504E+03  0.00000000000E+00 0. -1.
</event>
<event>
 7    1  0.6105960E-006  0.2903669E+03  0.7818608E-02  0.1135991E+00
          2   -1    0    0  502    0  0.00000000000E+00  0.00000000000E+00  0.87745197481E+03  0.87745197481E+03  0.00000000000E+00 0. -1.
          1   -1    0    0  501    0 -0.00000000000E+00 -0.00000000000E+00 -0.22170543877E+04  0.22170543877E+04  0.00000000000E+00 0. -1.
         25    2    1    2    0    0 -0.75006918156E+02 -0.38583463796E+03 -0.28426408809E+03  0.50092529765E+03  0.12500270566E+03 0.  0.
          2    1    1    2  501    0 -0.46770910759E+02  0.27829487075E+03 -0.18047916227E+04  0.18267206558E+04  0.00000000000E+00 0. -1.
          1    1    1    2  502    0  0.12177782891E+03  0.10753976721E+03  0.74945329791E+03  0.76686040900E+03  0.00000000000E+00 0. -1.
         22    1    3    3    0    0 -0.36385720518E+02 -0.36584254804E+03 -0.24110025004E+03  0.43965215931E+03  0.00000000000E+00 0.  1.
         22    1    3    3    0    0 -0.38621197638E+02 -0.19992089917E+02 -0.43163838052E+02  0.61273138337E+02  0.00000000000E+00 0.  1.
</event>
<event>
 7    1  0.6105960E-006  0.8353678E+02  0.7818608E-02  0.1344339E+00
          2   -1    0    0  502    0  0.00000000000E+00  0.00000000000E+00  0.46071821744E+03  0.46071821744E+03  0.00000000000E+00 0. -1.
          1   -1    0    0  501    0 -0.00000000000E+00 -0.00000000000E+00 -0.96917207547E+03  0.96917207547E+03  0.00000000000E+00 0. -1.
         25    2    1    2    0    0 -0.16887518653E+01  0.74297182760E+02  0.12617661339E+03  0.19253167440E+03  0.12499993853E+03 0.  0.
          2    1    1    2  501    0  0.65996549321E+02 -0.11923983769E+02 -0.92809975745E+03  0.93051968582E+03  0.00000000000E+00 0. -1.
          1    1    1    2  502    0 -0.64307797456E+02 -0.62373198991E+02  0.29346928603E+03  0.30683893268E+03  0.00000000000E+00 0. -1.
         22    1    3    3    0    0  0.49280582352E+02  0.45857852268E+01  0.14921256378E+02  0.51693801514E+02  0.00000000000E+00 0. -1.
         22    1    3    3    0    0 -0.50969334217E+02  0.69711397533E+02  0.11125535701E+03  0.14083787289E+03  0.00000000000E+00 0. -1.
</event>
<event>
 7    1  0.6105960E-006  0.4080391E+02  0.7818608E-02  0.1561382E+00
          2   -1    0    0  502    0  0.00000000000E+00  0.00000000000E+00  0.93108612243E+03  0.93108612243E+03  0.00000000000E+00 0. -1.
          1   -1    0    0  501    0 -0.00000000000E+00 -0.00000000000E+00 -0.12034224934E+04  0.12034224934E+04  0.00000000000E+00 0. -1.
         25    2    1    2    0    0  0.68178166829E+01 -0.34326916564E+02  0.98793268966E+02  0.16313319467E+03  0.12501003714E+03 0.  0.
          2    1    1    2  501    0  0.25947905126E+02  0.96105897761E+01 -0.11705626004E+04  0.11708896014E+04  0.00000000000E+00 0. -1.
          1    1    1    2  502    0 -0.32765721809E+02  0.24716326788E+02  0.79943296047E+03  0.80048581975E+03  0.00000000000E+00 0. -1.
         22    1    3    3    0    0  0.47580060627E+02  0.55102282790E+01 -0.13379962318E+01  0.47916750921E+02  0.00000000000E+00 0. -1.
         22    1    3    3    0    0 -0.40762243944E+02 -0.39837144843E+02  0.10013126520E+03  0.11521644375E+03  0.00000000000E+00 0. -1.
</event>
<event>
 7    1  0.6105960E-006  0.1051430E+03  0.7818608E-02  0.1426706E+00
          2   -1    0    0  502    0  0.00000000000E+00  0.00000000000E+00  0.24274381111E+03  0.24274381111E+03  0.00000000000E+00 0. -1.
          1   -1    0    0  501    0 -0.00000000000E+00 -0.00000000000E+00 -0.47074998360E+03  0.47074998360E+03  0.00000000000E+00 0. -1.
         25    2    1    2    0    0 -0.45733450706E+02 -0.12223358123E+03  0.30374735645E+02  0.18325733533E+03  0.12501211739E+03 0.  0.
          2    1    1    2  501    0  0.32502885457E+02  0.98294584362E+02 -0.38603937249E+03  0.39968069755E+03  0.00000000000E+00 0. -1.
          1    1    1    2  502    0  0.13230565249E+02  0.23938996867E+02  0.12765846435E+03  0.13055576184E+03  0.00000000000E+00 0. -1.
         22    1    3    3    0    0  0.32895920565E+02 -0.64239343547E+02  0.44123602034E+02  0.84591530933E+02  0.00000000000E+00 0.  1.
         22    1    3    3    0    0 -0.78629371271E+02 -0.57994237681E+02 -0.13748866389E+02  0.98665804399E+02  0.00000000000E+00 0.  1.
</event>
<event>
 7    1  0.6105960E-006  0.2135761E+03  0.7818608E-02  0.1328813E+00
          2   -1    0    0  502    0  0.00000000000E+00  0.00000000000E+00  0.13580309712E+04  0.13580309712E+04  0.00000000000E+00 0. -1.
          1   -1    0    0  501    0 -0.00000000000E+00 -0.00000000000E+00 -0.43249599738E+03  0.43249599738E+03  0.00000000000E+00 0. -1.
         25    2    1    2    0    0 -0.16258878729E+03 -0.12335223158E+03  0.44562372370E+03  0.50582172913E+03  0.12499692696E+03 0.  0.
          2    1    1    2  501    0  0.18658762850E+03  0.10530259569E+03 -0.37359538584E+03  0.43067051453E+03  0.00000000000E+00 0. -1.
          1    1    1    2  502    0 -0.23998841209E+02  0.18049635882E+02  0.85350663594E+03  0.85403472490E+03  0.00000000000E+00 0. -1.
         22    1    3    3    0    0 -0.16865871420E+03 -0.67720941982E+02  0.36407585314E+03  0.40691905178E+03  0.00000000000E+00 0. -1.
         22    1    3    3    0    0  0.60699269159E+01 -0.55631289594E+02  0.81547870562E+02  0.98902677354E+02  0.00000000000E+00 0. -1.
</event>
<event>
 7    1  0.6105960E-006  0.4701589E+02  0.7818608E-02  0.1546140E+00
          2   -1    0    0  502    0  0.00000000000E+00  0.00000000000E+00  0.49920434610E+03  0.49920434610E+03  0.00000000000E+00 0. -1.
          1   -1    0    0  501    0 -0.00000000000E+00 -0.00000000000E+00 -0.49105223770E+03  0.49105223770E+03  0.00000000000E+00 0. -1.
         25    2    1    2    0    0  0.24562982013E+02  0.15514427128E+02 -0.16709980744E+03  0.21069380339E+03  0.12500198242E+03 0.  0.
          2    1    1    2  501    0  0.22558731335E+02 -0.13850845291E+02 -0.30040776241E+03  0.30157182559E+03  0.00000000000E+00 0. -1.
          1    1    1    2  502    0 -0.47121713348E+02 -0.16635818371E+01  0.47565967825E+03  0.47799095481E+03  0.00000000000E+00 0. -1.
         22    1    3    3    0    0 -0.35207123241E+01 -0.26803428267E+02  0.81479250143E+01  0.28234869650E+02  0.00000000000E+00 0. -1.
         22    1    3    3    0    0  0.28083694337E+02  0.42317855395E+02 -0.17524773245E+03  0.18245893374E+03  0.00000000000E+00 0. -1.
</event>
<event>
 7    1  0.6105960E-006  0.1142502E+03  0.7818608E-02  0.1370041E+00
          2   -1    0    0  502    0  0.00000000000E+00  0.00000000000E+00  0.12998579310E+04  0.12998579310E+04  0.00000000000E+00 0. -1.
          1   -1    0    0  501    0 -0.00000000000E+00 -0.00000000000E+00 -0.83668088398E+02  0.83668088398E+02  0.00000000000E+00 0. -1.
         25    2    1    2    0    0 -0.82982192828E+01 -0.98141633212E+02  0.25872984433E+03  0.30375735858E+03  0.12500703952E+03 0.  0.
          2    1    1    2  501    0 -0.38307583681E+02 -0.95238875675E+01 -0.51008787906E+02  0.64498618943E+02  0.00000000000E+00 0. -1.
          1    1    1    2  502    0  0.46605802964E+02  0.10766552078E+03  0.10084687862E+04  0.10152700419E+04  0.00000000000E+00 0. -1.
         22    1    3    3    0    0  0.46668909184E+02 -0.40705807563E+02  0.47450972522E+02  0.78016310135E+02  0.00000000000E+00 0.  1.
         22    1    3    3    0    0 -0.54967128467E+02 -0.57435825649E+02  0.21127887181E+03  0.22574104844E+03  0.00000000000E+00 0.  1.
</event>
<event>
 7    1  0.6105960E-006  0.3343558E+02  0.7818608E-02  0.1637949E+00
          2   -1    0    0  502    0  0.00000000000E+00  0.00000000000E+00  0.11835242035E+04  0.11835242035E+04  0.00000000000E+00 0. -1.
          1   -1    0    0  501    0 -0.00000000000E+00 -0.00000000000E+00 -0.30566997628E+03  0.30566997628E+03  0.00000000000E+00 0. -1.
         25    2    1    2    0    0 -0.42144424025E+02  0.31807162345E+02  0.33484642512E+03  0.36129737061E+03  0.12500325413E+03 0.  0.
          2    1    1    2  501    0  0.30236498721E+02 -0.14154763462E+02 -0.29135539593E+03  0.29326194762E+03  0.00000000000E+00 0. -1.
          1    1    1    2  502    0  0.11907925303E+02 -0.17652398882E+02  0.83436319800E+03  0.83463486151E+03  0.00000000000E+00 0. -1.
         22    1    3    3    0    0 -0.77056626715E+02  0.16109151534E+02  0.12310359760E+03  0.14612229202E+03  0.00000000000E+00 0. -1.
         22    1    3    3    0    0  0.34912202690E+02  0.15698010810E+02  0.21174282752E+03  0.21517507859E+03  0.00000000000E+00 0. -1.
</event>
<event>
 7    1  0.6105960E-006  0.2946760E+03  0.7818608E-02  0.1111075E+00
          2   -1    0    0  502    0  0.00000000000E+00  0.00000000000E+00  0.79991574705E+03  0.79991574705E+03  0.00000000000E+00 0. -1.
          1   -1    0    0  501    0 -0.00000000000E+00 -0.00000000000E+00 -0.97668848327E+03  0.97668848327E+03  0.00000000000E+00 0. -1.
         25    2    1    2    0    0  0.25102841449E+03  0.33822367291E+03 -0.37815566230E+02  0.44098065799E+03  0.12499362334E+03 0.  0.
          2    1    1    2  501    0 -0.40752106354E+02 -0.28002359855E+03 -0.68848385592E+03  0.74436816816E+03  0.00000000000E+00 0. -1.
          1    1    1    2  502    0 -0.21027630813E+03 -0.58200074366E+02  0.54952668592E+03  0.59125540417E+03  0.00000000000E+00 0. -1.
         22    1    3    3    0    0  0.24920167960E+02  0.93882223608E+02 -0.47084617702E+02  0.10794372564E+03  0.00000000000E+00 0.  1.
         22    1    3    3    0    0  0.22610824653E+03  0.24434144930E+03  0.92690514720E+01  0.33303693235E+03  0.00000000000E+00 0.  1.
</event>
<event>
 7    1  0.6105960E-006  0.7054375E+02  0.7818608E-02  0.1497648E+00
          2   -1    0    0  502    0  0.00000000000E+00  0.00000000000E+00  0.10175827061E+04  0.10175827061E+04  0.00000000000E+00 0. -1.
          1   -1    0    0  501    0 -0.00000000000E+00 -0.00000000000E+00 -0.32252661541E+03  0.32252661541E+03  0.00000000000E+00 0. -1.
         25    2    1    2    0    0  0.39419577109E+02  0.34688255160E+02 -0.29575123576E+01  0.13561234634E+03  0.12499913398E+03 0.  0.
          2    1    1    2  501    0 -0.63772993707E+02 -0.33520700920E+02 -0.24795724271E+03  0.25821197945E+03  0.00000000000E+00 0. -1.
          1    1    1    2  502    0  0.24353416599E+02 -0.11675542405E+01  0.94597084576E+03  0.94628499571E+03  0.00000000000E+00 0. -1.
         22    1    3    3    0    0  0.74610125869E+02 -0.11381560526E+02  0.10217334060E+02  0.76161701120E+02  0.00000000000E+00 0. -1.
         22    1    3    3    0    0 -0.35190548760E+02  0.46069815687E+02 -0.13174846418E+02  0.59450645225E+02  0.00000000000E+00 0. -1.
</event>
<event>
 7    1  0.6105960E-006  0.2601885E+03  0.7818608E-02  0.1217140E+00
          2   -1    0    0  502    0  0.00000000000E+00  0.00000000000E+00  0.21294349112E+04  0.21294349112E+04  0.00000000000E+00 0. -1.
          1   -1    0    0  501    0 -0.00000000000E+00 -0.00000000000E+00 -0.58609113753E+03  0.58609113753E+03  0.00000000000E+00 0. -1.
         25    2    1    2    0    0 -0.11278170002E+03 -0.28441854791E+03  0.10866306954E+04  0.11357843297E+04  0.12500461208E+03 0.  0.
          2    1    1    2  501    0  0.37806534940E+02  0.61689140765E+02 -0.54553367230E+03  0.55031070477E+03  0.00000000000E+00 0. -1.
          1    1    1    2  502    0  0.74975165077E+02  0.22272940714E+03  0.10022467506E+04  0.10294310143E+04  0.00000000000E+00 0. -1.
         22    1    3    3    0    0 -0.10733655880E+03 -0.15443342559E+03  0.48368556453E+03  0.51896295159E+03  0.00000000000E+00 0.  1.
         22    1    3    3    0    0 -0.54451412214E+01 -0.12998512232E+03  0.60294513088E+03  0.61682137807E+03  0.00000000000E+00 0.  1.
</event>
<event>
 7    1  0.6105960E-006  0.9773300E+02  0.7818608E-02  0.1289317E+00
          2   -1    0    0  502    0  0.00000000000E+00  0.00000000000E+00  0.57796852036E+03  0.57796852036E+03  0.00000000000E+00 0. -1.
          1   -1    0    0  501    0 -0.00000000000E+00 -0.00000000000E+00 -0.96509208506E+03  0.96509208506E+03  0.00000000000E+00 0. -1.
         25    2    1    2    0    0 -0.18079284839E+03 -0.37275052082E+02 -0.11765341913E+03  0.25208335781E+03  0.12501283420E+03 0.  0.
          2    1    1    2  501    0  0.94172280647E+02  0.85693793980E+00 -0.77301984602E+03  0.77873540764E+03  0.00000000000E+00 0. -1.
          1    1    1    2  502    0  0.86620567744E+02  0.36418114142E+02  0.50354970045E+03  0.51224183997E+03  0.00000000000E+00 0. -1.
         22    1    3    3    0    0  0.72859761186E+01 -0.21162424922E+02  0.96786409404E+01  0.24384621528E+02  0.00000000000E+00 0.  1.
         22    1    3    3    0    0 -0.18807882451E+03 -0.16112627159E+02 -0.12733206007E+03  0.22769873628E+03  0.00000000000E+00 0.  1.
</event>
<event>
 7    1  0.6105960E-006  0.2230269E+03  0.7818608E-02  0.1160685E+00
          2   -1    0    0  502    0  0.00000000000E+00  0.00000000000E+00  0.19292474199E+04  0.19292474199E+04  0.00000000000E+00 0. -1.
          1   -1    0    0  501    0 -0.00000000000E+00 -0.00000000000E+00 -0.43895922018E+03  0.43895922018E+03  0.00000000000E+00 0. -1.
         25    2    1    2    0    0  0.22125394722E+03  0.17769975819E+03 -0.11025449385E+03  0.32910751198E+03  0.12500075123E+03 0.  0.
          2    1    1    2  501    0  0.40349686223E+00 -0.15772542126E+03 -0.18307598750E+03  0.24164910205E+03  0.00000000000E+00 0. -1.
          1    1    1    2  502    0 -0.22165744408E+03 -0.19974336926E+02  0.17836186811E+04  0.17974500260E+04  0.00000000000E+00 0. -1.
         22    1    3    3    0    0  0.38134206550E+02 -0.12941304842E+02  0.52894383073E+01  0.40616169660E+02  0.00000000000E+00 0. -1.
         22    1    3    3    0    0  0.18311974067E+03  0.19064106303E+03 -0.11554393216E+03  0.28849134232E+03  0.00000000000E+00 0. -1.
</event>
<event>
 7    1  0.6105960E-006  0.1580332E+03  0.7818608E-02  0.1222793E+00
          2   -1    0    0  502    0  0.00000000000E+00  0.00000000000E+00  0.18302870455E+03  0.18302870455E+03  0.00000000000E+00 0. -1.
          1   -1    0    0  501    0 -0.00000000000E+00 -0.00000000000E+00 -0.49175190269E+03  0.49175190269E+03  0.00000000000E+00 0. -1.
         25    2    1    2    0    0  0.16842748175E+03 -0.99822820094E+02 -0.94238623608E+02  0.25067257858E+03  0.12499364565E+03 0.  0.
          2    1    1    2  501    0 -0.15458746916E+03 -0.11578279202E+02 -0.26021651165E+03  0.30289267919E+03  0.00000000000E+00 0. -1.
          1    1    1    2  502    0 -0.13840012590E+02  0.11140109930E+03  0.45731937118E+02  0.12121534946E+03  0.00000000000E+00 0. -1.
         22    1    3    3    0    0  0.10338503178E+03 -0.12524147535E+03 -0.63491992021E+02  0.17437065405E+03  0.00000000000E+00 0.  1.
         22    1    3    3    0    0  0.65042449978E+02  0.25418655251E+02 -0.30746631587E+02  0.76301924536E+02  0.00000000000E+00 0.  1.
</event>
<event>
 7    1  0.6105960E-006  0.5141486E+02  0.7818608E-02  0.1540262E+00
          2   -1    0    0  502    0  0.00000000000E+00  0.00000000000E+00  0.14719102489E+04  0.14719102489E+04  0.00000000000E+00 0. -1.
          1   -1    0    0  501    0 -0.00000000000E+00 -0.00000000000E+00 -0.15455937594E+04  0.15455937594E+04  0.00000000000E+00 0. -1.
         25    2    1    2    0    0 -0.44635466166E+02  0.51806578704E+02  0.60230065574E+02  0.15468871242E+03  0.12499876205E+03 0.  0.
          2    1    1    2  501    0  0.19886322933E+02 -0.47352667111E+02 -0.14978083982E+04  0.14986886730E+04  0.00000000000E+00 0. -1.
          1    1    1    2  502    0  0.24749143233E+02 -0.44539115928E+01  0.13638948221E+04  0.13641266228E+04  0.00000000000E+00 0. -1.
         22    1    3    3    0    0 -0.73058341093E+02  0.38182021510E+02  0.82085455734E+02  0.11633318535E+03  0.00000000000E+00 0.  1.
         22    1    3    3    0    0  0.28422874927E+02  0.13624557194E+02 -0.21855390160E+02  0.38355527071E+02  0.00000000000E+00 0.  1.
</event>
<event>
 7    1  0.6105960E-006  0.6398521E+02  0.7818608E-02  0.1475432E+00
          2   -1    0    0  502    0  0.00000000000E+00  0.00000000000E+00  0.62712584559E+02  0.62712584559E+02  0.00000000000E+00 0. -1.
          1   -1    0    0  501    0 -0.00000000000E+00 -0.00000000000E+00 -0.21342219970E+04  0.21342219970E+04  0.00000000000E+00 0. -1.
         25    2    1    2    0    0 -0.14356185345E+02 -0.92374543815E+02 -0.69944900788E+03  0.71665518230E+03  0.12500631704E+03 0.  0.
          2    1    1    2  501    0  0.11529546754E+02  0.29210442470E+02 -0.14074643850E+04  0.14078146808E+04  0.00000000000E+00 0. -1.
          1    1    1    2  502    0  0.28266385909E+01  0.63164101345E+02  0.35403980471E+02  0.72464718433E+02  0.00000000000E+00 0. -1.
         22    1    3    3    0    0 -0.26111950022E+02 -0.26710480058E+02 -0.56820062213E+03  0.56942710742E+03  0.00000000000E+00 0.  1.
         22    1    3    3    0    0  0.11755764676E+02 -0.65664063757E+02 -0.13124838575E+03  0.14722807489E+03  0.00000000000E+00 0.  1.
</event>
<event>
 7    1  0.6105960E-006  0.1761022E+03  0.7818608E-02  0.1361359E+00
          2   -1    0    0  502    0  0.00000000000E+00  0.00000000000E+00  0.44203926088E+03  0.44203926088E+03  0.00000000000E+00 0. -1.
          1   -1    0    0  501    0 -0.00000000000E+00 -0.00000000000E+00 -0.18273348917E+04  0.18273348917E+04  0.00000000000E+00 0. -1.
         25    2    1    2    0    0 -0.18799465742E+03  0.61272637174E+02 -0.59953674282E+03  0.64355703290E+03  0.12500008528E+03 0.  0.
          2    1    1    2  501    0  0.16190460255E+03 -0.52484001700E+02 -0.11993220960E+04  0.12113385821E+04  0.00000000000E+00 0. -1.
          1    1    1    2  502    0  0.26090054875E+02 -0.87886354739E+01  0.41356320797E+03  0.41447853752E+03  0.00000000000E+00 0. -1.
         22    1    3    3    0    0 -0.14864027194E+03  0.17357256699E+02 -0.53759082950E+03  0.55803145499E+03  0.00000000000E+00 0.  1.
         22    1    3    3    0    0 -0.39354385486E+02  0.43915380475E+02 -0.61945913320E+02  0.85525577906E+02  0.00000000000E+00 0.  1.
</event>
<event>
 7    1  0.6105960E-006  0.9989367E+02  0.7818608E-02  0.1372742E+00
          2   -1    0    0  502    0  0.00000000000E+00  0.00000000000E+00  0.33116163134E+03  0.33116163134E+03  0.00000000000E+00 0. -1.
          1   -1    0    0  501    0 -0.00000000000E+00 -0.00000000000E+00 -0.12498848508E+03  0.12498848508E+03  0.00000000000E+00 0. -1.
         25    2    1    2    0    0  0.33543911456E+02  0.53319449361E+02  0.63792950027E+01  0.14015371362E+03  0.12503683602E+03 0.  0.
          2    1    1    2  501    0  0.32443433944E+02  0.29945521923E+02 -0.36262278299E+02  0.57133733615E+02  0.00000000000E+00 0. -1.
          1    1    1    2  502    0 -0.65987345400E+02 -0.83264971284E+02  0.23605612955E+03  0.25886266918E+03  0.00000000000E+00 0. -1.
         22    1    3    3    0    0 -0.10991502633E+02  0.78908169568E+02 -0.20383508065E+02  0.82236243566E+02  0.00000000000E+00 0. -1.
         22    1    3    3    0    0  0.44535414088E+02 -0.25588720208E+02  0.26762803068E+02  0.57917470058E+02  0.00000000000E+00 0. -1.
</event>
<event>
 7    1  0.6105960E-006  0.2452432E+03  0.7818608E-02  0.1310542E+00
          2   -1    0    0  502    0  0.00000000000E+00  0.00000000000E+00  0.32532533046E+03  0.32532533046E+03  0.00000000000E+00 0. -1.
          1   -1    0    0  501    0 -0.00000000000E+00 -0.00000000000E+00 -0.86038147623E+03  0.86038147623E+03  0.00000000000E+00 0. -1.
         25    2    1    2    0    0  0.19773054636E+03 -0.13254653294E+03  0.37335364301E+02  0.27143781034E+03  0.12497440977E+03 0.  0.
          2    1    1    2  501    0 -0.18638653169E+03  0.16117169191E+03 -0.72129138462E+03  0.76221881044E+03  0.00000000000E+00 0. -1.
          1    1    1    2  502    0 -0.11344014675E+02 -0.28625158978E+02  0.14889987454E+03  0.15205018591E+03  0.00000000000E+00 0. -1.
         22    1    3    3    0    0  0.17664635145E+03 -0.14533099036E+03  0.25017363347E+01  0.22876033075E+03  0.00000000000E+00 0.  1.
         22    1    3    3    0    0  0.21084194911E+02  0.12784457428E+02  0.34833627966E+02  0.42677479589E+02  0.00000000000E+00 0.  1.
</event>
<event>
 7    1  0.6105960E-006  0.6800929E+02  0.7818608E-02  0.1508376E+00
          2   -1    0    0  502    0  0.00000000000E+00  0.00000000000E+00  0.31686282897E+04  0.31686282897E+04  0.00000000000E+00 0. -1.
          1   -1    0    0  501    0 -0.00000000000E+00 -0.00000000000E+00 -0.27422030967E+02  0.27422030967E+02  0.00000000000E+00 0. -1.
         25    2    1    2    0    0 -0.63710783481E+02  0.13327508107E+01  0.14121220970E+04  0.14190752523E+04  0.12499965835E+03 0.  0.
          2    1    1    2  501    0 -0.21840501314E+01 -0.23398220279E+02 -0.17317444030E+02  0.29191448318E+02  0.00000000000E+00 0. -1.
          1    1    1    2  502    0  0.65894833612E+02  0.22065469468E+02  0.17464016058E+04  0.17477836201E+04  0.00000000000E+00 0. -1.
         22    1    3    3    0    0 -0.51163158259E+02  0.55178092216E+02  0.10570016485E+04  0.10596767316E+04  0.00000000000E+00 0. -1.
         22    1    3    3    0    0 -0.12547625222E+02 -0.53845341405E+02  0.35512044849E+03  0.35939852062E+03  0.00000000000E+00 0. -1.
</event>
<event>
 7    1  0.6105960E-006  0.4118118E+02  0.7818608E-02  0.1523625E+00
          2   -1    0    0  502    0  0.00000000000E+00  0.00000000000E+00  0.16502583322E+04  0.16502583322E+04  0.00000000000E+00 0. -1.
          1   -1    0    0  501    0 -0.00000000000E+00 -0.00000000000E+00 -0.17152465149E+02  0.17152465149E+02  0.00000000000E+00 0. -1.
         25    2    1    2    0    0 -0.18577980762E+02  0.59003651575E+01  0.72185939029E+03  0.73286176574E+03  0.12500173060E+03 0.  0.
          2    1    1    2  501    0  0.13676968463E+02 -0.40583606077E+02  0.29260497488E+02  0.51867767080E+02  0.00000000000E+00 0. -1.
          1    1    1    2  502    0  0.49010122986E+01  0.34683240920E+02  0.88198597924E+03  0.88268126450E+03  0.00000000000E+00 0. -1.
         22    1    3    3    0    0  0.16678667290E+02  0.57812667015E+02  0.26712665468E+03  0.27381952460E+03  0.00000000000E+00 0.  1.
         22    1    3    3    0    0 -0.35256648052E+02 -0.51912301858E+02  0.45473273561E+03  0.45904224114E+03  0.00000000000E+00 0.  1.
</event>
<event>
 7    1  0.6105960E-006  0.1292663E+03  0.7818608E-02  0.1265774E+00
          2   -1    0    0  502    0  0.00000000000E+00  0.00000000000E+00  0.67119876898E+02  0.67119876898E+02  0.00000000000E+00 0. -1.
          1   -1    0    0  501    0 -0.00000000000E+00 -0.00000000000E+00 -0.11045314481E+04  0.11045314481E+04  0.00000000000E+00 0. -1.
         25    2    1    2    0    0 -0.37397363718E+02  0.66143775384E+02 -0.63239917150E+03  0.64909774434E+03  0.12500243100E+03 0.  0.
          2    1    1    2  501    0 -0.88574754112E+02 -0.82898041108E+01 -0.36866335138E+03  0.37924513783E+03  0.00000000000E+00 0. -1.
          1    1    1    2  502    0  0.12597211783E+03 -0.57853971273E+02 -0.36349048279E+02  0.14330844278E+03  0.00000000000E+00 0. -1.
         22    1    3    3    0    0 -0.30198433088E+02 -0.34098617624E+02 -0.18054794148E+03  0.18620478043E+03  0.00000000000E+00 0. -1.
         22    1    3    3    0    0 -0.71989306294E+01  0.10024239301E+03 -0.45185123003E+03  0.46289296391E+03  0.00000000000E+00 0. -1.
</event>
<event>
 7    1  0.6105960E-006  0.4727092E+02  0.7818608E-02  0.1495154E+00
          2   -1    0    0  502    0  0.00000000000E+00  0.00000000000E+00  0.23977959145E+04  0.23977959145E+04  0.00000000000E+00 0. -1.
          1   -1    0    0  501    0 -0.00000000000E+00 -0.00000000000E+00 -0.18427303513E+03  0.18427303513E+03  0.00000000000E+00 0. -1.
         25    2    1    2    0    0 -0.39191539175E+02 -0.58135027548E+01  0.60342811758E+03  0.61750987614E+03  0.12499272171E+03 0.  0.
          2    1    1    2  501    0  0.23556051160E+01  0.36941994769E+02 -0.17497005667E+03  0.17884289358E+03  0.00000000000E+00 0. -1.
          1    1    1    2  502    0  0.36835934059E+02 -0.31128492014E+02  0.17850648185E+04  0.17857161799E+04  0.00000000000E+00 0. -1.
         22    1    3    3    0    0 -0.46364384353E+02 -0.51944649689E+02  0.20819823094E+03  0.21953224395E+03  0.00000000000E+00 0.  1.
         22    1    3    3    0    0  0.71728451777E+01  0.46131146934E+02  0.39522988664E+03  0.39797763218E+03  0.00000000000E+00 0.  1.
</event>
<event>
 7    1  0.6105960E-006  0.6250165E+02  0.7818608E-02  0.1389633E+00
          2   -1    0    0  502    0  0.00000000000E+00  0.00000000000E+00  0.29218437855E+03  0.29218437855E+03  0.00000000000E+00 0. -1.
          1   -1    0    0  501    0 -0.00000000000E+00 -0.00000000000E+00 -0.17468772246E+03  0.17468772246E+03  0.00000000000E+00 0. -1.
         25    2    1    2    0    0 -0.50849576664E+02 -0.42214138475E+02  0.43056194211E+02  0.14780818042E+03  0.12500283759E+03 0.  0.
          2    1    1    2  501    0  0.58785890532E+02 -0.21229124441E+02 -0.10853176963E+03  0.12524217209E+03  0.00000000000E+00 0. -1.
          1    1    1    2  502    0 -0.79363138672E+01  0.63443262916E+02  0.18297223151E+03  0.19382174850E+03  0.00000000000E+00 0. -1.
         22    1    3    3    0    0 -0.88722332083E+02 -0.67644997109E+01  0.33400640172E+02  0.95042166592E+02  0.00000000000E+00 0.  1.
         22    1    3    3    0    0  0.37872755419E+02 -0.35449638764E+02  0.96555540388E+01  0.52766013828E+02  0.00000000000E+00 0.  1.
</event>
<event>
 7    1  0.6105960E-006  0.9263372E+02  0.7818608E-02  0.1338818E+00
          2   -1    0    0  502    0  0.00000000000E+00  0.00000000000E+00  0.15728285480E+04  0.15728285480E+04  0.00000000000E+00 0. -1.
          1   -1    0    0  501    0 -0.00000000000E+00 -0.00000000000E+00 -0.24672917288E+04  0.24672917288E+04  0.00000000000E+00 0. -1.
         25    2    1    2    0    0 -0.89301393351E+02 -0.91140142093E+02  0.50194082245E+03  0.53277650120E+03  0.12499978651E+03 0.  0.
          2    1    1    2  501    0  0.63223001442E+02  0.51756339543E+01 -0.24495510674E+04  0.24503722915E+04  0.00000000000E+00 0. -1.
          1    1    1    2  502    0  0.26078391909E+02  0.85964508139E+02  0.10531470642E+04  0.10569714840E+04  0.00000000000E+00 0. -1.
         22    1    3    3    0    0 -0.11418713418E+03 -0.53511333440E+02  0.42770463281E+03  0.44590740894E+03  0.00000000000E+00 0.  1.
         22    1    3    3    0    0  0.24885740829E+02 -0.37628808653E+02  0.74236189644E+02  0.86869092260E+02  0.00000000000E+00 0.  1.
</event>
<event>
 7    1  0.6105960E-006  0.9846462E+02  0.7818608E-02  0.1400728E+00
          2   -1    0    0  502    0  0.00000000000E+00  0.00000000000E+00  0.12833104548E+04  0.12833104548E+04  0.00000000000E+00 0. -1.
          1   -1    0    0  501    0 -0.00000000000E+00 -0.00000000000E+00 -0.40615494927E+03  0.40615494927E+03  0.00000000000E+00 0. -1.
         25    2    1    2    0    0 -0.46827554573E+02  0.55889798143E+02  0.31119716443E+01  0.14473592917E+03  0.12498926123E+03 0.  0.
          2    1    1    2  501    0  0.69756512328E+01  0.35043944299E+02 -0.33234608929E+03  0.33426136601E+03  0.00000000000E+00 0. -1.
          1    1    1    2  502    0  0.39851903340E+02 -0.90933742442E+02  0.12063896232E+04  0.12104681089E+04  0.00000000000E+00 0. -1.
         22    1    3    3    0    0 -0.66631993940E+02  0.36908733631E+02  0.49501156541E+02  0.90842950929E+02  0.00000000000E+00 0. -1.
         22    1    3    3    0    0  0.19804439368E+02  0.18981064512E+02 -0.46389184896E+02  0.53892978244E+02  0.00000000000E+00 0. -1.
</event>
<event>
 7    1  0.6105960E-006  0.7600753E+02  0.7818608E-02  0.1429086E+00
          2   -1    0    0  502    0  0.00000000000E+00  0.00000000000E+00  0.10880343080E+04  0.10880343080E+04  0.00000000000E+00 0. -1.
          1   -1    0    0  501    0 -0.00000000000E+00 -0.00000000000E+00 -0.25793302166E+03  0.25793302166E+03  0.00000000000E+00 0. -1.
         25    2    1    2    0    0 -0.20486600925E+02  0.47953140970E+02  0.32122469841E+03  0.34860906947E+03  0.12499508752E+03 0.  0.
          2    1    1    2  501    0  0.18395606714E+02  0.32284838231E+02 -0.24067239309E+03  0.24352394117E+03  0.00000000000E+00 0. -1.
          1    1    1    2  502    0  0.20909942116E+01 -0.80237979201E+02  0.74954898102E+03  0.75383431900E+03  0.00000000000E+00 0. -1.
         22    1    3    3    0    0 -0.43444692091E+02  0.70959075577E+02  0.29598885415E+03  0.30746062099E+03  0.00000000000E+00 0.  1.
         22    1    3    3    0    0  0.22958091166E+02 -0.23005934607E+02  0.25235844257E+02  0.41148448482E+02  0.00000000000E+00 0.  1.
</event>
<event>
 7    1  0.6105960E-006  0.9816490E+02  0.7818608E-02  0.1414422E+00
          2   -1    0    0  502    0  0.00000000000E+00  0.00000000000E+00  0.43836612533E+03  0.43836612533E+03  0.00000000000E+00 0. -1.
          1   -1    0    0  501    0 -0.00000000000E+00 -0.00000000000E+00 -0.80895966723E+03  0.80895966723E+03  0.00000000000E+00 0. -1.
         25    2    1    2    0    0  0.75533701695E+02 -0.24515255517E+02  0.17702558034E+03  0.23080168054E+03  0.12500008720E+03 0.  0.
          2    1    1    2  501    0  0.30614332000E+02  0.99676083535E+01 -0.76947711880E+03  0.77015039238E+03  0.00000000000E+00 0. -1.
          1    1    1    2  502    0 -0.10614803370E+03  0.14547647163E+02  0.22185799655E+03  0.24637371964E+03  0.00000000000E+00 0. -1.
         22    1    3    3    0    0  0.74530872849E+02  0.11967258042E+02  0.17898622441E+03  0.19425276008E+03  0.00000000000E+00 0. -1.
         22    1    3    3    0    0  0.10028288457E+01 -0.36482513559E+02 -0.19606440668E+01  0.36548920455E+02  0.00000000000E+00 0. -1.
</event>
<event>
 7    1  0.6105960E-006  0.1422173E+03  0.7818608E-02  0.1314149E+00
          2   -1    0    0  502    0  0.00000000000E+00  0.00000000000E+00  0.89500518862E+03  0.89500518862E+03  0.00000000000E+00 0. -1.
          1   -1    0    0  501    0 -0.00000000000E+00 -0.00000000000E+00 -0.42738958525E+03  0.42738958525E+03  0.00000000000E+00 0. -1.
         25    2    1    2    0    0  0.11781515203E+03  0.60456211483E+02 -0.19104978268E+03  0.26393173678E+03  0.12499831464E+03 0.  0.
          2    1    1    2  501    0 -0.22833465870E+02  0.46042562689E+02 -0.19054102326E+03  0.19735036430E+03  0.00000000000E+00 0. -1.
          1    1    1    2  502    0 -0.94981686156E+02 -0.10649877417E+03  0.84920640932E+03  0.86111267278E+03  0.00000000000E+00 0. -1.
         22    1    3    3    0    0  0.11937900867E+03  0.12387442731E+02 -0.17695015144E+03  0.21381335913E+03  0.00000000000E+00 0. -1.
         22    1    3    3    0    0 -0.15638566433E+01  0.48068768752E+02 -0.14099631242E+02  0.50118377648E+02  0.00000000000E+00 0. -1.
</event>
<event>
 7    1  0.6105960E-006  0.5630541E+02  0.7818608E-02  0.1475514E+00
          2   -1    0    0  502    0  0.00000000000E+00  0.00000000000E+00  0.31062453626E+03  0.31062453626E+03  0.00000000000E+00 0. -1.
          1   -1    0    0  501    0 -0.00000000000E+00 -0.00000000000E+00 -0.11382030057E+04  0.11382030057E+04  0.00000000000E+00 0. -1.
         25    2    1    2    0    0 -0.85181901366E+02 -0.12435368520E+02 -0.83250719279E+02  0.17310702749E+03  0.12499906398E+03 0.  0.
          2    1    1    2  501    0  0.29924349545E+02  0.19405745619E+02 -0.10067861603E+04  0.10074177000E+04  0.00000000000E+00 0. -1.
          1    1    1    2  502    0  0.55257551822E+02 -0.69703770988E+01  0.26245841016E+03  0.26830281447E+03  0.00000000000E+00 0. -1.
         22    1    3    3    0    0 -0.10402154975E+03 -0.12432417294E+02 -0.19410392640E+02  0.10654487860E+03  0.00000000000E+00 0. -1.
         22    1    3    3    0    0  0.18839648386E+02 -0.29512260999E-02 -0.63840326639E+02  0.66562148894E+02  0.00000000000E+00 0. -1.
</event>
<event>
 7    1  0.6105960E-006  0.2110061E+03  0.7818608E-02  0.1349166E+00
          2   -1    0    0  502    0  0.00000000000E+00  0.00000000000E+00  0.74055825366E+03  0.74055825366E+03  0.00000000000E+00 0. -1.
          1   -1    0    0  501    0 -0.00000000000E+00 -0.00000000000E+00 -0.58275030203E+03  0.58275030203E+03  0.00000000000E+00 0. -1.
         25    2    1    2    0    0 -0.98015991253E+02  0.20571848534E+03  0.20686464097E+03  0.33218233691E+03  0.12499958208E+03 0.  0.
          2    1    1    2  501    0  0.19653236046E+02 -0.16208072233E+02 -0.49742956375E+03  0.49808144132E+03  0.00000000000E+00 0. -1.
          1    1    1    2  502    0  0.78362755206E+02 -0.18951041311E+03  0.44837287441E+03  0.49304477746E+03  0.00000000000E+00 0. -1.
         22    1    3    3    0    0 -0.28974710886E+02  0.15134563024E+03  0.18658854454E+03  0.24199239372E+03  0.00000000000E+00 0.  1.
         22    1    3    3    0    0 -0.69041280367E+02  0.54372855103E+02  0.20276096426E+02  0.90189943192E+02  0.00000000000E+00 0.  1.
</event>
<event>
 7    1  0.6105960E-006  0.5781424E+02  0.7818608E-02  0.1531439E+00
          2   -1    0    0  502    0  0.00000000000E+00  0.00000000000E+00  0.39784674810E+03  0.39784674810E+03  0.00000000000E+00 0. -1.
          1   -1    0    0  501    0 -0.00000000000E+00 -0.00000000000E+00 -0.35151569666E+03  0.35151569666E+03  0.00000000000E+00 0. -1.
         25    2    1    2    0    0 -0.22694421613E+02 -0.59926267767E+02 -0.26336691312E+03  0.29848602572E+03  0.12500232911E+03 0.  0.
          2    1    1    2  501    0 -0.58220740614E+00  0.55505283050E+02 -0.59237832962E+02  0.81180639723E+02  0.00000000000E+00 0. -1.
          1    1    1    2  502    0  0.23276629019E+02  0.44209847172E+01  0.36893579751E+03  0.36969577932E+03  0.00000000000E+00 0. -1.
         22    1    3    3    0    0 -0.66507899514E+02 -0.35207170872E+01 -0.99528107763E+02  0.11975617054E+03  0.00000000000E+00 0.  1.
         22    1    3    3    0    0  0.43813477901E+02 -0.56405550680E+02 -0.16383880535E+03  0.17872985518E+03  0.00000000000E+00 0.  1.
</event>
<event>
 7    1  0.6105960E-006  0.4538801E+02  0.7818608E-02  0.1539555E+00
          2   -1    0    0  502    0  0.00000000000E+00  0.00000000000E+00  0.56431376285E+03  0.56431376285E+03  0.00000000000E+00 0. -1.
          1   -1    0    0  501    0 -0.00000000000E+00 -0.00000000000E+00 -0.18843802737E+03  0.18843802737E+03  0.00000000000E+00 0. -1.
         25    2    1    2    0    0  0.17985064395E+02  0.47502219087E+01  0.33686537480E+02  0.13078438513E+03  0.12499498165E+03 0.  0.
          2    1    1    2  501    0  0.28014081791E+02 -0.58437210071E+01 -0.13731266056E+03  0.14026298373E+03  0.00000000000E+00 0. -1.
          1    1    1    2  502    0 -0.45999146186E+02  0.10934990984E+01  0.47950185857E+03  0.48170442136E+03  0.00000000000E+00 0. -1.
         22    1    3    3    0    0  0.80459065096E+01 -0.18595865798E+02 -0.44332289935E+02  0.48743150978E+02  0.00000000000E+00 0.  1.
         22    1    3    3    0    0  0.99391578853E+01  0.23346087707E+02  0.78018827415E+02  0.82041234156E+02  0.00000000000E+00 0.  1.
</event>
<event>
 7    1  0.6105960E-006  0.5004884E+02  0.7818608E-02  0.1474545E+00
          2   -1    0    0  502    0  0.00000000000E+00  0.00000000000E+00  0.30431239770E+04  0.30431239770E+04  0.00000000000E+00 0. -1.
          1   -1    0    0  501    0 -0.00000000000E+00 -0.00000000000E+00 -0.13895229527E+03  0.13895229527E+03  0.00000000000E+00 0. -1.
         25    2    1    2    0    0 -0.34196334433E+02 -0.12324436740E+02  0.42875165149E+03  0.44807694747E+03  0.12499476455E+03 0.  0.
          2    1    1    2  501    0  0.15235826893E+02  0.48000947716E+02 -0.12422257438E+03  0.13404278939E+03  0.00000000000E+00 0. -1.
          1    1    1    2  502    0  0.18960507540E+02 -0.35676510976E+02  0.25996426046E+04  0.25999565354E+04  0.00000000000E+00 0. -1.
         22    1    3    3    0    0  0.25448124846E+02  0.39428260114E+02  0.21855829361E+03  0.22353953220E+03  0.00000000000E+00 0. -1.
         22    1    3    3    0    0 -0.59644459279E+02 -0.51752696854E+02  0.21019335789E+03  0.22453741527E+03  0.00000000000E+00 0. -1.
</event>
<event>
 7    1  0.6105960E-006  0.9061545E+02  0.7818608E-02  0.1335225E+00
          2   -1    0    0  502    0  0.00000000000E+00  0.00000000000E+00  0.59325760856E+03  0.59325760856E+03  0.00000000000E+00 0. -1.
          1   -1    0    0  501    0 -0.00000000000E+00 -0.00000000000E+00 -0.32801552600E+04  0.32801552600E+04  0.00000000000E+00 0. -1.
         25    2    1    2    0    0  0.13996509311E+03  0.57270003329E+02 -0.16722337964E+04  0.16837050627E+04  0.12500715126E+03 0.  0.
          2    1    1    2  501    0 -0.50453387263E+02 -0.43942514813E+02 -0.15979966895E+04  0.15993967327E+04  0.00000000000E+00 0. -1.
          1    1    1    2  502    0 -0.89511705844E+02 -0.13327488515E+02  0.58333283441E+03  0.59031107320E+03  0.00000000000E+00 0. -1.
         22    1    3    3    0    0 -0.22298381854E+02 -0.41960286634E+01 -0.19534420924E+03  0.19665753119E+03  0.00000000000E+00 0.  1.
         22    1    3    3    0    0  0.16226347496E+03  0.61466031992E+02 -0.14768895871E+04  0.14870475315E+04  0.00000000000E+00 0.  1.
</event>
<event>
 7    1  0.6105960E-006  0.1188074E+03  0.7818608E-02  0.1284791E+00
          2   -1    0    0  502    0  0.00000000000E+00  0.00000000000E+00  0.28115680206E+04  0.28115680206E+04  0.00000000000E+00 0. -1.
          1   -1    0    0  501    0 -0.00000000000E+00 -0.00000000000E+00 -0.31009347140E+03  0.31009347140E+03  0.00000000000E+00 0. -1.
         25    2    1    2    0    0  0.49903178073E+02  0.17908216079E+03  0.52885170947E+03  0.57434338474E+03  0.12500178195E+03 0.  0.
          2    1    1    2  501    0  0.21730442611E+01 -0.11748653848E+03 -0.27458060062E+03  0.29866756617E+03  0.00000000000E+00 0. -1.
          1    1    1    2  502    0 -0.52076222334E+02 -0.61595622309E+02  0.22472034404E+04  0.22486505411E+04  0.00000000000E+00 0. -1.
         22    1    3    3    0    0  0.12064625893E+02  0.18517360631E+03  0.43072505880E+03  0.46899775687E+03  0.00000000000E+00 0. -1.
         22    1    3    3    0    0  0.37838552180E+02 -0.60914455188E+01  0.98126650673E+02  0.10534562787E+03  0.00000000000E+00 0. -1.
</event>
<event>
 7    1  0.6105960E-006  0.6202648E+02  0.7818608E-02  0.1406357E+00
          2   -1    0    0  502    0  0.00000000000E+00  0.00000000000E+00  0.37698005043E+03  0.37698005043E+03  0.00000000000E+00 0. -1.
          1   -1    0    0  501    0 -0.00000000000E+00 -0.00000000000E+00 -0.20693069266E+03  0.20693069266E+03  0.00000000000E+00 0. -1.
         25    2    1    2    0    0 -0.64786586167E+02  0.73580358662E+02  0.21844029612E+02  0.16033646077E+03  0.12497699026E+03 0.  0.
          2    1    1    2  501    0  0.12552691182E+02 -0.58882309686E+02 -0.12833778939E+03  0.14175783800E+03  0.00000000000E+00 0. -1.
          1    1    1    2  502    0  0.52233894984E+02 -0.14698048976E+02  0.27654311754E+03  0.28181644432E+03  0.00000000000E+00 0. -1.
         22    1    3    3    0    0 -0.79410722803E+01 -0.20196136129E+02 -0.31609297798E+02  0.38341782050E+02  0.00000000000E+00 0. -1.
         22    1    3    3    0    0 -0.56845513886E+02  0.93776494790E+02  0.53453327410E+02  0.12199467872E+03  0.00000000000E+00 0. -1.
</event>
<event>
 7    1  0.6105960E-006  0.8726065E+02  0.7818608E-02  0.1379296E+00
          2   -1    0    0  502    0  0.00000000000E+00  0.00000000000E+00  0.86552975367E+03  0.86552975367E+03  0.00000000000E+00 0. -1.
          1   -1    0    0  501    0 -0.00000000000E+00 -0.00000000000E+00 -0.11245939254E+03  0.11245939254E+03  0.00000000000E+00 0. -1.
         25    2    1    2    0    0  0.31639792123E+02  0.30369657712E+02  0.10097057549E+03  0.16656310455E+03  0.12499927251E+03 0.  0.
          2    1    1    2  501    0  0.41514225863E+02  0.23888750299E+02 -0.69332031365E+02  0.84267632653E+02  0.00000000000E+00 0. -1.
          1    1    1    2  502    0 -0.73154017986E+02 -0.54258408011E+02  0.72143181702E+03  0.72715840901E+03  0.00000000000E+00 0. -1.
         22    1    3    3    0    0  0.26671434827E+02  0.15869735683E+02 -0.24883307955E+02  0.39779303176E+02  0.00000000000E+00 0. -1.
         22    1    3    3    0    0  0.49683572960E+01  0.14499922028E+02  0.12585388344E+03  0.12678380137E+03  0.00000000000E+00 0. -1.
</event>
<event>
 7    1  0.6105960E-006  0.1119444E+03  0.7818608E-02  0.1362899E+00
          2   -1    0    0  502    0  0.00000000000E+00  0.00000000000E+00  0.10366855491E+04  0.10366855491E+04  0.00000000000E+00 0. -1.
          1   -1    0    0  501    0 -0.00000000000E+00 -0.00000000000E+00 -0.46080142166E+03  0.46080142166E+03  0.00000000000E+00 0. -1.
         25    2    1    2    0    0  0.24761967692E+01  0.14378768801E+03  0.45003143086E+03  0.48870612919E+03  0.12499744466E+03 0.  0.
          2    1    1    2  501    0 -0.14513465806E+02 -0.40215034419E+02 -0.43561765244E+03  0.43771066790E+03  0.00000000000E+00 0. -1.
          1    1    1    2  502    0  0.12037269036E+02 -0.10357265359E+03  0.56147034899E+03  0.57107017363E+03  0.00000000000E+00 0. -1.
         22    1    3    3    0    0  0.35466696737E+02  0.13128966531E+03  0.24104205299E+03  0.27676006595E+03  0.00000000000E+00 0.  1.
         22    1    3    3    0    0 -0.32990499967E+02  0.12498022693E+02  0.20898937788E+03  0.21194606324E+03  0.00000000000E+00 0.  1.
</event>
<event>
 7    1  0.6105960E-006  0.1024385E+03  0.7818608E-02  0.1358338E+00
          2   -1    0    0  502    0  0.00000000000E+00  0.00000000000E+00  0.16954063052E+03  0.16954063052E+03  0.00000000000E+00 0. -1.
          1   -1    0    0  501    0 -0.00000000000E+00 -0.00000000000E+00 -0.30758490968E+03  0.30758490968E+03  0.00000000000E+00 0. -1.
         25    2    1    2    0    0  0.15887492951E+02  0.69723058425E+02 -0.61047911855E+02  0.15641594306E+03  0.12500152956E+03 0.  0.
          2    1    1    2  501    0 -0.27131023776E+02  0.40255987347E+02 -0.16965377657E+03  0.17646257641E+03  0.00000000000E+00 0. -1.
          1    1    1    2  502    0  0.11243530826E+02 -0.10997904577E+03  0.92657409269E+02  0.14424702072E+03  0.00000000000E+00 0. -1.
         22    1    3    3    0    0 -0.20752298549E+00 -0.15522889617E+02 -0.67654399020E+02  0.69412685257E+02  0.00000000000E+00 0.  1.
         22    1    3    3    0    0  0.16095015936E+02  0.85245948042E+02  0.66064871657E+01  0.87003257802E+02  0.00000000000E+00 0.  1.
</event>
<event>
 7    1  0.6105960E-006  0.1198126E+03  0.7818608E-02  0.1418604E+00
          2   -1    0    0  502    0  0.00000000000E+00  0.00000000000E+00  0.14030347603E+04  0.14030347603E+04  0.00000000000E+00 0. -1.
          1   -1    0    0  501    0 -0.00000000000E+00 -0.00000000000E+00 -0.84121794203E+03  0.84121794203E+03  0.00000000000E+00 0. -1.
         25    2    1    2    0    0  0.72537224005E+02  0.11537151989E+03  0.20057279761E+03  0.27281808601E+03  0.12501209718E+03 0.  0.
          2    1    1    2  501    0 -0.24573275994E+02 -0.69603108417E+01 -0.80187914464E+03  0.80228576856E+03  0.00000000000E+00 0. -1.
          1    1    1    2  502    0 -0.47963948010E+02 -0.10841120905E+03  0.11631231654E+04  0.11691488478E+04  0.00000000000E+00 0. -1.
         22    1    3    3    0    0 -0.93767729911E+01  0.77030198326E+02  0.37140017446E+02  0.86028810417E+02  0.00000000000E+00 0. -1.
         22    1    3    3    0    0  0.81913996996E+02  0.38341321569E+02  0.16343278017E+03  0.18678927559E+03  0.00000000000E+00 0. -1.
</event>
<event>
 7    1  0.6105960E-006  0.4733842E+02  0.7818608E-02  0.1488419E+00
          2   -1    0    0  502    0  0.00000000000E+00  0.00000000000E+00  0.22324605083E+04  0.22324605083E+04  0.00000000000E+00 0. -1.
          1   -1    0    0  501    0 -0.00000000000E+00 -0.00000000000E+00 -0.12467927549E+04  0.12467927549E+04  0.00000000000E+00 0. -1.
         25    2    1    2    0    0 -0.47810641483E+02 -0.65969742977E+01  0.82898924824E+03  0.83974834296E+03  0.12499891321E+03 0.  0.
          2    1    1    2  501    0  0.20121880474E+02 -0.33099133297E+02 -0.12406919854E+04  0.12412965179E+04  0.00000000000E+00 0. -1.
          1    1    1    2  502    0  0.27688761008E+02  0.39696107595E+02  0.13973704905E+04  0.13982084023E+04  0.00000000000E+00 0. -1.
         22    1    3    3    0    0 -0.68239608250E+02 -0.50569441841E+02  0.48947349000E+03  0.49678789236E+03  0.00000000000E+00 0.  1.
         22    1    3    3    0    0  0.20428966767E+02  0.43972467543E+02  0.33951575824E+03  0.34296045060E+03  0.00000000000E+00 0.  1.
</event>
<event>
 7    1  0.6105960E-006  0.1547267E+03  0.7818608E-02  0.1317622E+00
          2   -1    0    0  502    0  0.00000000000E+00  0.00000000000E+00  0.32593296181E+03  0.32593296181E+03  0.00000000000E+00 0. -1.
          1   -1    0    0  501    0 -0.00000000000E+00 -0.00000000000E+00 -0.93494702441E+03  0.93494702441E+03  0.00000000000E+00 0. -1.
         25    2    1    2    0    0 -0.10318360776E+03 -0.62748736316E+02 -0.22393249987E+03  0.28346434037E+03  0.12498802721E+03 0.  0.
          2    1    1    2  501    0 -0.44966003064E+02  0.86264120135E+01 -0.65939874386E+03  0.66098642938E+03  0.00000000000E+00 0. -1.
          1    1    1    2  502    0  0.14814961082E+03  0.54122324302E+02  0.27431718113E+03  0.31642921647E+03  0.00000000000E+00 0. -1.
         22    1    3    3    0    0 -0.11742267758E+03 -0.85975147428E+02 -0.17647280572E+03  0.22874103774E+03  0.00000000000E+00 0. -1.
         22    1    3    3    0    0  0.14239069825E+02  0.23226411112E+02 -0.47459694143E+02  0.54723302630E+02  0.00000000000E+00 0. -1.
</event>
<event>
 7    1  0.6105960E-006  0.4358955E+02  0.7818608E-02  0.1591724E+00
          2   -1    0    0  502    0  0.00000000000E+00  0.00000000000E+00  0.43332473431E+03  0.43332473431E+03  0.00000000000E+00 0. -1.
          1   -1    0    0  501    0 -0.00000000000E+00 -0.00000000000E+00 -0.11539674233E+04  0.11539674233E+04  0.00000000000E+00 0. -1.
         25    2    1    2    0    0  0.20853393139E+02  0.12980241715E+02 -0.52854887179E+03  0.54368459547E+03  0.12500271519E+03 0.  0.
          2    1    1    2  501    0 -0.36082992613E+02 -0.28097344142E+02 -0.61673314045E+03  0.61842639791E+03  0.00000000000E+00 0. -1.
          1    1    1    2  502    0  0.15229599475E+02  0.15117102427E+02  0.42463932329E+03  0.42518116418E+03  0.00000000000E+00 0. -1.
         22    1    3    3    0    0 -0.51105314971E+01 -0.16453869307E+02 -0.48402218969E+03  0.48432873904E+03  0.00000000000E+00 0.  1.
         22    1    3    3    0    0  0.25963924636E+02  0.29434111022E+02 -0.44526682096E+02  0.59355856431E+02  0.00000000000E+00 0.  1.
</event>
<event>
 7    1  0.6105960E-006  0.7697659E+03  0.7818608E-02  0.1080002E+00
          2   -1    0    0  502    0  0.00000000000E+00  0.00000000000E+00  0.10762598081E+04  0.10762598081E+04  0.00000000000E+00 0. -1.
          1   -1    0    0  501    0 -0.00000000000E+00 -0.00000000000E+00 -0.17612533064E+04  0.17612533064E+04  0.00000000000E+00 0. -1.
         25    2    1    2    0    0  0.73350171558E+03 -0.29147367070E+03 -0.52070485930E+03  0.95380237216E+03  0.12499498854E+03 0.  0.
          2    1    1    2  501    0 -0.74408872755E+02 -0.10096599004E+03 -0.84735242315E+03  0.85658446198E+03  0.00000000000E+00 0. -1.
          1    1    1    2  502    0 -0.65909284283E+03  0.39243966073E+03  0.68306378412E+03  0.10271262804E+04  0.00000000000E+00 0. -1.
         22    1    3    3    0    0  0.14000876784E+03 -0.85925124229E+02 -0.60063172650E+02  0.17490902423E+03  0.00000000000E+00 0. -1.
         22    1    3    3    0    0  0.59349294774E+03 -0.20554854647E+03 -0.46064168665E+03  0.77889334793E+03  0.00000000000E+00 0. -1.
</event>
<event>
 7    1  0.6105960E-006  0.7335355E+02  0.7818608E-02  0.1478421E+00
          2   -1    0    0  502    0  0.00000000000E+00  0.00000000000E+00  0.85591515720E+03  0.85591515720E+03  0.00000000000E+00 0. -1.
          1   -1    0    0  501    0 -0.00000000000E+00 -0.00000000000E+00 -0.24559032170E+03  0.24559032170E+03  0.00000000000E+00 0. -1.
         25    2    1    2    0    0  0.62572627444E+02  0.18347797156E+02  0.31238898408E+03  0.34273903490E+03  0.12502477076E+03 0.  0.
          2    1    1    2  501    0 -0.58343411092E+02 -0.44830230957E+02 -0.22418851801E+03  0.23595379809E+03  0.00000000000E+00 0. -1.
          1    1    1    2  502    0 -0.42292163512E+01  0.26482433801E+02  0.52212436943E+03  0.52281264591E+03  0.00000000000E+00 0. -1.
         22    1    3    3    0    0  0.81881643615E+02  0.40210014525E+02  0.13476561782E+03  0.16273666021E+03  0.00000000000E+00 0. -1.
         22    1    3    3    0    0 -0.19309016171E+02 -0.21862217369E+02  0.17762336626E+03  0.18000237469E+03  0.00000000000E+00 0. -1.
</event>
<event>
 7    1  0.6105960E-006  0.1471223E+03  0.7818608E-02  0.1213821E+00
          2   -1    0    0  502    0  0.00000000000E+00  0.00000000000E+00  0.12991560139E+04  0.12991560139E+04  0.00000000000E+00 0. -1.
          1   -1    0    0  501    0 -0.00000000000E+00 -0.00000000000E+00 -0.81943750526E+03  0.81943750526E+03  0.00000000000E+00 0. -1.
         25    2    1    2    0    0  0.17949428627E+03 -0.35309540558E+02  0.12609994112E+02  0.22192141361E+03  0.12500055764E+03 0.  0.
          2    1    1    2  501    0 -0.81043408090E+02  0.12403065065E+03 -0.70332401653E+03  0.71876025803E+03  0.00000000000E+00 0. -1.
          1    1    1    2  502    0 -0.98450878176E+02 -0.88721110093E+02  0.11704325310E+04  0.11779118475E+04  0.00000000000E+00 0. -1.
         22    1    3    3    0    0  0.17374238210E+03 -0.63506606335E+02  0.31289556878E+02  0.18761274145E+03  0.00000000000E+00 0.  1.
         22    1    3    3    0    0  0.57519041677E+01  0.28197065776E+02 -0.18679562766E+02  0.34308672156E+02  0.00000000000E+00 0.  1.
</event>
<event>
 7    1  0.6105960E-006  0.4681435E+02  0.7818608E-02  0.1530638E+00
          2   -1    0    0  502    0  0.00000000000E+00  0.00000000000E+00  0.13042651372E+04  0.13042651372E+04  0.00000000000E+00 0. -1.
          1   -1    0    0  501    0 -0.00000000000E+00 -0.00000000000E+00 -0.52894160353E+03  0.52894160353E+03  0.00000000000E+00 0. -1.
         25    2    1    2    0    0 -0.65395591679E+02  0.19681111245E+02 -0.64664302741E+02  0.15642357959E+03  0.12499173833E+03 0.  0.
          2    1    1    2  501    0  0.46249040523E+02  0.26488189033E+01 -0.41694280232E+03  0.41950839133E+03  0.00000000000E+00 0. -1.
          1    1    1    2  502    0  0.19146551157E+02 -0.22329930149E+02  0.12569306387E+04  0.12572747698E+04  0.00000000000E+00 0. -1.
         22    1    3    3    0    0 -0.69935457548E+02  0.58395797697E+02 -0.72776876534E+02  0.11660836663E+03  0.00000000000E+00 0.  1.
         22    1    3    3    0    0  0.45398658682E+01 -0.38714686452E+02  0.81125737933E+01  0.39815212956E+02  0.00000000000E+00 0.  1.
</event>
<event>
 7    1  0.6105960E-006  0.7361685E+02  0.7818608E-02  0.1387547E+00
          2   -1    0    0  502    0  0.00000000000E+00  0.00000000000E+00  0.11576331967E+04  0.11576331967E+04  0.00000000000E+00 0. -1.
          1   -1    0    0  501    0 -0.00000000000E+00 -0.00000000000E+00 -0.26484545411E+03  0.26484545411E+03  0.00000000000E+00 0. -1.
         25    2    1    2    0    0 -0.79451040321E+02  0.36773267268E+02 -0.58650025750E+02  0.16348829215E+03  0.12499542055E+03 0.  0.
          2    1    1    2  501    0  0.34600346116E+02 -0.65194051338E+02 -0.14424008304E+03  0.16202669483E+03  0.00000000000E+00 0. -1.
          1    1    1    2  502    0  0.44850694204E+02  0.28420784070E+02  0.10956778514E+04  0.10969636638E+04  0.00000000000E+00 0. -1.
         22    1    3    3    0    0 -0.36947048115E+02  0.12934853871E+01 -0.91794506823E+02  0.98959531890E+02  0.00000000000E+00 0. -1.
         22    1    3    3    0    0 -0.42503992206E+02  0.35479781881E+02  0.33144481073E+02  0.64528760265E+02  0.00000000000E+00 0. -1.
</event>
<event>
 7    1  0.6105960E-006  0.4250713E+02  0.7818608E-02  0.1567850E+00
          2   -1    0    0  502    0  0.00000000000E+00  0.00000000000E+00  0.10634778460E+03  0.10634778460E+03  0.00000000000E+00 0. -1.
          1   -1    0    0  501    0 -0.00000000000E+00 -0.00000000000E+00 -0.15595194098E+04  0.15595194098E+04  0.00000000000E+00 0. -1.
         25    2    1    2    0    0 -0.23128599822E+02 -0.39737837923E+01 -0.91529275986E+02  0.15669473815E+03  0.12499963805E+03 0.  0.
          2    1    1    2  501    0  0.39923884306E+02 -0.15215417307E+02 -0.14328754478E+04  0.14335122861E+04  0.00000000000E+00 0. -1.
          1    1    1    2  502    0 -0.16795284484E+02  0.19189201099E+02  0.71233098568E+02  0.75660170177E+02  0.00000000000E+00 0. -1.
         22    1    3    3    0    0 -0.22500100123E+02 -0.47569786721E-02  0.28660766628E+02  0.36437536578E+02  0.00000000000E+00 0. -1.
         22    1    3    3    0    0 -0.62849969946E+00 -0.39690268136E+01 -0.12019004261E+03  0.12025720157E+03  0.00000000000E+00 0. -1.
</event>
<event>
 7    1  0.6105960E-006  0.6525428E+02  0.7818608E-02  0.1494007E+00
          2   -1    0    0  502    0  0.00000000000E+00  0.00000000000E+00  0.13900927670E+04  0.13900927670E+04  0.00000000000E+00 0. -1.
          1   -1    0    0  501    0 -0.00000000000E+00 -0.00000000000E+00 -0.11804344731E+03  0.11804344731E+03  0.00000000000E+00 0. -1.
         25    2    1    2    0    0 -0.60769960934E+02 -0.67519191779E+02  0.24793824172E+03  0.29214695351E+03  0.12499856531E+03 0.  0.
          2    1    1    2  501    0  0.15066361712E+02  0.22440743214E+02 -0.93095484423E+02  0.96939937235E+02  0.00000000000E+00 0. -1.
          1    1    1    2  502    0  0.45703599222E+02  0.45078448565E+02  0.11172065624E+04  0.11190493236E+04  0.00000000000E+00 0. -1.
         22    1    3    3    0    0 -0.39898554556E+02  0.20274129145E+02  0.16001503977E+03  0.16615579413E+03  0.00000000000E+00 0.  1.
         22    1    3    3    0    0 -0.20871406378E+02 -0.87793320924E+02  0.87923201946E+02  0.12599115939E+03  0.00000000000E+00 0.  1.
</event>
<event>
 7    1  0.6105960E-006  0.1883135E+03  0.7818608E-02  0.1177715E+00
          2   -1    0    0  502    0  0.00000000000E+00  0.00000000000E+00  0.97144548842E+03  0.97144548842E+03  0.00000000000E+00 0. -1.
          1   -1    0    0  501    0 -0.00000000000E+00 -0.00000000000E+00 -0.10056821748E+04  0.10056821748E+04  0.00000000000E+00 0. -1.
         25    2    1    2    0    0  0.15697349742E+03  0.80390223838E+02  0.30517536484E+02  0.21831872749E+03  0.12501391825E+03 0.  0.
          2    1    1    2  501    0 -0.10765292529E+03  0.10969848233E+03 -0.89375025995E+03  0.90686958076E+03  0.00000000000E+00 0. -1.
          1    1    1    2  502    0 -0.49320572130E+02 -0.19008870617E+03  0.82899603709E+03  0.85193935498E+03  0.00000000000E+00 0. -1.
         22    1    3    3    0    0  0.35691136480E+02  0.71942155215E+02 -0.25773162822E+02  0.84343267912E+02  0.00000000000E+00 0.  1.
         22    1    3    3    0    0  0.12128236095E+03  0.84480686224E+01  0.56290699305E+02  0.13397545957E+03  0.00000000000E+00 0.  1.
</event>
<event>
 7    1  0.6105960E-006  0.7739723E+02  0.7818608E-02  0.1510827E+00
          2   -1    0    0  502    0  0.00000000000E+00  0.00000000000E+00  0.47227988550E+03  0.47227988550E+03  0.00000000000E+00 0. -1.
          1   -1    0    0  501    0 -0.00000000000E+00 -0.00000000000E+00 -0.17033745129E+04  0.17033745129E+04  0.00000000000E+00 0. -1.
         25    2    1    2    0    0  0.91836068459E+02 -0.76729438527E+01  0.30405723574E+03  0.34141761575E+03  0.12498979237E+03 0.  0.
          2    1    1    2  501    0 -0.74987375715E+02  0.19012311496E+02 -0.16831122197E+04  0.16848891117E+04  0.00000000000E+00 0. -1.
          1    1    1    2  502    0 -0.16848692744E+02 -0.11339367644E+02  0.14796035657E+03  0.14934767097E+03  0.00000000000E+00 0. -1.
         22    1    3    3    0    0  0.34594336092E+02 -0.31386423223E+02  0.20224589291E+02  0.50900979012E+02  0.00000000000E+00 0.  1.
         22    1    3    3    0    0  0.57241732367E+02  0.23713479370E+02  0.28383264645E+03  0.29051663674E+03  0.00000000000E+00 0.  1.
</event>
<event>
 7    1  0.6105960E-006  0.9149996E+02  0.7818608E-02  0.1353782E+00
          2   -1    0    0  502    0  0.00000000000E+00  0.00000000000E+00  0.26435282075E+04  0.26435282075E+04  0.00000000000E+00 0. -1.
          1   -1    0    0  501    0 -0.00000000000E+00 -0.00000000000E+00 -0.21448839596E+03  0.21448839596E+03  0.00000000000E+00 0. -1.
         25    2    1    2    0    0 -0.48119853374E+02  0.61707005102E+02  0.29044401655E+03  0.32573742203E+03  0.12499546628E+03 0.  0.
          2    1    1    2  501    0 -0.41806756799E+02 -0.37980002463E+02 -0.19184312588E+03  0.19998517557E+03  0.00000000000E+00 0. -1.
          1    1    1    2  502    0  0.89926610173E+02 -0.23727002639E+02  0.23304389208E+04  0.23322940058E+04  0.00000000000E+00 0. -1.
         22    1    3    3    0    0 -0.21996379703E+02  0.15349263179E+02  0.26570625491E+03  0.26705665036E+03  0.00000000000E+00 0.  1.
         22    1    3    3    0    0 -0.26123473671E+02  0.46357741923E+02  0.24737761635E+02  0.58680771668E+02  0.00000000000E+00 0.  1.
</event>
<event>
 7    1  0.6105960E-006  0.1565205E+03  0.7818608E-02  0.1251772E+00
          2   -1    0    0  502    0  0.00000000000E+00  0.00000000000E+00  0.17019199621E+04  0.17019199621E+04  0.00000000000E+00 0. -1.
          1   -1    0    0  501    0 -0.00000000000E+00 -0.00000000000E+00 -0.45587475876E+03  0.45587475876E+03  0.00000000000E+00 0. -1.
         25    2    1    2    0    0 -0.22983650539E+03 -0.32189452345E+02 -0.60462895820E+01  0.26367304226E+03  0.12500374212E+03 0.  0.
          2    1    1    2  501    0  0.75450334203E+02  0.37674762179E+02 -0.31160359668E+03  0.32281409836E+03  0.00000000000E+00 0. -1.
          1    1    1    2  502    0  0.15438617119E+03 -0.54853098343E+01  0.15636950896E+04  0.15713075802E+04  0.00000000000E+00 0. -1.
         22    1    3    3    0    0 -0.24424714022E+03 -0.36321939859E+02  0.13935134521E+01  0.24693701768E+03  0.00000000000E+00 0.  1.
         22    1    3    3    0    0  0.14410634834E+02  0.41324875142E+01 -0.74398030340E+01  0.16736024574E+02  0.00000000000E+00 0.  1.
</event>
<event>
 7    1  0.6105960E-006  0.6885783E+02  0.7818608E-02  0.1398305E+00
          2   -1    0    0  502    0  0.00000000000E+00  0.00000000000E+00  0.16522345318E+04  0.16522345318E+04  0.00000000000E+00 0. -1.
          1   -1    0    0  501    0 -0.00000000000E+00 -0.00000000000E+00 -0.57842957749E+02  0.57842957749E+02  0.00000000000E+00 0. -1.
         25    2    1    2    0    0  0.85998169421E+02 -0.19081288811E+02  0.70603647151E+03  0.72240733170E+03  0.12500029226E+03 0.  0.
          2    1    1    2  501    0 -0.62963743901E+02 -0.27633823859E+02 -0.24750869228E+02  0.73079865864E+02  0.00000000000E+00 0. -1.
          1    1    1    2  502    0 -0.23034425520E+02  0.46715112670E+02  0.91310597182E+03  0.91459029203E+03  0.00000000000E+00 0. -1.
         22    1    3    3    0    0  0.94221478427E+02  0.26528042507E+02  0.35222006404E+03  0.36556859486E+03  0.00000000000E+00 0. -1.
         22    1    3    3    0    0 -0.82233090059E+01 -0.45609331318E+02  0.35381640747E+03  0.35683873684E+03  0.00000000000E+00 0. -1.
</event>
<event>
 7    1  0.8373479E-006  0.7158504E+02  0.7818608E-02  0.1361239E+00
          2   -1    0    0  502    0  0.00000000000E+00  0.00000000000E+00  0.68093583299E+03  0.68093583299E+03  0.00000000000E+00 0. -1.
          1   -1    0    0  501    0 -0.00000000000E+00 -0.00000000000E+00 -0.76820445791E+03  0.76820445791E+03  0.00000000000E+00 0. -1.
         25    2    1    2    0    0 -0.35896407630E+01  0.72174897061E+01 -0.23942408113E+03  0.27021129531E+03  0.12500110324E+03 0.  0.
          2    1    1    2  501    0 -0.67701893700E+02  0.35485356972E+01 -0.50918074507E+03  0.51367418629E+03  0.00000000000E+00 0. -1.
          1    1    1    2  502    0  0.71291534463E+02 -0.10766025403E+02  0.66133620127E+03  0.66525480930E+03  0.00000000000E+00 0. -1.
         22    1    3    3    0    0  0.12038372429E+02  0.24207859471E+02  0.25340202388E+01  0.27154449534E+02  0.00000000000E+00 0.  1.
         22    1    3    3    0    0 -0.15628013192E+02 -0.16990369765E+02 -0.24195810137E+03  0.24305684578E+03  0.00000000000E+00 0.  1.
</event>
<event>
 7    1  0.6105960E-006  0.5854797E+02  0.7818608E-02  0.1419208E+00
          2   -1    0    0  502    0  0.00000000000E+00  0.00000000000E+00  0.10827992333E+04  0.10827992333E+04  0.00000000000E+00 0. -1.
          1   -1    0    0  501    0 -0.00000000000E+00 -0.00000000000E+00 -0.36197775918E+03  0.36197775918E+03  0.00000000000E+00 0. -1.
         25    2    1    2    0    0 -0.14742744563E+01 -0.39845766329E+02  0.78203893145E+01  0.13143830135E+03  0.12500003998E+03 0.  0.
          2    1    1    2  501    0 -0.50624311226E+02  0.11979089899E+02 -0.29704501835E+03  0.30156601667E+03  0.00000000000E+00 0. -1.
          1    1    1    2  502    0  0.52098585683E+02  0.27866676430E+02  0.10100461031E+04  0.10117726744E+04  0.00000000000E+00 0. -1.
         22    1    3    3    0    0 -0.44331934370E+02 -0.65882565300E+02  0.14897636844E+02  0.80794631004E+02  0.00000000000E+00 0. -1.
         22    1    3    3    0    0  0.42857659914E+02  0.26036798971E+02 -0.70772475292E+01  0.50643670350E+02  0.00000000000E+00 0. -1.
</event>
<event>
 7    1  0.6105960E-006  0.5770645E+02  0.7818608E-02  0.1480722E+00
          2   -1    0    0  502    0  0.00000000000E+00  0.00000000000E+00  0.10050675649E+04  0.10050675649E+04  0.00000000000E+00 0. -1.
          1   -1    0    0  501    0 -0.00000000000E+00 -0.00000000000E+00 -0.12561894782E+04  0.12561894782E+04  0.00000000000E+00 0. -1.
         25    2    1    2    0    0  0.61550631496E+02 -0.19804181564E+02  0.58770209521E+03  0.60431784293E+03  0.12500246687E+03 0.  0.
          2    1    1    2  501    0 -0.23609151975E+02 -0.23822702312E+02 -0.12456117162E+04  0.12460631848E+04  0.00000000000E+00 0. -1.
          1    1    1    2  502    0 -0.37941479521E+02  0.43626883876E+02  0.40678770768E+03  0.41087601534E+03  0.00000000000E+00 0. -1.
         22    1    3    3    0    0  0.62206273255E+02  0.24269379116E+02  0.14744839791E+03  0.16186306942E+03  0.00000000000E+00 0. -1.
         22    1    3    3    0    0 -0.65564175837E+00 -0.44073560680E+02  0.44025369730E+03  0.44245477351E+03  0.00000000000E+00 0. -1.
</event>
<event>
 7    1  0.6105960E-006  0.2420895E+03  0.7818608E-02  0.1272288E+00
          2   -1    0    0  502    0  0.00000000000E+00  0.00000000000E+00  0.29937286887E+03  0.29937286887E+03  0.00000000000E+00 0. -1.
          1   -1    0    0  501    0 -0.00000000000E+00 -0.00000000000E+00 -0.19827195908E+04  0.19827195908E+04  0.00000000000E+00 0. -1.
         25    2    1    2    0    0 -0.20334412318E+03  0.14534041327E+03 -0.12059322141E+04  0.12378890259E+04  0.12499626978E+03 0.  0.
          2    1    1    2  501    0  0.21199609381E+03 -0.10158976370E+03 -0.74072982949E+03  0.77713802132E+03  0.00000000000E+00 0. -1.
          1    1    1    2  502    0 -0.86519706329E+01 -0.43750649569E+02  0.26331532160E+03  0.26706541244E+03  0.00000000000E+00 0. -1.
         22    1    3    3    0    0 -0.15664141013E+03  0.39565360637E+02 -0.77893541975E+03  0.79551388251E+03  0.00000000000E+00 0.  1.
         22    1    3    3    0    0 -0.46702713050E+02  0.10577505264E+03 -0.42699679431E+03  0.44237514342E+03  0.00000000000E+00 0.  1.
</event>
<event>
 7    1  0.6105960E-006  0.9586530E+02  0.7818608E-02  0.1466579E+00
          2   -1    0    0  502    0  0.00000000000E+00  0.00000000000E+00  0.25129433674E+03  0.25129433674E+03  0.00000000000E+00 0. -1.
          1   -1    0    0  501    0 -0.00000000000E+00 -0.00000000000E+00 -0.87851296380E+03  0.87851296380E+03  0.00000000000E+00 0. -1.
         25    2    1    2    0    0 -0.77186153717E+02 -0.54928540826E+02  0.68741754808E+02  0.17127076775E+03  0.12503359592E+03 0.  0.
          2    1    1    2  501    0  0.88959404004E+02  0.35953994700E+02 -0.82349283264E+03  0.82906387613E+03  0.00000000000E+00 0. -1.
          1    1    1    2  502    0 -0.11773250287E+02  0.18974546125E+02  0.12753245077E+03  0.12947265666E+03  0.00000000000E+00 0. -1.
         22    1    3    3    0    0 -0.47302588397E+02 -0.87334585637E+02  0.12945089855E+02  0.10016206901E+03  0.00000000000E+00 0. -1.
         22    1    3    3    0    0 -0.29883565320E+02  0.32406044811E+02  0.55796664952E+02  0.71108698739E+02  0.00000000000E+00 0. -1.
</event>
<event>
 7    1  0.6105960E-006  0.8670330E+02  0.7818608E-02  0.1379799E+00
          2   -1    0    0  502    0  0.00000000000E+00  0.00000000000E+00  0.71025606593E+03  0.71025606593E+03  0.00000000000E+00 0. -1.
          1   -1    0    0  501    0 -0.00000000000E+00 -0.00000000000E+00 -0.28241532956E+04  0.28241532956E+04  0.00000000000E+00 0. -1.
         25    2    1    2    0    0  0.93335099702E+02 -0.80034386418E+02  0.34065369340E+02  0.17861164747E+03  0.12499890951E+03 0.  0.
          2    1    1    2  501    0 -0.47319357790E+02  0.80974894141E+01 -0.27486507289E+04  0.27490699374E+04  0.00000000000E+00 0. -1.
          1    1    1    2  502    0 -0.46015741912E+02  0.71936897004E+02  0.60068812988E+03  0.60672777671E+03  0.00000000000E+00 0. -1.
         22    1    3    3    0    0  0.11545917935E+03 -0.89633603535E+02  0.13272904259E+02  0.14676912129E+03  0.00000000000E+00 0.  1.
         22    1    3    3    0    0 -0.22124079643E+02  0.95992171172E+01  0.20792465081E+02  0.31842526179E+02  0.00000000000E+00 0.  1.
</event>
<event>
 7    1  0.6105960E-006  0.9058540E+02  0.7818608E-02  0.1350375E+00
          2   -1    0    0  502    0  0.00000000000E+00  0.00000000000E+00  0.17244833045E+04  0.17244833045E+04  0.00000000000E+00 0. -1.
          1   -1    0    0  501    0 -0.00000000000E+00 -0.00000000000E+00 -0.26729406113E+03  0.26729406113E+03  0.00000000000E+00 0. -1.
         25    2    1    2    0    0 -0.12721160511E+03 -0.59542293787E+02  0.89149362688E+02  0.20808755692E+03  0.12499898100E+03 0.  0.
          2    1    1    2  501    0  0.38965455860E+02  0.43942259467E+02 -0.20237269773E+03  0.21072241861E+03  0.00000000000E+00 0. -1.
          1    1    1    2  502    0  0.88246149248E+02  0.15600034319E+02  0.15704125785E+04  0.15729673902E+04  0.00000000000E+00 0. -1.
         22    1    3    3    0    0 -0.18072423119E+02 -0.67708827006E+02  0.65908035640E+02  0.96202738495E+02  0.00000000000E+00 0. -1.
         22    1    3    3    0    0 -0.10913918199E+03  0.81665332196E+01  0.23241327048E+02  0.11188481842E+03  0.00000000000E+00 0. -1.
</event>
<event>
 7    1  0.6105960E-006  0.1115943E+03  0.7818608E-02  0.1373206E+00
          2   -1    0    0  502    0  0.00000000000E+00  0.00000000000E+00  0.31005463977E+04  0.31005463977E+04  0.00000000000E+00 0. -1.
          1   -1    0    0  501    0 -0.00000000000E+00 -0.00000000000E+00 -0.38818778646E+02  0.38818778646E+02  0.00000000000E+00 0. -1.
         25    2    1    2    0    0  0.98353969205E+02  0.24539821237E+01  0.13357035556E+04  0.13451421563E+04  0.12499562695E+03 0.  0.
          2    1    1    2  501    0  0.15509771393E+02 -0.36187063379E+02 -0.20003863257E+02  0.44161194615E+02  0.00000000000E+00 0. -1.
          1    1    1    2  502    0 -0.11386374060E+03  0.33733081255E+02  0.17460279267E+04  0.17500618255E+04  0.00000000000E+00 0. -1.
         22    1    3    3    0    0  0.97311244682E+02 -0.25849161750E+02  0.12646517531E+04  0.12686535044E+04  0.00000000000E+00 0. -1.
         22    1    3    3    0    0  0.10427245232E+01  0.28303143874E+02  0.71051802506E+02  0.76488651883E+02  0.00000000000E+00 0. -1.
</event>
<event>
 7    1  0.6105960E-006  0.1195777E+03  0.7818608E-02  0.1378601E+00
          2   -1    0    0  502    0  0.00000000000E+00  0.00000000000E+00  0.77964399367E+03  0.77964399367E+03  0.00000000000E+00 0. -1.
          1   -1    0    0  501    0 -0.00000000000E+00 -0.00000000000E+00 -0.14835799034E+04  0.14835799034E+04  0.00000000000E+00 0. -1.
         25    2    1    2    0    0 -0.13092813388E+03 -0.19539969869E+02  0.21288966894E+03  0.28012817112E+03  0.12500317777E+03 0.  0.
          2    1    1    2  501    0  0.13831466800E+02  0.32315812735E+02 -0.14432377797E+04  0.14436657889E+04  0.00000000000E+00 0. -1.
          1    1    1    2  502    0  0.11709666708E+03 -0.12775842865E+02  0.52641220104E+03  0.53942993706E+03  0.00000000000E+00 0. -1.
         22    1    3    3    0    0 -0.81092533330E+02 -0.62874386311E+02  0.74552608999E+02  0.12683563744E+03  0.00000000000E+00 0. -1.
         22    1    3    3    0    0 -0.49835600546E+02  0.43334416442E+02  0.13833705994E+03  0.15329253368E+03  0.00000000000E+00 0. -1.
</event>
<event>
 7    1  0.6105960E-006  0.1325800E+03  0.7818608E-02  0.1223899E+00
          2   -1    0    0  502    0  0.00000000000E+00  0.00000000000E+00  0.69563972342E+03  0.69563972342E+03  0.00000000000E+00 0. -1.
          1   -1    0    0  501    0 -0.00000000000E+00 -0.00000000000E+00 -0.31304451979E+04  0.31304451979E+04  0.00000000000E+00 0. -1.
         25    2    1    2    0    0 -0.22615275275E+02  0.12361403851E+03 -0.31287260105E+03  0.35958067094E+03  0.12496844894E+03 0.  0.
          2    1    1    2  501    0  0.12947948061E+03 -0.45144307274E+02 -0.27859794094E+04  0.27893519344E+04  0.00000000000E+00 0. -1.
          1    1    1    2  502    0 -0.10686420534E+03 -0.78469731234E+02  0.66404653597E+03  0.67715231598E+03  0.00000000000E+00 0. -1.
         22    1    3    3    0    0  0.16255427732E+02  0.12136228881E+03 -0.15802161936E+03  0.19990967026E+03  0.00000000000E+00 0.  1.
         22    1    3    3    0    0 -0.38870703007E+02  0.22517497005E+01 -0.15485098169E+03  0.15967100068E+03  0.00000000000E+00 0.  1.
</event>
<event>
 7    1  0.6105960E-006  0.1070251E+03  0.7818608E-02  0.1290006E+00
          2   -1    0    0  502    0  0.00000000000E+00  0.00000000000E+00  0.91630300307E+03  0.91630300307E+03  0.00000000000E+00 0. -1.
          1   -1    0    0  501    0 -0.00000000000E+00 -0.00000000000E+00 -0.38283252395E+03  0.38283252395E+03  0.00000000000E+00 0. -1.
         25    2    1    2    0    0  0.47498366189E+01  0.11563413400E+03  0.19224644399E+03  0.25688635259E+03  0.12505234514E+03 0.  0.
          2    1    1    2  501    0 -0.78915918638E+02 -0.73590012840E+02 -0.33948566970E+03  0.35622146501E+03  0.00000000000E+00 0. -1.
          1    1    1    2  502    0  0.74166082019E+02 -0.42044121159E+02  0.68070970483E+03  0.68602770942E+03  0.00000000000E+00 0. -1.
         22    1    3    3    0    0  0.56292413493E+02  0.47275345293E+02  0.43937231806E+02  0.85640378492E+02  0.00000000000E+00 0. -1.
         22    1    3    3    0    0 -0.51542576874E+02  0.68358788706E+02  0.14830921219E+03  0.17124597409E+03  0.00000000000E+00 0. -1.
</event>
<event>
 7    1  0.6105960E-006  0.5445045E+02  0.7818608E-02  0.1525535E+00
          2   -1    0    0  502    0  0.00000000000E+00  0.00000000000E+00  0.54529001301E+03  0.54529001301E+03  0.00000000000E+00 0. -1.
          1   -1    0    0  501    0 -0.00000000000E+00 -0.00000000000E+00 -0.78977484459E+03  0.78977484459E+03  0.00000000000E+00 0. -1.
         25    2    1    2    0    0 -0.24143773935E+02  0.76124737969E+02 -0.59767341465E+02  0.15992162818E+03  0.12499957801E+03 0.  0.
          2    1    1    2  501    0  0.42220537173E+01 -0.25814556058E+02 -0.67819933546E+03  0.67870358453E+03  0.00000000000E+00 0. -1.
          1    1    1    2  502    0  0.19921720218E+02 -0.50310181911E+02  0.49348184534E+03  0.49643964489E+03  0.00000000000E+00 0. -1.
         22    1    3    3    0    0 -0.30454609499E+01 -0.59364976524E+01 -0.73745133448E+02  0.74046347270E+02  0.00000000000E+00 0. -1.
         22    1    3    3    0    0 -0.21098312985E+02  0.82061235621E+02  0.13977791982E+02  0.85875280909E+02  0.00000000000E+00 0. -1.
</event>
<event>
 7    1  0.6105960E-006  0.8424638E+02  0.7818608E-02  0.1341803E+00
          2   -1    0    0  502    0  0.00000000000E+00  0.00000000000E+00  0.19612432073E+04  0.19612432073E+04  0.00000000000E+00 0. -1.
          1   -1    0    0  501    0 -0.00000000000E+00 -0.00000000000E+00 -0.10159673792E+04  0.10159673792E+04  0.00000000000E+00 0. -1.
         25    2    1    2    0    0  0.40704776547E+02  0.49680905908E+02  0.23475429245E+03  0.27360555450E+03  0.12500140152E+03 0.  0.
          2    1    1    2  501    0  0.45976421221E+02 -0.50061012817E+02 -0.99428033071E+03  0.99660087916E+03  0.00000000000E+00 0. -1.
          1    1    1    2  502    0 -0.86681197768E+02  0.38010690861E+00  0.17048018663E+04  0.17070041529E+04  0.00000000000E+00 0. -1.
         22    1    3    3    0    0  0.64249041104E+02  0.71408166082E+02  0.21621034329E+03  0.23658820345E+03  0.00000000000E+00 0. -1.
         22    1    3    3    0    0 -0.23544264557E+02 -0.21727260174E+02  0.18543949162E+02  0.37017351050E+02  0.00000000000E+00 0. -1.
</event>
<event>
 7    1  0.6105960E-006  0.4193336E+02  0.7818608E-02  0.1573118E+00
          2   -1    0    0  502    0  0.00000000000E+00  0.00000000000E+00  0.18905293850E+04  0.18905293850E+04  0.00000000000E+00 0. -1.
          1   -1    0    0  501    0 -0.00000000000E+00 -0.00000000000E+00 -0.12153854800E+04  0.12153854800E+04  0.00000000000E+00 0. -1.
         25    2    1    2    0    0  0.48707232704E+02  0.44260638658E+02  0.10162779456E+03  0.17402777105E+03  0.12500423120E+03 0.  0.
          2    1    1    2  501    0 -0.26820457552E+02 -0.32152960779E+02 -0.11787245206E+04  0.11794679501E+04  0.00000000000E+00 0. -1.
          1    1    1    2  502    0 -0.21886775152E+02 -0.12107677879E+02  0.17522406310E+04  0.17524191438E+04  0.00000000000E+00 0. -1.
         22    1    3    3    0    0  0.23960650821E+02  0.83836678103E+02  0.37996771988E+02  0.95112859618E+02  0.00000000000E+00 0. -1.
         22    1    3    3    0    0  0.24746581882E+02 -0.39576039445E+02  0.63631022571E+02  0.78914911433E+02  0.00000000000E+00 0. -1.
</event>
<event>
 7    1  0.6105960E-006  0.6177687E+02  0.7818608E-02  0.1428020E+00
          2   -1    0    0  502    0  0.00000000000E+00  0.00000000000E+00  0.36585959224E+02  0.36585959224E+02  0.00000000000E+00 0. -1.
          1   -1    0    0  501    0 -0.00000000000E+00 -0.00000000000E+00 -0.21584998232E+04  0.21584998232E+04  0.00000000000E+00 0. -1.
         25    2    1    2    0    0  0.24437970609E+02 -0.37711699168E+02 -0.17200600732E+04  0.17251816772E+04  0.12500310854E+03 0.  0.
          2    1    1    2  501    0  0.37026630047E+02  0.27444802841E+02 -0.40489890160E+03  0.40751356917E+03  0.00000000000E+00 0. -1.
          1    1    1    2  502    0 -0.61464600656E+02  0.10266896327E+02  0.30451108281E+01  0.62390536093E+02  0.00000000000E+00 0. -1.
         22    1    3    3    0    0  0.70770773445E+02 -0.29827635284E+02 -0.73510161201E+03  0.73910254375E+03  0.00000000000E+00 0. -1.
         22    1    3    3    0    0 -0.46332802837E+02 -0.78840638835E+01 -0.98495846124E+03  0.98607913346E+03  0.00000000000E+00 0. -1.
</event>
<event>
 7    1  0.6105960E-006  0.1623103E+03  0.7818608E-02  0.1319202E+00
          2   -1    0    0  502    0  0.00000000000E+00  0.00000000000E+00  0.92919723296E+03  0.92919723296E+03  0.00000000000E+00 0. -1.
          1   -1    0    0  501    0 -0.00000000000E+00 -0.00000000000E+00 -0.77532722797E+03  0.77532722797E+03  0.00000000000E+00 0. -1.
         25    2    1    2    0    0  0.15496982393E+03  0.13272788159E+03  0.28498364842E+03  0.37212037851E+03  0.12500223740E+03 0.  0.
          2    1    1    2  501    0 -0.12464181620E+03 -0.10219771679E+03 -0.72209114269E+03  0.73986186144E+03  0.00000000000E+00 0. -1.
          1    1    1    2  502    0 -0.30328007737E+02 -0.30530164802E+02  0.59097749926E+03  0.59254222098E+03  0.00000000000E+00 0. -1.
         22    1    3    3    0    0  0.55587927512E+02 -0.15559945664E+02  0.45915479655E+02  0.73758801956E+02  0.00000000000E+00 0. -1.
         22    1    3    3    0    0  0.99381896423E+02  0.14828782726E+03  0.23906816876E+03  0.29836157656E+03  0.00000000000E+00 0. -1.
</event>
<event>
 7    1  0.6105960E-006  0.6316657E+02  0.7818608E-02  0.1407954E+00
          2   -1    0    0  502    0  0.00000000000E+00  0.00000000000E+00  0.23074231734E+04  0.23074231734E+04  0.00000000000E+00 0. -1.
          1   -1    0    0  501    0 -0.00000000000E+00 -0.00000000000E+00 -0.98750119571E+03  0.98750119571E+03  0.00000000000E+00 0. -1.
         25    2    1    2    0    0 -0.16136855636E+02  0.35428007929E+02 -0.72337841708E+03  0.73513016905E+03  0.12499795721E+03 0.  0.
          2    1    1    2  501    0  0.49316724645E+02  0.18351473594E+02 -0.25512764349E+03  0.26049765908E+03  0.00000000000E+00 0. -1.
          1    1    1    2  502    0 -0.33179869009E+02 -0.53779481523E+02  0.22984280383E+04  0.22992965410E+04  0.00000000000E+00 0. -1.
         22    1    3    3    0    0  0.19274699502E+02 -0.83843086613E+01 -0.58959961424E+03  0.58997416535E+03  0.00000000000E+00 0.  1.
         22    1    3    3    0    0 -0.35411555139E+02  0.43812316590E+02 -0.13377880284E+03  0.14515600370E+03  0.00000000000E+00 0.  1.
</event>
<event>
 7    1  0.6105960E-006  0.3066503E+02  0.7818608E-02  0.1639050E+00
          2   -1    0    0  502    0  0.00000000000E+00  0.00000000000E+00  0.24309724389E+04  0.24309724389E+04  0.00000000000E+00 0. -1.
          1   -1    0    0  501    0 -0.00000000000E+00 -0.00000000000E+00 -0.16211183618E+03  0.16211183618E+03  0.00000000000E+00 0. -1.
         25    2    1    2    0    0  0.33435342541E+02 -0.10610229562E+02  0.82704353553E+03  0.83717129163E+03  0.12499705097E+03 0.  0.
          2    1    1    2  501    0 -0.17110657092E+02 -0.15475968636E+02 -0.15605168693E+03  0.15774792926E+03  0.00000000000E+00 0. -1.
          1    1    1    2  502    0 -0.16324685449E+02  0.26086198198E+02  0.15978687542E+04  0.15981650542E+04  0.00000000000E+00 0. -1.
         22    1    3    3    0    0  0.38800354739E+02 -0.54079076401E+02  0.25808150692E+03  0.26652594291E+03  0.00000000000E+00 0.  1.
         22    1    3    3    0    0 -0.53650121974E+01  0.43468846839E+02  0.56896202862E+03  0.57064534871E+03  0.00000000000E+00 0.  1.
</event>
<event>
 7    1  0.6105960E-006  0.1584275E+03  0.7818608E-02  0.1282486E+00
          2   -1    0    0  502    0  0.00000000000E+00  0.00000000000E+00  0.10738948922E+03  0.10738948922E+03  0.00000000000E+00 0. -1.
          1   -1    0    0  501    0 -0.00000000000E+00 -0.00000000000E+00 -0.10975191653E+04  0.10975191653E+04  0.00000000000E+00 0. -1.
         25    2    1    2    0    0  0.24513210576E+02 -0.11528675468E+03 -0.32989754633E+03  0.37195386846E+03  0.12500142355E+03 0.  0.
          2    1    1    2  501    0 -0.34428601712E+02  0.17630804921E+03 -0.72292376332E+03  0.74490846713E+03  0.00000000000E+00 0. -1.
          1    1    1    2  502    0  0.99153911358E+01 -0.61021294534E+02  0.62691633537E+02  0.88046318966E+02  0.00000000000E+00 0. -1.
         22    1    3    3    0    0  0.15159861563E+02 -0.83641062666E+00  0.64858860144E+01  0.16510230245E+02  0.00000000000E+00 0. -1.
         22    1    3    3    0    0  0.93533490131E+01 -0.11445034405E+03 -0.33638343234E+03  0.35544363821E+03  0.00000000000E+00 0. -1.
</event>
<event>
 7    1  0.6105960E-006  0.3850471E+02  0.7818608E-02  0.1596692E+00
          2   -1    0    0  502    0  0.00000000000E+00  0.00000000000E+00  0.16482567650E+03  0.16482567650E+03  0.00000000000E+00 0. -1.
          1   -1    0    0  501    0 -0.00000000000E+00 -0.00000000000E+00 -0.51964016063E+03  0.51964016063E+03  0.00000000000E+00 0. -1.
         25    2    1    2    0    0 -0.34607888904E+02  0.13140201119E+02 -0.58380812192E+02  0.14284135120E+03  0.12499984609E+03 0.  0.
          2    1    1    2  501    0  0.21075187612E+02 -0.32440151705E+02 -0.41699241093E+03  0.41878299601E+03  0.00000000000E+00 0. -1.
          1    1    1    2  502    0  0.13532701292E+02  0.19299950585E+02  0.12055873899E+03  0.12284148992E+03  0.00000000000E+00 0. -1.
         22    1    3    3    0    0 -0.16951215502E+02 -0.50623335812E+02 -0.54914395929E+02  0.76587575467E+02  0.00000000000E+00 0.  1.
         22    1    3    3    0    0 -0.17656673402E+02  0.63763536931E+02 -0.34664162628E+01  0.66253775736E+02  0.00000000000E+00 0.  1.
</event>
<event>
 7    1  0.6105960E-006  0.1410258E+03  0.7818608E-02  0.1363482E+00
          2   -1    0    0  502    0  0.00000000000E+00  0.00000000000E+00  0.43112894235E+03  0.43112894235E+03  0.00000000000E+00 0. -1.
          1   -1    0    0  501    0 -0.00000000000E+00 -0.00000000000E+00 -0.51889109872E+03  0.51889109872E+03  0.00000000000E+00 0. -1.
         25    2    1    2    0    0 -0.12170126556E+03 -0.55616383408E+01  0.67542421263E+02  0.18716069579E+03  0.12500007008E+03 0.  0.
          2    1    1    2  501    0 -0.24382631939E+02  0.23368006761E+02 -0.44057414491E+03  0.44186666954E+03  0.00000000000E+00 0. -1.
          1    1    1    2  502    0  0.14608389750E+03 -0.17806368420E+02  0.28526956727E+03  0.32099267574E+03  0.00000000000E+00 0. -1.
         22    1    3    3    0    0 -0.86506022264E+02 -0.26703874035E+02 -0.17972201862E+02  0.92300535298E+02  0.00000000000E+00 0. -1.
         22    1    3    3    0    0 -0.35195243300E+02  0.21142235694E+02  0.85514623125E+02  0.94860160496E+02  0.00000000000E+00 0. -1.
</event>
<event>
 7    1  0.6508317E-006  0.8927071E+02  0.7818608E-02  0.1325354E+00
          2   -1    0    0  502    0  0.00000000000E+00  0.00000000000E+00  0.14241127287E+04  0.14241127287E+04  0.00000000000E+00 0. -1.
          1   -1    0    0  501    0 -0.00000000000E+00 -0.00000000000E+00 -0.61085588743E+03  0.61085588743E+03  0.00000000000E+00 0. -1.
         25    2    1    2    0    0  0.11543813550E+02  0.34689253569E+02 -0.28560969122E+03  0.31390052080E+03  0.12499614911E+03 0.  0.
          2    1    1    2  501    0  0.73722964489E+02 -0.71858813914E+01 -0.30524362176E+03  0.31410250080E+03  0.00000000000E+00 0. -1.
          1    1    1    2  502    0 -0.85266778039E+02 -0.27503372177E+02  0.14041101542E+04  0.14069655945E+04  0.00000000000E+00 0. -1.
         22    1    3    3    0    0 -0.38758474511E+02  0.31466299952E+02 -0.42329109692E+02  0.65453043523E+02  0.00000000000E+00 0. -1.
         22    1    3    3    0    0  0.50302288061E+02  0.32229536165E+01 -0.24328058153E+03  0.24844747728E+03  0.00000000000E+00 0. -1.
</event>
<event>
 7    1  0.6105960E-006  0.9300632E+02  0.7818608E-02  0.1386142E+00
          2   -1    0    0  502    0  0.00000000000E+00  0.00000000000E+00  0.26549142846E+03  0.26549142846E+03  0.00000000000E+00 0. -1.
          1   -1    0    0  501    0 -0.00000000000E+00 -0.00000000000E+00 -0.58380367750E+03  0.58380367750E+03  0.00000000000E+00 0. -1.
         25    2    1    2    0    0 -0.22476698744E+02  0.56126494111E+02 -0.11138067030E+03  0.17800645692E+03  0.12500103865E+03 0.  0.
          2    1    1    2  501    0 -0.39037746578E+02  0.16820611346E+02 -0.42820894797E+03  0.43031358536E+03  0.00000000000E+00 0. -1.
          1    1    1    2  502    0  0.61514445322E+02 -0.72947105457E+02  0.22127736923E+03  0.24097506367E+03  0.00000000000E+00 0. -1.
         22    1    3    3    0    0  0.26698166123E+02 -0.20422376438E+02 -0.70819333726E+02  0.78391603908E+02  0.00000000000E+00 0. -1.
         22    1    3    3    0    0 -0.49174864867E+02  0.76548870549E+02 -0.40561336571E+02  0.99614853016E+02  0.00000000000E+00 0. -1.
</event>
<event>
 7    1  0.6105960E-006  0.9649154E+02  0.7818608E-02  0.1389899E+00
          2   -1    0    0  502    0  0.00000000000E+00  0.00000000000E+00  0.26137377176E+03  0.26137377176E+03  0.00000000000E+00 0. -1.
          1   -1    0    0  501    0 -0.00000000000E+00 -0.00000000000E+00 -0.18223277800E+03  0.18223277800E+03  0.00000000000E+00 0. -1.
         25    2    1    2    0    0  0.24656599186E+02  0.10240443261E+03  0.10908162447E+03  0.19651555568E+03  0.12499978849E+03 0.  0.
          2    1    1    2  501    0  0.14433425682E+02 -0.95189879764E+02 -0.11692016878E+03  0.15145878269E+03  0.00000000000E+00 0. -1.
          1    1    1    2  502    0 -0.39090024869E+02 -0.72145528459E+01  0.86979538062E+02  0.95632211406E+02  0.00000000000E+00 0. -1.
         22    1    3    3    0    0  0.61416404105E+02  0.86964694596E+02  0.34447684471E+02  0.11189940020E+03  0.00000000000E+00 0. -1.
         22    1    3    3    0    0 -0.36759804919E+02  0.15439738014E+02  0.74633940001E+02  0.84616155477E+02  0.00000000000E+00 0. -1.
</event>
<event>
 7    1  0.6105960E-006  0.8081189E+02  0.7818608E-02  0.1401037E+00
          2   -1    0    0  502    0  0.00000000000E+00  0.00000000000E+00  0.80296991274E+03  0.80296991274E+03  0.00000000000E+00 0. -1.
          1   -1    0    0  501    0 -0.00000000000E+00 -0.00000000000E+00 -0.77841245688E+02  0.77841245688E+02  0.00000000000E+00 0. -1.
         25    2    1    2    0    0  0.78801141489E+02 -0.92675716809E+01  0.10074843141E+03  0.17908215768E+03  0.12499865992E+03 0.  0.
          2    1    1    2  501    0 -0.66904581186E+02  0.51037124591E+02  0.87877268470E+01  0.84606354450E+02  0.00000000000E+00 0. -1.
          1    1    1    2  502    0 -0.11896560303E+02 -0.41769552910E+02  0.61559250879E+03  0.61712264630E+03  0.00000000000E+00 0. -1.
         22    1    3    3    0    0 -0.13393588856E+02 -0.38325157018E+01 -0.21653056025E+02  0.25747451025E+02  0.00000000000E+00 0. -1.
         22    1    3    3    0    0  0.92194730346E+02 -0.54350559791E+01  0.12240148744E+03  0.15333470665E+03  0.00000000000E+00 0. -1.
</event>
<event>
 7    1  0.6105960E-006  0.5154461E+02  0.7818608E-02  0.1488225E+00
          2   -1    0    0  502    0  0.00000000000E+00  0.00000000000E+00  0.54766305711E+03  0.54766305711E+03  0.00000000000E+00 0. -1.
          1   -1    0    0  501    0 -0.00000000000E+00 -0.00000000000E+00 -0.39788310318E+03  0.39788310318E+03  0.00000000000E+00 0. -1.
         25    2    1    2    0    0 -0.12663794338E+02  0.10222136318E+02 -0.20575863935E+03  0.24129774793E+03  0.12499248671E+03 0.  0.
          2    1    1    2  501    0 -0.31019035884E+02  0.17515522955E+02 -0.17125441447E+03  0.17492012065E+03  0.00000000000E+00 0. -1.
          1    1    1    2  502    0  0.43682830222E+02 -0.27737659273E+02  0.52679300775E+03  0.52932829172E+03  0.00000000000E+00 0. -1.
         22    1    3    3    0    0  0.18767696387E+01 -0.25243970795E+02  0.60681416050E+01  0.26030802299E+02  0.00000000000E+00 0. -1.
         22    1    3    3    0    0 -0.14540563976E+02  0.35466107113E+02 -0.21182678095E+03  0.21526694563E+03  0.00000000000E+00 0. -1.
</event>
<event>
 7    1  0.6105960E-006  0.9918302E+02  0.7818608E-02  0.1452399E+00
          2   -1    0    0  502    0  0.00000000000E+00  0.00000000000E+00  0.42274448000E+03  0.42274448000E+03  0.00000000000E+00 0. -1.
          1   -1    0    0  501    0 -0.00000000000E+00 -0.00000000000E+00 -0.64620867545E+03  0.64620867545E+03  0.00000000000E+00 0. -1.
         25    2    1    2    0    0 -0.86834444261E+02 -0.20954795640E+02 -0.74798702647E+02  0.17088019672E+03  0.12500348612E+03 0.  0.
          2    1    1    2  501    0  0.89882214496E+02  0.44686689909E+02 -0.51816581976E+03  0.52779875853E+03  0.00000000000E+00 0. -1.
          1    1    1    2  502    0 -0.30477702350E+01 -0.23731894269E+02  0.36950032696E+03  0.37027420020E+03  0.00000000000E+00 0. -1.
         22    1    3    3    0    0  0.64123405546E+01 -0.54249360511E+02 -0.26454704316E+02  0.60695655591E+02  0.00000000000E+00 0. -1.
         22    1    3    3    0    0 -0.93246784815E+02  0.33294564871E+02 -0.48343998331E+02  0.11018454113E+03  0.00000000000E+00 0. -1.
</event>
<event>
 7    1  0.6105960E-006  0.2162279E+03  0.7818608E-02  0.1238629E+00
          2   -1    0    0  502    0  0.00000000000E+00  0.00000000000E+00  0.36125897848E+03  0.36125897848E+03  0.00000000000E+00 0. -1.
          1   -1    0    0  501    0 -0.00000000000E+00 -0.00000000000E+00 -0.13596243887E+04  0.13596243887E+04  0.00000000000E+00 0. -1.
         25    2    1    2    0    0  0.54913918627E+01 -0.24445569880E+03 -0.85950049388E+03  0.90230482608E+03  0.12499662443E+03 0.  0.
          2    1    1    2  501    0 -0.45416226684E+02  0.18734392689E+03 -0.45537077262E+03  0.49449258958E+03  0.00000000000E+00 0. -1.
          1    1    1    2  502    0  0.39924834821E+02  0.57111771907E+02  0.31650585627E+03  0.32408595153E+03  0.00000000000E+00 0. -1.
         22    1    3    3    0    0  0.22895467240E+02 -0.21369913084E+03 -0.82638053763E+03  0.85387136849E+03  0.00000000000E+00 0. -1.
         22    1    3    3    0    0 -0.17404075377E+02 -0.30756567958E+02 -0.33119956249E+02  0.48433457591E+02  0.00000000000E+00 0. -1.
</event>
<event>
 7    1  0.6105960E-006  0.4437630E+02  0.7818608E-02  0.1508171E+00
          2   -1    0    0  502    0  0.00000000000E+00  0.00000000000E+00  0.30266727879E+04  0.30266727879E+04  0.00000000000E+00 0. -1.
          1   -1    0    0  501    0 -0.00000000000E+00 -0.00000000000E+00 -0.43475447130E+02  0.43475447130E+02  0.00000000000E+00 0. -1.
         25    2    1    2    0    0  0.34071132595E+02  0.12473214908E+02  0.62096692956E+03  0.63446111092E+03  0.12499820196E+03 0.  0.
          2    1    1    2  501    0 -0.14170819515E+02 -0.42551165026E+02 -0.22849867643E+02  0.50334185422E+02  0.00000000000E+00 0. -1.
          1    1    1    2  502    0 -0.19900313080E+02  0.30077950118E+02  0.23850802789E+04  0.23853529387E+04  0.00000000000E+00 0. -1.
         22    1    3    3    0    0  0.74753515829E+02 -0.11362791456E+02  0.47737027268E+03  0.48332140279E+03  0.00000000000E+00 0.  1.
         22    1    3    3    0    0 -0.40682383234E+02  0.23836006364E+02  0.14359665688E+03  0.15113970813E+03  0.00000000000E+00 0.  1.
</event>
<event>
 7    1  0.6105960E-006  0.1143134E+03  0.7818608E-02  0.1410563E+00
          2   -1    0    0  502    0  0.00000000000E+00  0.00000000000E+00  0.73048637865E+03  0.73048637865E+03  0.00000000000E+00 0. -1.
          1   -1    0    0  501    0 -0.00000000000E+00 -0.00000000000E+00 -0.84587504168E+03  0.84587504168E+03  0.00000000000E+00 0. -1.
         25    2    1    2    0    0 -0.83626294289E+02  0.40764342688E+02  0.10123890751E+02  0.15614826316E+03  0.12499879277E+03 0.  0.
          2    1    1    2  501    0 -0.10894425175E+02  0.26324850251E+02 -0.76740789541E+03  0.76793656260E+03  0.00000000000E+00 0. -1.
          1    1    1    2  502    0  0.94520719464E+02 -0.67089192939E+02  0.64189534163E+03  0.65227659457E+03  0.00000000000E+00 0. -1.
         22    1    3    3    0    0 -0.61965334377E+02  0.85667366396E+02  0.28624658072E+01  0.10576764174E+03  0.00000000000E+00 0.  1.
         22    1    3    3    0    0 -0.21660959912E+02 -0.44903023708E+02  0.72614249437E+01  0.50380621420E+02  0.00000000000E+00 0.  1.
</event>
<event>
 7    1  0.6105960E-006  0.3757363E+02  0.7818608E-02  0.1537436E+00
          2   -1    0    0  502    0  0.00000000000E+00  0.00000000000E+00  0.71509162903E+02  0.71509162903E+02  0.00000000000E+00 0. -1.
          1   -1    0    0  501    0 -0.00000000000E+00 -0.00000000000E+00 -0.28484947526E+04  0.28484947526E+04  0.00000000000E+00 0. -1.
         25    2    1    2    0    0 -0.35511892253E+02 -0.81947982343E+01 -0.11869605680E+04  0.11940810040E+04  0.12500321973E+03 0.  0.
          2    1    1    2  501    0  0.22283284989E+02 -0.27054622633E+02 -0.16525584596E+04  0.16529301134E+04  0.00000000000E+00 0. -1.
          1    1    1    2  502    0  0.13228607264E+02  0.35249420867E+02  0.62533437887E+02  0.72992798107E+02  0.00000000000E+00 0. -1.
         22    1    3    3    0    0 -0.79510147167E+02  0.10004869233E+02 -0.85069609681E+03  0.85446229293E+03  0.00000000000E+00 0. -1.
         22    1    3    3    0    0  0.43998254915E+02 -0.18199667467E+02 -0.33626447118E+03  0.33961871107E+03  0.00000000000E+00 0. -1.
</event>
<event>
 7    1  0.6105960E-006  0.6822950E+02  0.7818608E-02  0.1454314E+00
          2   -1    0    0  502    0  0.00000000000E+00  0.00000000000E+00  0.35712676766E+03  0.35712676766E+03  0.00000000000E+00 0. -1.
          1   -1    0    0  501    0 -0.00000000000E+00 -0.00000000000E+00 -0.16261671976E+03  0.16261671976E+03  0.00000000000E+00 0. -1.
         25    2    1    2    0    0 -0.45454689333E+01 -0.44461952124E+02  0.71681192074E+02  0.15087095188E+03  0.12500529729E+03 0.  0.
          2    1    1    2  501    0 -0.28341327801E+02 -0.19314210565E+02 -0.11523449469E+03  0.12023002270E+03  0.00000000000E+00 0. -1.
          1    1    1    2  502    0  0.32886796734E+02  0.63776162689E+02  0.23806335052E+03  0.24864251284E+03  0.00000000000E+00 0. -1.
         22    1    3    3    0    0 -0.35992857372E+01 -0.88429062686E+02  0.52410530181E+02  0.10285678227E+03  0.00000000000E+00 0. -1.
         22    1    3    3    0    0 -0.94618319614E+00  0.43967110562E+02  0.19270661893E+02  0.48014169612E+02  0.00000000000E+00 0. -1.
</event>
<event>
 7    1  0.6105960E-006  0.1382688E+03  0.7818608E-02  0.1246763E+00
          2   -1    0    0  502    0  0.00000000000E+00  0.00000000000E+00  0.20365890684E+03  0.20365890684E+03  0.00000000000E+00 0. -1.
          1   -1    0    0  501    0 -0.00000000000E+00 -0.00000000000E+00 -0.56965318100E+03  0.56965318100E+03  0.00000000000E+00 0. -1.
         25    2    1    2    0    0 -0.44806882626E+02  0.56690261211E+02 -0.47042057871E+02  0.15184976586E+03  0.12499581488E+03 0.  0.
          2    1    1    2  501    0 -0.72085633264E+02  0.69841204759E+02 -0.41312284247E+03  0.42514070068E+03  0.00000000000E+00 0. -1.
          1    1    1    2  502    0  0.11689251589E+03 -0.12653146597E+03  0.94170626185E+02  0.19632162129E+03  0.00000000000E+00 0. -1.
         22    1    3    3    0    0 -0.76933163025E+02  0.38515390361E+02 -0.67766012559E+02  0.10951885375E+03  0.00000000000E+00 0.  1.
         22    1    3    3    0    0  0.32126280399E+02  0.18174870849E+02  0.20723954688E+02  0.42330912116E+02  0.00000000000E+00 0.  1.
</event>
<event>
 7    1  0.6105960E-006  0.3476251E+02  0.7818608E-02  0.1576066E+00
          2   -1    0    0  502    0  0.00000000000E+00  0.00000000000E+00  0.34620371908E+03  0.34620371908E+03  0.00000000000E+00 0. -1.
          1   -1    0    0  501    0 -0.00000000000E+00 -0.00000000000E+00 -0.20752568690E+03  0.20752568690E+03  0.00000000000E+00 0. -1.
         25    2    1    2    0    0  0.32486378292E+01 -0.88515609802E+01 -0.11912506368E+03  0.17292840626E+03  0.12499819645E+03 0.  0.
          2    1    1    2  501    0 -0.20079352522E+02 -0.21780971694E+02 -0.56906966052E+02  0.64156012274E+02  0.00000000000E+00 0. -1.
          1    1    1    2  502    0  0.16830714693E+02  0.30632532675E+02  0.31471006190E+03  0.31664498745E+03  0.00000000000E+00 0. -1.
         22    1    3    3    0    0  0.42358514560E+02  0.31686237135E+02 -0.15734199648E+02  0.55189006315E+02  0.00000000000E+00 0.  1.
         22    1    3    3    0    0 -0.39109876731E+02 -0.40537798116E+02 -0.10339086403E+03  0.11773939994E+03  0.00000000000E+00 0.  1.
</event>
<event>
 7    1  0.6105960E-006  0.2120928E+03  0.7818608E-02  0.1254724E+00
          2   -1    0    0  502    0  0.00000000000E+00  0.00000000000E+00  0.15311760467E+04  0.15311760467E+04  0.00000000000E+00 0. -1.
          1   -1    0    0  501    0 -0.00000000000E+00 -0.00000000000E+00 -0.47849742562E+02  0.47849742562E+02  0.00000000000E+00 0. -1.
         25    2    1    2    0    0  0.16496058471E+03  0.54371390575E+02  0.91441129210E+03  0.93911762061E+03  0.12500260641E+03 0.  0.
          2    1    1    2  501    0 -0.21189188784E+03 -0.92452059540E+02  0.42478550843E+03  0.48361997852E+03  0.00000000000E+00 0. -1.
          1    1    1    2  502    0  0.46931303137E+02  0.38080668964E+02  0.14412950356E+03  0.15628819008E+03  0.00000000000E+00 0. -1.
         22    1    3    3    0    0  0.12822090163E+03  0.90606854553E+02  0.76785742484E+03  0.78374436303E+03  0.00000000000E+00 0.  1.
         22    1    3    3    0    0  0.36739683074E+02 -0.36235463978E+02  0.14655386726E+03  0.15537325758E+03  0.00000000000E+00 0.  1.
</event>
<event>
 7    1  0.6105960E-006  0.6408366E+02  0.7818608E-02  0.1469303E+00
          2   -1    0    0  502    0  0.00000000000E+00  0.00000000000E+00  0.78247765860E+03  0.78247765860E+03  0.00000000000E+00 0. -1.
          1   -1    0    0  501    0 -0.00000000000E+00 -0.00000000000E+00 -0.38320066325E+02  0.38320066325E+02  0.00000000000E+00 0. -1.
         25    2    1    2    0    0 -0.83374001106E+01  0.36103468618E+02  0.37275700318E+03  0.39489945849E+03  0.12499930481E+03 0.  0.
          2    1    1    2  501    0 -0.20136807577E+01 -0.67182689730E+02  0.16130747499E+02  0.69121412923E+02  0.00000000000E+00 0. -1.
          1    1    1    2  502    0  0.10351080868E+02  0.31079221112E+02  0.35526984159E+03  0.35677685352E+03  0.00000000000E+00 0. -1.
         22    1    3    3    0    0 -0.12532077669E+02 -0.25686470601E+02  0.15894850060E+02  0.32703119134E+02  0.00000000000E+00 0. -1.
         22    1    3    3    0    0  0.41946775584E+01  0.61789939219E+02  0.35686215312E+03  0.36219633935E+03  0.00000000000E+00 0. -1.
</event>
<event>
 7    1  0.6105960E-006  0.4686375E+02  0.7818608E-02  0.1522094E+00
          2   -1    0    0  502    0  0.00000000000E+00  0.00000000000E+00  0.76999071871E+03  0.76999071871E+03  0.00000000000E+00 0. -1.
          1   -1    0    0  501    0 -0.00000000000E+00 -0.00000000000E+00 -0.10099788171E+04  0.10099788171E+04  0.00000000000E+00 0. -1.
         25    2    1    2    0    0 -0.54727096966E+02  0.35927382778E+02  0.19767996180E+03  0.24287481870E+03  0.12499991314E+03 0.  0.
          2    1    1    2  501    0  0.30865376230E+02  0.37789185784E+01 -0.98615993323E+03  0.98665007251E+03  0.00000000000E+00 0. -1.
          1    1    1    2  502    0  0.23861720736E+02 -0.39706301356E+02  0.54849187299E+03  0.55044464465E+03  0.00000000000E+00 0. -1.
         22    1    3    3    0    0 -0.40315893596E+02  0.73978579952E+02  0.72174703211E+02  0.11093867383E+03  0.00000000000E+00 0.  1.
         22    1    3    3    0    0 -0.14411203371E+02 -0.38051197174E+02  0.12550525859E+03  0.13193614487E+03  0.00000000000E+00 0.  1.
</event>
<event>
 7    1  0.6105960E-006  0.1172230E+03  0.7818608E-02  0.1443600E+00
          2   -1    0    0  502    0  0.00000000000E+00  0.00000000000E+00  0.16660196942E+03  0.16660196942E+03  0.00000000000E+00 0. -1.
          1   -1    0    0  501    0 -0.00000000000E+00 -0.00000000000E+00 -0.13313490368E+04  0.13313490368E+04  0.00000000000E+00 0. -1.
         25    2    1    2    0    0 -0.39144023840E+02 -0.90631897510E+02 -0.19782224444E+03  0.25398165905E+03  0.12500658899E+03 0.  0.
          2    1    1    2  501    0 -0.14586569927E+02 -0.15936978321E+02 -0.10796120577E+04  0.10798282041E+04  0.00000000000E+00 0. -1.
          1    1    1    2  502    0  0.53730593767E+02  0.10656887583E+03  0.11268723468E+03  0.16414114311E+03  0.00000000000E+00 0. -1.
         22    1    3    3    0    0  0.17709483066E+02 -0.98565712728E+02 -0.14319669056E+03  0.17474014337E+03  0.00000000000E+00 0. -1.
         22    1    3    3    0    0 -0.56853506906E+02  0.79338152181E+01 -0.54625553878E+02  0.79241515684E+02  0.00000000000E+00 0. -1.
</event>
<event>
 7    1  0.6105960E-006  0.1655543E+03  0.7818608E-02  0.1288185E+00
          2   -1    0    0  502    0  0.00000000000E+00  0.00000000000E+00  0.30632855468E+04  0.30632855468E+04  0.00000000000E+00 0. -1.
          1   -1    0    0  501    0 -0.00000000000E+00 -0.00000000000E+00 -0.53805327132E+02  0.53805327132E+02  0.00000000000E+00 0. -1.
         25    2    1    2    0    0  0.73067412620E+01  0.11904679119E+03  0.12838129835E+03  0.21524778334E+03  0.12499729398E+03 0.  0.
          2    1    1    2  501    0  0.34742089851E+02  0.44000884248E+02  0.92488590376E+02  0.10815373305E+03  0.00000000000E+00 0. -1.
          1    1    1    2  502    0 -0.42048831113E+02 -0.16304767544E+03  0.27886103309E+04  0.27936893576E+04  0.00000000000E+00 0. -1.
         22    1    3    3    0    0  0.32053911295E+02 -0.91445907081E+01  0.17695845463E+01  0.33379757309E+02  0.00000000000E+00 0.  1.
         22    1    3    3    0    0 -0.24747170033E+02  0.12819138190E+03  0.12661171380E+03  0.18186802603E+03  0.00000000000E+00 0.  1.
</event>
<event>
 7    1  0.6105960E-006  0.1781648E+03  0.7818608E-02  0.1177530E+00
          2   -1    0    0  502    0  0.00000000000E+00  0.00000000000E+00  0.12358154543E+04  0.12358154543E+04  0.00000000000E+00 0. -1.
          1   -1    0    0  501    0 -0.00000000000E+00 -0.00000000000E+00 -0.17941551971E+03  0.17941551971E+03  0.00000000000E+00 0. -1.
         25    2    1    2    0    0 -0.79349534151E+02  0.34585397601E+01 -0.25434806280E+02  0.15026356363E+03  0.12499559639E+03 0.  0.
          2    1    1    2  501    0 -0.29916976051E+02 -0.16001870096E+03 -0.36385581972E+01  0.16283196620E+03  0.00000000000E+00 0. -1.
          1    1    1    2  502    0  0.10926651020E+03  0.15656016120E+03  0.10854732990E+04  0.11021354441E+04  0.00000000000E+00 0. -1.
         22    1    3    3    0    0 -0.11000718099E+03  0.13105606744E+02 -0.25599663081E+01  0.11081466611E+03  0.00000000000E+00 0. -1.
         22    1    3    3    0    0  0.30657646842E+02 -0.96470669843E+01 -0.22874839972E+02  0.39448897513E+02  0.00000000000E+00 0. -1.
</event>
<event>
 7    1  0.6105960E-006  0.4034173E+02  0.7818608E-02  0.1597799E+00
          2   -1    0    0  502    0  0.00000000000E+00  0.00000000000E+00  0.12825061012E+04  0.12825061012E+04  0.00000000000E+00 0. -1.
          1   -1    0    0  501    0 -0.00000000000E+00 -0.00000000000E+00 -0.14108667414E+02  0.14108667414E+02  0.00000000000E+00 0. -1.
         25    2    1    2    0    0  0.52186131397E+02  0.19654953960E+02  0.38634984507E+03  0.40987903939E+03  0.12499965847E+03 0.  0.
          2    1    1    2  501    0 -0.34600837552E+02 -0.58633886338E+01  0.13932222035E+03  0.14367420912E+03  0.00000000000E+00 0. -1.
          1    1    1    2  502    0 -0.17585293845E+02 -0.13791565326E+02  0.74272536836E+03  0.74306152009E+03  0.00000000000E+00 0. -1.
         22    1    3    3    0    0  0.31728417962E+02 -0.18401716209E+02  0.35402169049E+03  0.35591666581E+03  0.00000000000E+00 0. -1.
         22    1    3    3    0    0  0.20457713435E+02  0.38056670169E+02  0.32328154580E+02  0.53962373575E+02  0.00000000000E+00 0. -1.
</event>
<event>
 7    1  0.6105960E-006  0.9539631E+02  0.7818608E-02  0.1311355E+00
          2   -1    0    0  502    0  0.00000000000E+00  0.00000000000E+00  0.68706322383E+03  0.68706322383E+03  0.00000000000E+00 0. -1.
          1   -1    0    0  501    0 -0.00000000000E+00 -0.00000000000E+00 -0.25099883908E+03  0.25099883908E+03  0.00000000000E+00 0. -1.
         25    2    1    2    0    0  0.13584966443E+03  0.96747139169E+01  0.65425502006E-01  0.18486068785E+03  0.12499895286E+03 0.  0.
          2    1    1    2  501    0 -0.80086708071E+02  0.45684832225E+02 -0.14231614020E+03  0.16957260529E+03  0.00000000000E+00 0. -1.
          1    1    1    2  502    0 -0.55762956355E+02 -0.55359546142E+02  0.57831509945E+03  0.58362876977E+03  0.00000000000E+00 0. -1.
         22    1    3    3    0    0  0.22804109834E+02 -0.35901654673E+02 -0.38137835952E+02  0.57126620456E+02  0.00000000000E+00 0.  1.
         22    1    3    3    0    0  0.11304555459E+03  0.45576368590E+02  0.38203261454E+02  0.12773406739E+03  0.00000000000E+00 0.  1.
</event>
<event>
 7    1  0.6105960E-006  0.8146614E+02  0.7818608E-02  0.1327112E+00
          2   -1    0    0  502    0  0.00000000000E+00  0.00000000000E+00  0.32410480759E+04  0.32410480759E+04  0.00000000000E+00 0. -1.
          1   -1    0    0  501    0 -0.00000000000E+00 -0.00000000000E+00 -0.73302465012E+02  0.73302465012E+02  0.00000000000E+00 0. -1.
         25    2    1    2    0    0  0.53369460436E+02  0.63982813556E+02  0.72507444565E+02  0.16680679805E+03  0.12500031448E+03 0.  0.
          2    1    1    2  501    0 -0.95499487617E+02  0.39263562452E+01  0.63496963603E+02  0.11474943484E+03  0.00000000000E+00 0. -1.
          1    1    1    2  502    0  0.42130027180E+02 -0.67909169801E+02  0.30317412028E+04  0.30327943081E+04  0.00000000000E+00 0. -1.
         22    1    3    3    0    0  0.40625864794E+02 -0.25212252365E+02  0.58612455267E+02  0.75640851873E+02  0.00000000000E+00 0. -1.
         22    1    3    3    0    0  0.12743595642E+02  0.89195065921E+02  0.13894989297E+02  0.91165946176E+02  0.00000000000E+00 0. -1.
</event>
<event>
 7    1  0.6105960E-006  0.8199714E+02  0.7818608E-02  0.1481912E+00
          2   -1    0    0  502    0  0.00000000000E+00  0.00000000000E+00  0.92028623440E+03  0.92028623440E+03  0.00000000000E+00 0. -1.
          1   -1    0    0  501    0 -0.00000000000E+00 -0.00000000000E+00 -0.38674902876E+03  0.38674902876E+03  0.00000000000E+00 0. -1.
         25    2    1    2    0    0  0.12925790809E+02  0.93701856046E+02 -0.29418739406E+03  0.33334291882E+03  0.12499665917E+03 0.  0.
          2    1    1    2  501    0  0.16032877097E+02 -0.17053738999E+02 -0.69190467847E+02  0.73042480809E+02  0.00000000000E+00 0. -1.
          1    1    1    2  502    0 -0.28958667906E+02 -0.76648117047E+02  0.89691506755E+03  0.90064986354E+03  0.00000000000E+00 0. -1.
         22    1    3    3    0    0 -0.33366661007E+02  0.83150548444E+01 -0.14587944849E+02  0.37353478268E+02  0.00000000000E+00 0.  1.
         22    1    3    3    0    0  0.46292451816E+02  0.85386801202E+02 -0.27959944921E+03  0.29598944055E+03  0.00000000000E+00 0.  1.
</event>
<event>
 7    1  0.6105960E-006  0.9085355E+02  0.7818608E-02  0.1388927E+00
          2   -1    0    0  502    0  0.00000000000E+00  0.00000000000E+00  0.10776554746E+04  0.10776554746E+04  0.00000000000E+00 0. -1.
          1   -1    0    0  501    0 -0.00000000000E+00 -0.00000000000E+00 -0.11504973877E+04  0.11504973877E+04  0.00000000000E+00 0. -1.
         25    2    1    2    0    0 -0.56825101653E+02  0.77896179184E+02  0.95654702606E+02  0.18458546562E+03  0.12500026031E+03 0.  0.
          2    1    1    2  501    0  0.80381133214E+02 -0.42463683791E+02 -0.11036794789E+04  0.11074171225E+04  0.00000000000E+00 0. -1.
          1    1    1    2  502    0 -0.23556031561E+02 -0.35432495393E+02  0.93518286321E+03  0.93615027426E+03  0.00000000000E+00 0. -1.
         22    1    3    3    0    0 -0.13583247640E+02 -0.33135071136E+02  0.37999993826E+02  0.52215295522E+02  0.00000000000E+00 0.  1.
         22    1    3    3    0    0 -0.43241854013E+02  0.11103125032E+03  0.57654708780E+02  0.13237017009E+03  0.00000000000E+00 0.  1.
</event>
<event>
 7    1  0.6105960E-006  0.3367545E+03  0.7818608E-02  0.1152892E+00
          2   -1    0    0  502    0  0.00000000000E+00  0.00000000000E+00  0.35726105843E+03  0.35726105843E+03  0.00000000000E+00 0. -1.
          1   -1    0    0  501    0 -0.00000000000E+00 -0.00000000000E+00 -0.26101427354E+04  0.26101427354E+04  0.00000000000E+00 0. -1.
         25    2    1    2    0    0  0.23377100397E+03  0.92403277978E+02 -0.34520509966E+03  0.44494943550E+03  0.12500476488E+03 0.  0.
          2    1    1    2  501    0 -0.34776871230E+03 -0.10240177179E+03 -0.21889631156E+04  0.22187809088E+04  0.00000000000E+00 0. -1.
          1    1    1    2  502    0  0.11399770833E+03  0.99984938096E+01  0.28128653820E+03  0.30367344954E+03  0.00000000000E+00 0. -1.
         22    1    3    3    0    0  0.20848162271E+03  0.30584137008E+02 -0.28897206551E+03  0.35763784907E+03  0.00000000000E+00 0. -1.
         22    1    3    3    0    0  0.25289381263E+02  0.61819140970E+02 -0.56233034147E+02  0.87311586426E+02  0.00000000000E+00 0. -1.
</event>
<event>
 7    1  0.6105960E-006  0.7961085E+02  0.7818608E-02  0.1392889E+00
          2   -1    0    0  502    0  0.00000000000E+00  0.00000000000E+00  0.79729114905E+03  0.79729114905E+03  0.00000000000E+00 0. -1.
          1   -1    0    0  501    0 -0.00000000000E+00 -0.00000000000E+00 -0.30309023173E+04  0.30309023173E+04  0.00000000000E+00 0. -1.
         25    2    1    2    0    0 -0.34851701649E+02 -0.80579689342E+02  0.42490256221E+03  0.45152430086E+03  0.12499711779E+03 0.  0.
          2    1    1    2  501    0  0.47019659154E+02  0.12959374588E+01 -0.30129260691E+04  0.30132932193E+04  0.00000000000E+00 0. -1.
          1    1    1    2  502    0 -0.12167957505E+02  0.79283751883E+02  0.35441233862E+03  0.36337594618E+03  0.00000000000E+00 0. -1.
         22    1    3    3    0    0 -0.41394885487E+02 -0.32303269877E+02  0.38496330166E+03  0.38852770997E+03  0.00000000000E+00 0.  1.
         22    1    3    3    0    0  0.65431838382E+01 -0.48276419464E+02  0.39939260546E+02  0.62996590892E+02  0.00000000000E+00 0.  1.
</event>
<event>
 7    1  0.6105960E-006  0.5322871E+02  0.7818608E-02  0.1505829E+00
          2   -1    0    0  502    0  0.00000000000E+00  0.00000000000E+00  0.30038988203E+02  0.30038988203E+02  0.00000000000E+00 0. -1.
          1   -1    0    0  501    0 -0.00000000000E+00 -0.00000000000E+00 -0.69797670130E+03  0.69797670130E+03  0.00000000000E+00 0. -1.
         25    2    1    2    0    0 -0.72668553658E+02 -0.20226641410E+02 -0.25426804171E+03  0.29320121731E+03  0.12499952435E+03 0.  0.
          2    1    1    2  501    0  0.51559023211E+02 -0.18575924689E+01 -0.39635478011E+03  0.39969850543E+03  0.00000000000E+00 0. -1.
          1    1    1    2  502    0  0.21109530447E+02  0.22084233879E+02 -0.17314891279E+02  0.35115966763E+02  0.00000000000E+00 0. -1.
         22    1    3    3    0    0  0.27066218351E+02 -0.24284550744E+02 -0.28001217159E+02  0.45895400020E+02  0.00000000000E+00 0. -1.
         22    1    3    3    0    0 -0.99734772008E+02  0.40579093341E+01 -0.22626682455E+03  0.24730581729E+03  0.00000000000E+00 0. -1.
</event>
<event>
 7    1  0.6105960E-006  0.7988712E+02  0.7818608E-02  0.1468731E+00
          2   -1    0    0  502    0  0.00000000000E+00  0.00000000000E+00  0.48087663820E+02  0.48087663820E+02  0.00000000000E+00 0. -1.
          1   -1    0    0  501    0 -0.00000000000E+00 -0.00000000000E+00 -0.10585642768E+04  0.10585642768E+04  0.00000000000E+00 0. -1.
         25    2    1    2    0    0 -0.55149075175E+02  0.92126876677E+01 -0.14676576336E+03  0.20072813072E+03  0.12500119624E+03 0.  0.
          2    1    1    2  501    0  0.78943539696E+02 -0.20615168939E+02 -0.87385481560E+03  0.87765557390E+03  0.00000000000E+00 0. -1.
          1    1    1    2  502    0 -0.23794464521E+02  0.11402481271E+02  0.10143965978E+02  0.28268236003E+02  0.00000000000E+00 0. -1.
         22    1    3    3    0    0 -0.51062807910E+02  0.62714129939E+02 -0.69353829582E+02  0.10653837864E+03  0.00000000000E+00 0.  1.
         22    1    3    3    0    0 -0.40862672654E+01 -0.53501442271E+02 -0.77411933778E+02  0.94189752078E+02  0.00000000000E+00 0.  1.
</event>
<event>
 7    1  0.6105960E-006  0.3561773E+03  0.7818608E-02  0.1173144E+00
          2   -1    0    0  502    0  0.00000000000E+00  0.00000000000E+00  0.26668309407E+04  0.26668309407E+04  0.00000000000E+00 0. -1.
          1   -1    0    0  501    0 -0.00000000000E+00 -0.00000000000E+00 -0.78139833386E+03  0.78139833386E+03  0.00000000000E+00 0. -1.
         25    2    1    2    0    0  0.17040774339E+03 -0.33249113555E+03  0.10525196769E+04  0.11238384655E+04  0.12500428751E+03 0.  0.
          2    1    1    2  501    0 -0.85292154277E+02 -0.70166968687E+01 -0.72378585575E+03  0.72882779214E+03  0.00000000000E+00 0. -1.
          1    1    1    2  502    0 -0.85115589117E+02  0.33950783242E+03  0.15566987857E+04  0.15955630169E+04  0.00000000000E+00 0. -1.
         22    1    3    3    0    0 -0.38162377731E+01 -0.33100323873E+02  0.32254889112E+02  0.46374270699E+02  0.00000000000E+00 0. -1.
         22    1    3    3    0    0  0.17422398117E+03 -0.29939081167E+03  0.10202647878E+04  0.10774641948E+04  0.00000000000E+00 0. -1.
</event>
<event>
 7    1  0.6105960E-006  0.4538773E+02  0.7818608E-02  0.1536321E+00
          2   -1    0    0  502    0  0.00000000000E+00  0.00000000000E+00  0.20419051341E+03  0.20419051341E+03  0.00000000000E+00 0. -1.
          1   -1    0    0  501    0 -0.00000000000E+00 -0.00000000000E+00 -0.10203572879E+03  0.10203572879E+03  0.00000000000E+00 0. -1.
         25    2    1    2    0    0  0.12696699038E+02  0.31640884605E+02  0.70520290152E+02  0.14751330868E+03  0.12499885268E+03 0.  0.
          2    1    1    2  501    0  0.28499198554E+02 -0.64858417269E+01 -0.53433399044E+02  0.60904832276E+02  0.00000000000E+00 0. -1.
          1    1    1    2  502    0 -0.41195897593E+02 -0.25155042878E+02  0.85067893517E+02  0.97808101239E+02  0.00000000000E+00 0. -1.
         22    1    3    3    0    0  0.27927122179E+01 -0.15068758999E+02 -0.31412432727E+02  0.34951504533E+02  0.00000000000E+00 0.  1.
         22    1    3    3    0    0  0.99039868204E+01  0.46709643603E+02  0.10193272288E+03  0.11256180415E+03  0.00000000000E+00 0.  1.
</event>
<event>
 7    1  0.6105960E-006  0.7986523E+02  0.7818608E-02  0.1353313E+00
          2   -1    0    0  502    0  0.00000000000E+00  0.00000000000E+00  0.17473601349E+04  0.17473601349E+04  0.00000000000E+00 0. -1.
          1   -1    0    0  501    0 -0.00000000000E+00 -0.00000000000E+00 -0.10053207483E+03  0.10053207483E+03  0.00000000000E+00 0. -1.
         25    2    1    2    0    0  0.24602954109E+02 -0.47230922113E+02  0.36787526502E+03  0.39216082804E+03  0.12498735566E+03 0.  0.
          2    1    1    2  501    0  0.58144354332E+02  0.28986382371E+02 -0.74944574500E+02  0.99185006683E+02  0.00000000000E+00 0. -1.
          1    1    1    2  502    0 -0.82747308441E+02  0.18244539743E+02  0.13538973696E+04  0.13565463751E+04  0.00000000000E+00 0. -1.
         22    1    3    3    0    0 -0.24875982804E+02 -0.33176580976E+02  0.32022638326E+02  0.52392264802E+02  0.00000000000E+00 0. -1.
         22    1    3    3    0    0  0.49478936912E+02 -0.14054341137E+02  0.33585262670E+03  0.33976856324E+03  0.00000000000E+00 0. -1.
</event>
<event>
 7    1  0.6105960E-006  0.7103773E+02  0.7818608E-02  0.1359770E+00
          2   -1    0    0  502    0  0.00000000000E+00  0.00000000000E+00  0.32143639750E+03  0.32143639750E+03  0.00000000000E+00 0. -1.
          1   -1    0    0  501    0 -0.00000000000E+00 -0.00000000000E+00 -0.36807834162E+03  0.36807834162E+03  0.00000000000E+00 0. -1.
         25    2    1    2    0    0 -0.86098205864E+01  0.38677089734E+02  0.12525885929E+03  0.18134059560E+03  0.12499833399E+03 0.  0.
          2    1    1    2  501    0  0.59876184968E+02  0.34621660092E+02 -0.32422960641E+03  0.33152474198E+03  0.00000000000E+00 0. -1.
          1    1    1    2  502    0 -0.51266364382E+02 -0.73298749825E+02  0.15232880300E+03  0.17664940154E+03  0.00000000000E+00 0. -1.
         22    1    3    3    0    0  0.23732005631E+02  0.70933958420E+02  0.40506112509E+02  0.85062210758E+02  0.00000000000E+00 0.  1.
         22    1    3    3    0    0 -0.32341826217E+02 -0.32256868687E+02  0.84752746780E+02  0.96278384840E+02  0.00000000000E+00 0.  1.
</event>
<event>
 7    1  0.6105960E-006  0.7573925E+02  0.7818608E-02  0.1430743E+00
          2   -1    0    0  502    0  0.00000000000E+00  0.00000000000E+00  0.16604662893E+03  0.16604662893E+03  0.00000000000E+00 0. -1.
          1   -1    0    0  501    0 -0.00000000000E+00 -0.00000000000E+00 -0.16437323182E+04  0.16437323182E+04  0.00000000000E+00 0. -1.
         25    2    1    2    0    0  0.46496987505E+02 -0.68399426104E+01 -0.69596517676E+02  0.15059027027E+03  0.12499999827E+03 0.  0.
          2    1    1    2  501    0 -0.74584105300E+02 -0.16974392831E+02 -0.15299626166E+04  0.15318735349E+04  0.00000000000E+00 0. -1.
          1    1    1    2  502    0  0.28087117795E+02  0.23814335442E+02  0.12187344503E+03  0.12731514192E+03  0.00000000000E+00 0. -1.
         22    1    3    3    0    0  0.10865668809E+02 -0.60020841542E+02 -0.60538067454E+02  0.85938476768E+02  0.00000000000E+00 0. -1.
         22    1    3    3    0    0  0.35631318695E+02  0.53180898932E+02 -0.90584502224E+01  0.64651793507E+02  0.00000000000E+00 0. -1.
</event>
<event>
 7    1  0.6105960E-006  0.1296498E+03  0.7818608E-02  0.1431724E+00
          2   -1    0    0  502    0  0.00000000000E+00  0.00000000000E+00  0.36470140055E+04  0.36470140055E+04  0.00000000000E+00 0. -1.
          1   -1    0    0  501    0 -0.00000000000E+00 -0.00000000000E+00 -0.43500409713E+02  0.43500409713E+02  0.00000000000E+00 0. -1.
         25    2    1    2    0    0 -0.21196353689E+02  0.10693990601E+03  0.31147153311E+04  0.31191283771E+04  0.12499923943E+03 0.  0.
          2    1    1    2  501    0  0.26704173928E+02 -0.12757011361E+03  0.62486739245E+02  0.14454009607E+03  0.00000000000E+00 0. -1.
          1    1    1    2  502    0 -0.55078202392E+01  0.20630207599E+02  0.42631152548E+03  0.42684594212E+03  0.00000000000E+00 0. -1.
         22    1    3    3    0    0 -0.57253712662E+02  0.61040153822E+02  0.25565553566E+04  0.25579247798E+04  0.00000000000E+00 0. -1.
         22    1    3    3    0    0  0.36057358973E+02  0.45899752188E+02  0.55815997452E+03  0.56120359723E+03  0.00000000000E+00 0. -1.
</event>
<event>
 7    1  0.6105960E-006  0.7545299E+02  0.7818608E-02  0.1389786E+00
          2   -1    0    0  502    0  0.00000000000E+00  0.00000000000E+00  0.10873977511E+04  0.10873977511E+04  0.00000000000E+00 0. -1.
          1   -1    0    0  501    0 -0.00000000000E+00 -0.00000000000E+00 -0.15663559850E+04  0.15663559850E+04  0.00000000000E+00 0. -1.
         25    2    1    2    0    0 -0.58794196723E+02 -0.45167044672E+02  0.35852566383E+03  0.38686894309E+03  0.12502043036E+03 0.  0.
          2    1    1    2  501    0 -0.19022429329E+02  0.47189894279E+02 -0.15496459839E+04  0.15504810268E+04  0.00000000000E+00 0. -1.
          1    1    1    2  502    0  0.77816626051E+02 -0.20228496070E+01  0.71216208621E+03  0.71640376621E+03  0.00000000000E+00 0. -1.
         22    1    3    3    0    0 -0.63559467646E+02  0.29801230151E+02  0.17727352076E+03  0.19066677846E+03  0.00000000000E+00 0. -1.
         22    1    3    3    0    0  0.47652709230E+01 -0.74968274822E+02  0.18125214306E+03  0.19620216462E+03  0.00000000000E+00 0. -1.
</event>
<event>
 7    1  0.6105960E-006  0.1781477E+03  0.7818608E-02  0.1192150E+00
          2   -1    0    0  502    0  0.00000000000E+00  0.00000000000E+00  0.96133827893E+03  0.96133827893E+03  0.00000000000E+00 0. -1.
          1   -1    0    0  501    0 -0.00000000000E+00 -0.00000000000E+00 -0.12858003797E+04  0.12858003797E+04  0.00000000000E+00 0. -1.
         25    2    1    2    0    0 -0.88581472684E+02 -0.30706916536E+02  0.18596496162E+03  0.24289509075E+03  0.12500186453E+03 0.  0.
          2    1    1    2  501    0 -0.13434408739E+03 -0.32949825263E+02 -0.12353917073E+04  0.12431116986E+04  0.00000000000E+00 0. -1.
          1    1    1    2  502    0  0.22292556008E+03  0.63656741799E+02  0.72496464488E+03  0.76113186928E+03  0.00000000000E+00 0. -1.
         22    1    3    3    0    0 -0.24672174564E+02 -0.22666659386E+02 -0.11317374410E+02  0.35363492602E+02  0.00000000000E+00 0. -1.
         22    1    3    3    0    0 -0.63909298120E+02 -0.80402571495E+01  0.19728233603E+03  0.20753159815E+03  0.00000000000E+00 0. -1.
</event>
<event>
 7    1  0.6105960E-006  0.3516135E+02  0.7818608E-02  0.1611746E+00
          2   -1    0    0  502    0  0.00000000000E+00  0.00000000000E+00  0.43112373942E+03  0.43112373942E+03  0.00000000000E+00 0. -1.
          1   -1    0    0  501    0 -0.00000000000E+00 -0.00000000000E+00 -0.58511251118E+02  0.58511251118E+02  0.00000000000E+00 0. -1.
         25    2    1    2    0    0  0.66412229062E+01  0.13342014381E+02  0.10654343653E+03  0.16491385489E+03  0.12499184164E+03 0.  0.
          2    1    1    2  501    0 -0.26909239035E+02 -0.25411210604E+02 -0.16959012439E+02  0.40711728933E+02  0.00000000000E+00 0. -1.
          1    1    1    2  502    0  0.20268016129E+02  0.12069196223E+02  0.28302806421E+03  0.28400940672E+03  0.00000000000E+00 0. -1.
         22    1    3    3    0    0  0.34342980276E+02  0.38717385216E+02  0.11526221351E+03  0.12634814631E+03  0.00000000000E+00 0.  1.
         22    1    3    3    0    0 -0.27701757369E+02 -0.25375370835E+02 -0.87187769751E+01  0.38565708580E+02  0.00000000000E+00 0.  1.
</event>
<event>
 7    1  0.6105960E-006  0.1216270E+03  0.7818608E-02  0.1383705E+00
          2   -1    0    0  502    0  0.00000000000E+00  0.00000000000E+00  0.54510650663E+03  0.54510650663E+03  0.00000000000E+00 0. -1.
          1   -1    0    0  501    0 -0.00000000000E+00 -0.00000000000E+00 -0.21222566593E+03  0.21222566593E+03  0.00000000000E+00 0. -1.
         25    2    1    2    0    0 -0.82655291138E+02  0.79222689333E+02  0.78731447089E+02  0.18690211272E+03  0.12500250926E+03 0.  0.
          2    1    1    2  501    0  0.10872142847E+03 -0.58737605595E+02 -0.13318298425E+03  0.18168148671E+03  0.00000000000E+00 0. -1.
          1    1    1    2  502    0 -0.26066137333E+02 -0.20485083738E+02  0.38733237786E+03  0.38874857313E+03  0.00000000000E+00 0. -1.
         22    1    3    3    0    0  0.22406620358E+02  0.34510307013E+02 -0.99452721197E+01  0.42331151219E+02  0.00000000000E+00 0. -1.
         22    1    3    3    0    0 -0.10506191150E+03  0.44712382319E+02  0.88676719209E+02  0.14457096150E+03  0.00000000000E+00 0. -1.
</event>
<event>
 7    1  0.6105960E-006  0.1050494E+03  0.7818608E-02  0.1354046E+00
          2   -1    0    0  502    0  0.00000000000E+00  0.00000000000E+00  0.14436866708E+03  0.14436866708E+03  0.00000000000E+00 0. -1.
          1   -1    0    0  501    0 -0.00000000000E+00 -0.00000000000E+00 -0.58176068871E+03  0.58176068871E+03  0.00000000000E+00 0. -1.
         25    2    1    2    0    0  0.57714974809E+02 -0.62783114759E+02 -0.54061558859E+02  0.16068341406E+03  0.12499507828E+03 0.  0.
          2    1    1    2  501    0  0.46130030322E+02  0.16780338069E+02 -0.43705442768E+03  0.43980237858E+03  0.00000000000E+00 0. -1.
          1    1    1    2  502    0 -0.10384500513E+03  0.46002776689E+02  0.53723964922E+02  0.12564356315E+03  0.00000000000E+00 0. -1.
         22    1    3    3    0    0  0.93924026735E+02 -0.57407599357E+02 -0.56997528759E+02  0.12395996752E+03  0.00000000000E+00 0.  1.
         22    1    3    3    0    0 -0.36209051925E+02 -0.53755154021E+01  0.29359699002E+01  0.36723446549E+02  0.00000000000E+00 0.  1.
</event>
<event>
 7    1  0.6105960E-006  0.1884911E+03  0.7818608E-02  0.1175237E+00
          2   -1    0    0  502    0  0.00000000000E+00  0.00000000000E+00  0.84533042668E+03  0.84533042668E+03  0.00000000000E+00 0. -1.
          1   -1    0    0  501    0 -0.00000000000E+00 -0.00000000000E+00 -0.10090495083E+04  0.10090495083E+04  0.00000000000E+00 0. -1.
         25    2    1    2    0    0 -0.37610724229E+02  0.37620521576E+02  0.28345024153E+02  0.13876344362E+03  0.12498793010E+03 0.  0.
          2    1    1    2  501    0  0.90844007863E+02 -0.18629438611E+03 -0.93417414875E+03  0.95689057486E+03  0.00000000000E+00 0. -1.
          1    1    1    2  502    0 -0.53233283634E+02  0.14867386454E+03  0.74211004298E+03  0.75872591650E+03  0.00000000000E+00 0. -1.
         22    1    3    3    0    0 -0.37078406500E+02 -0.31103117651E+02 -0.22404506740E+02  0.53330798592E+02  0.00000000000E+00 0. -1.
         22    1    3    3    0    0 -0.53231772853E+00  0.68723639227E+02  0.50749530893E+02  0.85432645029E+02  0.00000000000E+00 0. -1.
</event>
<event>
 7    1  0.6105960E-006  0.9654649E+02  0.7818608E-02  0.1399178E+00
          2   -1    0    0  502    0  0.00000000000E+00  0.00000000000E+00  0.38928253073E+03  0.38928253073E+03  0.00000000000E+00 0. -1.
          1   -1    0    0  501    0 -0.00000000000E+00 -0.00000000000E+00 -0.13613790044E+03  0.13613790044E+03  0.00000000000E+00 0. -1.
         25    2    1    2    0    0  0.83504717484E+02 -0.58633116371E+01  0.12106015148E+03  0.19309984516E+03  0.12499829463E+03 0.  0.
          2    1    1    2  501    0 -0.95004851205E+02 -0.29190068189E+02 -0.73398037694E+02  0.12355263563E+03  0.00000000000E+00 0. -1.
          1    1    1    2  502    0  0.11500133721E+02  0.35053379826E+02  0.20548251650E+03  0.20876795037E+03  0.00000000000E+00 0. -1.
         22    1    3    3    0    0  0.54530955785E+01  0.51490091876E+02  0.28389829139E+02  0.59050387055E+02  0.00000000000E+00 0.  1.
         22    1    3    3    0    0  0.78051621906E+02 -0.57353403513E+02  0.92670322341E+02  0.13404945811E+03  0.00000000000E+00 0.  1.
</event>
<event>
 7    1  0.6105960E-006  0.6430207E+02  0.7818608E-02  0.1512310E+00
          2   -1    0    0  502    0  0.00000000000E+00  0.00000000000E+00  0.58347548297E+03  0.58347548297E+03  0.00000000000E+00 0. -1.
          1   -1    0    0  501    0 -0.00000000000E+00 -0.00000000000E+00 -0.10863998956E+03  0.10863998956E+03  0.00000000000E+00 0. -1.
         25    2    1    2    0    0  0.40858564708E+02  0.42587398172E+01 -0.27030775243E+02  0.13432463768E+03  0.12499954521E+03 0.  0.
          2    1    1    2  501    0  0.22875835672E+02  0.78988827457E+01 -0.20312894318E+02  0.31596042188E+02  0.00000000000E+00 0. -1.
          1    1    1    2  502    0 -0.63734400380E+02 -0.12157622563E+02  0.52217916298E+03  0.52619479266E+03  0.00000000000E+00 0. -1.
         22    1    3    3    0    0  0.61138710762E+02  0.22029723967E+02  0.29745460683E+02  0.71470575225E+02  0.00000000000E+00 0.  1.
         22    1    3    3    0    0 -0.20280146054E+02 -0.17770984149E+02 -0.56776235925E+02  0.62854062458E+02  0.00000000000E+00 0.  1.
</event>
<event>
 7    1  0.6105960E-006  0.8130975E+02  0.7818608E-02  0.1336857E+00
          2   -1    0    0  502    0  0.00000000000E+00  0.00000000000E+00  0.15512047980E+02  0.15512047980E+02  0.00000000000E+00 0. -1.
          1   -1    0    0  501    0 -0.00000000000E+00 -0.00000000000E+00 -0.29851865154E+04  0.29851865154E+04  0.00000000000E+00 0. -1.
         25    2    1    2    0    0 -0.56636396932E+02 -0.74393963226E+01 -0.86021038263E+03  0.87112013336E+03  0.12500143313E+03 0.  0.
          2    1    1    2  501    0  0.38453009655E+02 -0.71811091657E+02 -0.19390518455E+04  0.19407620994E+04  0.00000000000E+00 0. -1.
          1    1    1    2  502    0  0.18183387277E+02  0.79250487980E+02 -0.17041223927E+03  0.18881633062E+03  0.00000000000E+00 0. -1.
         22    1    3    3    0    0 -0.55149360511E+02 -0.61163168735E+02 -0.45952905684E+03  0.46685044635E+03  0.00000000000E+00 0. -1.
         22    1    3    3    0    0 -0.14870364208E+01  0.53723772412E+02 -0.40068132579E+03  0.40426968701E+03  0.00000000000E+00 0. -1.
</event>
<event>
 7    1  0.6105960E-006  0.5045159E+02  0.7818608E-02  0.1457761E+00
          2   -1    0    0  502    0  0.00000000000E+00  0.00000000000E+00  0.23989850313E+04  0.23989850313E+04  0.00000000000E+00 0. -1.
          1   -1    0    0  501    0 -0.00000000000E+00 -0.00000000000E+00 -0.72878070463E+03  0.72878070463E+03  0.00000000000E+00 0. -1.
         25    2    1    2    0    0  0.64373470125E+02 -0.22858627225E+02  0.10882374920E+04  0.10975206542E+04  0.12499714790E+03 0.  0.
          2    1    1    2  501    0 -0.40045437613E+02 -0.21023902434E+02 -0.72295028290E+03  0.72436368842E+03  0.00000000000E+00 0. -1.
          1    1    1    2  502    0 -0.24328032512E+02  0.43882529659E+02  0.13049171175E+04  0.13058813932E+04  0.00000000000E+00 0. -1.
         22    1    3    3    0    0  0.63393055835E+02  0.42075052380E+02  0.66329467127E+03  0.66764422449E+03  0.00000000000E+00 0.  1.
         22    1    3    3    0    0  0.98041429002E+00 -0.64933679605E+02  0.42494282072E+03  0.42987642974E+03  0.00000000000E+00 0.  1.
</event>
<event>
 7    1  0.6105960E-006  0.1098038E+03  0.7818608E-02  0.1369241E+00
          2   -1    0    0  502    0  0.00000000000E+00  0.00000000000E+00  0.57273617426E+03  0.57273617426E+03  0.00000000000E+00 0. -1.
          1   -1    0    0  501    0 -0.00000000000E+00 -0.00000000000E+00 -0.10514094388E+04  0.10514094388E+04  0.00000000000E+00 0. -1.
         25    2    1    2    0    0 -0.46681411821E+01 -0.13286456129E+03  0.18628146053E+03  0.26076932840E+03  0.12500030764E+03 0.  0.
          2    1    1    2  501    0 -0.26933769015E+02  0.10620422363E+03 -0.10099683568E+04  0.10158941120E+04  0.00000000000E+00 0. -1.
          1    1    1    2  502    0  0.31601910198E+02  0.26660337659E+02  0.34501363167E+03  0.34748217273E+03  0.00000000000E+00 0. -1.
         22    1    3    3    0    0 -0.45412020927E+02 -0.91413520138E+02  0.17343769017E+03  0.20124441776E+03  0.00000000000E+00 0. -1.
         22    1    3    3    0    0  0.40743879745E+02 -0.41451041155E+02  0.12843770355E+02  0.59524910638E+02  0.00000000000E+00 0. -1.
</event>
<event>
 7    1  0.6105960E-006  0.1805689E+03  0.7818608E-02  0.1235688E+00
          2   -1    0    0  502    0  0.00000000000E+00  0.00000000000E+00  0.31899054984E+03  0.31899054984E+03  0.00000000000E+00 0. -1.
          1   -1    0    0  501    0 -0.00000000000E+00 -0.00000000000E+00 -0.92466693915E+03  0.92466693915E+03  0.00000000000E+00 0. -1.
         25    2    1    2    0    0 -0.15111905197E+03 -0.12934304871E+03 -0.15842160337E+03  0.28335402235E+03  0.12500202178E+03 0.  0.
          2    1    1    2  501    0  0.17409210409E+03  0.46482960423E+02 -0.68457178524E+03  0.70788929606E+03  0.00000000000E+00 0. -1.
          1    1    1    2  502    0 -0.22973052127E+02  0.82860088286E+02  0.23731699931E+03  0.25241417059E+03  0.00000000000E+00 0. -1.
         22    1    3    3    0    0 -0.14625198201E+03 -0.13300992865E+03 -0.94451683111E+02  0.21909450884E+03  0.00000000000E+00 0. -1.
         22    1    3    3    0    0 -0.48670699588E+01  0.36668799367E+01 -0.63969920263E+02  0.64259513513E+02  0.00000000000E+00 0. -1.
</event>
<event>
 7    1  0.6105960E-006  0.5038625E+02  0.7818608E-02  0.1449430E+00
          2   -1    0    0  502    0  0.00000000000E+00  0.00000000000E+00  0.89290185217E+03  0.89290185217E+03  0.00000000000E+00 0. -1.
          1   -1    0    0  501    0 -0.00000000000E+00 -0.00000000000E+00 -0.34072168103E+04  0.34072168103E+04  0.00000000000E+00 0. -1.
         25    2    1    2    0    0 -0.81005973376E+02 -0.48050275448E+02 -0.16609014739E+03  0.22821276981E+03  0.12499733816E+03 0.  0.
          2    1    1    2  501    0  0.34244744639E+02  0.36615237120E+02 -0.32091971998E+04  0.32095887658E+04  0.00000000000E+00 0. -1.
          1    1    1    2  502    0  0.46761228737E+02  0.11435038327E+02  0.86097238907E+03  0.86231712690E+03  0.00000000000E+00 0. -1.
         22    1    3    3    0    0 -0.10679058793E+03 -0.20619533300E+02 -0.82422964822E+02  0.13646589301E+03  0.00000000000E+00 0.  1.
         22    1    3    3    0    0  0.25784614558E+02 -0.27430742148E+02 -0.83667182570E+02  0.91746876796E+02  0.00000000000E+00 0.  1.
</event>
<event>
 7    1  0.6105960E-006  0.1311224E+03  0.7818608E-02  0.1235603E+00
          2   -1    0    0  502    0  0.00000000000E+00  0.00000000000E+00  0.69286755591E+03  0.69286755591E+03  0.00000000000E+00 0. -1.
          1   -1    0    0  501    0 -0.00000000000E+00 -0.00000000000E+00 -0.92755258658E+03  0.92755258658E+03  0.00000000000E+00 0. -1.
         25    2    1    2    0    0  0.79807642781E+01 -0.27381369687E+02  0.15955664267E+02  0.12920105876E+03  0.12499959343E+03 0.  0.
          2    1    1    2  501    0  0.38037452673E+02 -0.11224421291E+03 -0.85808867806E+03  0.86623425847E+03  0.00000000000E+00 0. -1.
          1    1    1    2  502    0 -0.46018216951E+02  0.13962558259E+03  0.60744798312E+03  0.62498482526E+03  0.00000000000E+00 0. -1.
         22    1    3    3    0    0  0.13793200063E+02  0.44972762619E+02  0.29269242944E+02  0.55402981220E+02  0.00000000000E+00 0. -1.
         22    1    3    3    0    0 -0.58124357847E+01 -0.72354132306E+02 -0.13313578677E+02  0.73798077541E+02  0.00000000000E+00 0. -1.
</event>
<event>
 7    1  0.6105960E-006  0.1344305E+03  0.7818608E-02  0.1262425E+00
          2   -1    0    0  502    0  0.00000000000E+00  0.00000000000E+00  0.25544892895E+03  0.25544892895E+03  0.00000000000E+00 0. -1.
          1   -1    0    0  501    0 -0.00000000000E+00 -0.00000000000E+00 -0.50919405054E+03  0.50919405054E+03  0.00000000000E+00 0. -1.
         25    2    1    2    0    0 -0.99125237532E+02 -0.14924696032E+03 -0.89784840353E+02  0.23619155141E+03  0.12499865408E+03 0.  0.
          2    1    1    2  501    0  0.86209916754E+02  0.19495478294E+02 -0.31601594569E+03  0.32814372057E+03  0.00000000000E+00 0. -1.
          1    1    1    2  502    0  0.12915320778E+02  0.12975148202E+03  0.15205566445E+03  0.20030770751E+03  0.00000000000E+00 0. -1.
         22    1    3    3    0    0 -0.75384426088E+02 -0.85815452881E+02  0.11012057326E+02  0.11475351435E+03  0.00000000000E+00 0.  1.
         22    1    3    3    0    0 -0.23740811444E+02 -0.63431507434E+02 -0.10079689768E+03  0.12143803706E+03  0.00000000000E+00 0.  1.
</event>
<event>
 7    1  0.6105960E-006  0.4811288E+02  0.7818608E-02  0.1547452E+00
          2   -1    0    0  502    0  0.00000000000E+00  0.00000000000E+00  0.47646732840E+03  0.47646732840E+03  0.00000000000E+00 0. -1.
          1   -1    0    0  501    0 -0.00000000000E+00 -0.00000000000E+00 -0.15247137981E+04  0.15247137981E+04  0.00000000000E+00 0. -1.
         25    2    1    2    0    0 -0.48387075022E+02 -0.61321402770E+01  0.10026982767E+03  0.16750697493E+03  0.12500254452E+03 0.  0.
          2    1    1    2  501    0  0.39531771446E+01  0.25343489669E+02 -0.14892740868E+04  0.14894949566E+04  0.00000000000E+00 0. -1.
          1    1    1    2  502    0  0.44433897878E+02 -0.19211349392E+02  0.34075778941E+03  0.34417919500E+03  0.00000000000E+00 0. -1.
         22    1    3    3    0    0 -0.11133468959E+01 -0.50621663788E+02  0.32053644910E+01  0.50735261382E+02  0.00000000000E+00 0. -1.
         22    1    3    3    0    0 -0.47273728126E+02  0.44489523511E+02  0.97064463175E+02  0.11677171355E+03  0.00000000000E+00 0. -1.
</event>
<event>
 7    1  0.7993403E-006  0.9842986E+02  0.7818608E-02  0.1311350E+00
          2   -1    0    0  502    0  0.00000000000E+00  0.00000000000E+00  0.16846760140E+04  0.16846760140E+04  0.00000000000E+00 0. -1.
          1   -1    0    0  501    0 -0.00000000000E+00 -0.00000000000E+00 -0.85090372692E+03  0.85090372692E+03  0.00000000000E+00 0. -1.
         25    2    1    2    0    0 -0.12483124881E+03  0.70461009895E+02 -0.14879088206E+03  0.24146164341E+03  0.12496961255E+03 0.  0.
          2    1    1    2  501    0  0.49631935145E+02 -0.82506177954E+02 -0.65135151498E+03  0.65842949088E+03  0.00000000000E+00 0. -1.
          1    1    1    2  502    0  0.75199313666E+02  0.12045168059E+02  0.16339146841E+04  0.16356886066E+04  0.00000000000E+00 0. -1.
         22    1    3    3    0    0 -0.90505851137E+02 -0.13534435799E+02 -0.10916479732E+03  0.14244803619E+03  0.00000000000E+00 0.  1.
         22    1    3    3    0    0 -0.34325397673E+02  0.83995445694E+02 -0.39626084744E+02  0.99013607221E+02  0.00000000000E+00 0.  1.
</event>
<event>
 7    1  0.6105960E-006  0.6008461E+02  0.7818608E-02  0.1416319E+00
          2   -1    0    0  502    0  0.00000000000E+00  0.00000000000E+00  0.24635212154E+03  0.24635212154E+03  0.00000000000E+00 0. -1.
          1   -1    0    0  501    0 -0.00000000000E+00 -0.00000000000E+00 -0.19116863656E+03  0.19116863656E+03  0.00000000000E+00 0. -1.
         25    2    1    2    0    0 -0.34153718844E+02 -0.28744855329E+02  0.21282075317E+02  0.13442854308E+03  0.12500145298E+03 0.  0.
          2    1    1    2  501    0  0.61455882983E+02 -0.15316583198E+02 -0.12272879264E+03  0.13810785574E+03  0.00000000000E+00 0. -1.
          1    1    1    2  502    0 -0.27302164139E+02  0.44061438527E+02  0.15663020231E+03  0.16498435928E+03  0.00000000000E+00 0. -1.
         22    1    3    3    0    0  0.32513572693E+02 -0.32357611690E+02  0.44336035071E+02  0.63795230616E+02  0.00000000000E+00 0. -1.
         22    1    3    3    0    0 -0.66667291537E+02  0.36127563609E+01 -0.23053959754E+02  0.70633312465E+02  0.00000000000E+00 0. -1.
</event>
<event>
 7    1  0.6105960E-006  0.8184635E+02  0.7818608E-02  0.1491514E+00
          2   -1    0    0  502    0  0.00000000000E+00  0.00000000000E+00  0.43893601466E+03  0.43893601466E+03  0.00000000000E+00 0. -1.
          1   -1    0    0  501    0 -0.00000000000E+00 -0.00000000000E+00 -0.27032050879E+03  0.27032050879E+03  0.00000000000E+00 0. -1.
         25    2    1    2    0    0 -0.72810235972E+02  0.53328218042E+02  0.19039019258E+03  0.24498359883E+03  0.12499323568E+03 0.  0.
          2    1    1    2  501    0  0.75317356549E+02 -0.31546125720E+02 -0.23558803818E+03  0.24933829625E+03  0.00000000000E+00 0. -1.
          1    1    1    2  502    0 -0.25071205772E+01 -0.21782092322E+02  0.21381335147E+03  0.21493462836E+03  0.00000000000E+00 0. -1.
         22    1    3    3    0    0 -0.10495837534E+03  0.18923900358E+02  0.12340844142E+03  0.16310738172E+03  0.00000000000E+00 0.  1.
         22    1    3    3    0    0  0.32148139367E+02  0.34404317684E+02  0.66981751153E+02  0.81876217106E+02  0.00000000000E+00 0.  1.
</event>
<event>
 7    1  0.6105960E-006  0.1466117E+03  0.7818608E-02  0.1359057E+00
          2   -1    0    0  502    0  0.00000000000E+00  0.00000000000E+00  0.16689936280E+04  0.16689936280E+04  0.00000000000E+00 0. -1.
          1   -1    0    0  501    0 -0.00000000000E+00 -0.00000000000E+00 -0.22273832502E+04  0.22273832502E+04  0.00000000000E+00 0. -1.
         25    2    1    2    0    0 -0.99598632847E+02 -0.60320130050E+02  0.43232387834E+03  0.46485135677E+03  0.12499776940E+03 0.  0.
          2    1    1    2  501    0  0.11621706837E+03  0.89653921538E+02 -0.22084500504E+04  0.22133223574E+04  0.00000000000E+00 0. -1.
          1    1    1    2  502    0 -0.16618435519E+02 -0.29333791488E+02  0.12177365499E+04  0.12182031640E+04  0.00000000000E+00 0. -1.
         22    1    3    3    0    0 -0.20134302231E+02 -0.68973083874E+02  0.10054888054E+03  0.12358298347E+03  0.00000000000E+00 0.  1.
         22    1    3    3    0    0 -0.79464330617E+02  0.86529538242E+01  0.33177499780E+03  0.34126837330E+03  0.00000000000E+00 0.  1.
</event>
<event>
 7    1  0.6105960E-006  0.6470736E+02  0.7818608E-02  0.1442938E+00
          2   -1    0    0  502    0  0.00000000000E+00  0.00000000000E+00  0.91631754593E+03  0.91631754593E+03  0.00000000000E+00 0. -1.
          1   -1    0    0  501    0 -0.00000000000E+00 -0.00000000000E+00 -0.30471643966E+03  0.30471643966E+03  0.00000000000E+00 0. -1.
         25    2    1    2    0    0 -0.41121274120E+02  0.14803911583E+02  0.15004338523E+03  0.20012542246E+03  0.12500820885E+03 0.  0.
          2    1    1    2  501    0 -0.23052059258E+02 -0.31868009938E+02 -0.27679521208E+03  0.27957567298E+03  0.00000000000E+00 0. -1.
          1    1    1    2  502    0  0.64173333378E+02  0.17064098355E+02  0.73835293312E+03  0.74133289015E+03  0.00000000000E+00 0. -1.
         22    1    3    3    0    0 -0.61699224863E+02  0.46193913442E+02  0.14225284356E+03  0.16179166693E+03  0.00000000000E+00 0.  1.
         22    1    3    3    0    0  0.20577950743E+02 -0.31390001858E+02  0.77905416726E+01  0.38333755530E+02  0.00000000000E+00 0.  1.
</event>
<event>
 7    1  0.6105960E-006  0.1680412E+03  0.7818608E-02  0.1222204E+00
          2   -1    0    0  502    0  0.00000000000E+00  0.00000000000E+00  0.35036097671E+04  0.35036097671E+04  0.00000000000E+00 0. -1.
          1   -1    0    0  501    0 -0.00000000000E+00 -0.00000000000E+00 -0.14029633435E+03  0.14029633435E+03  0.00000000000E+00 0. -1.
         25    2    1    2    0    0  0.21253315116E+03  0.34322822041E+02  0.21226293422E+03  0.32715040462E+03  0.12499375003E+03 0.  0.
          2    1    1    2  501    0 -0.12687893346E+03 -0.97147752991E+02 -0.40661185594E+01  0.15985144037E+03  0.00000000000E+00 0. -1.
          1    1    1    2  502    0 -0.85654217701E+02  0.62824930950E+02  0.31551166171E+04  0.31569042565E+04  0.00000000000E+00 0. -1.
         22    1    3    3    0    0  0.20032732476E+01 -0.17887263172E+02 -0.64480384962E+01  0.19119217765E+02  0.00000000000E+00 0.  1.
         22    1    3    3    0    0  0.21052987791E+03  0.52210085213E+02  0.21871097271E+03  0.30803118686E+03  0.00000000000E+00 0.  1.
</event>
<event>
 7    1  0.6105960E-006  0.1533399E+03  0.7818608E-02  0.1380413E+00
          2   -1    0    0  502    0  0.00000000000E+00  0.00000000000E+00  0.19742307911E+03  0.19742307911E+03  0.00000000000E+00 0. -1.
          1   -1    0    0  501    0 -0.00000000000E+00 -0.00000000000E+00 -0.57775018189E+03  0.57775018189E+03  0.00000000000E+00 0. -1.
         25    2    1    2    0    0  0.10389360347E+03  0.88396154730E+02 -0.89108114155E+02  0.20536048600E+03  0.12499964876E+03 0.  0.
          2    1    1    2  501    0  0.26970651439E+02  0.14443116455E+01 -0.38466677148E+03  0.38561383164E+03  0.00000000000E+00 0. -1.
          1    1    1    2  502    0 -0.13086425491E+03 -0.89840466376E+02  0.93447782857E+02  0.18419894335E+03  0.00000000000E+00 0. -1.
         22    1    3    3    0    0  0.78036601236E+02  0.13293004750E+02  0.83887692654E+01  0.79603935566E+02  0.00000000000E+00 0.  1.
         22    1    3    3    0    0  0.25857002233E+02  0.75103149980E+02 -0.97496883420E+02  0.12575655044E+03  0.00000000000E+00 0.  1.
</event>
<event>
 7    1  0.6105960E-006  0.8767481E+02  0.7818608E-02  0.1388329E+00
          2   -1    0    0  502    0  0.00000000000E+00  0.00000000000E+00  0.70037703139E+03  0.70037703139E+03  0.00000000000E+00 0. -1.
          1   -1    0    0  501    0 -0.00000000000E+00 -0.00000000000E+00 -0.38583712168E+03  0.38583712168E+03  0.00000000000E+00 0. -1.
         25    2    1    2    0    0  0.31409758951E+02  0.12343967078E+03 -0.20058407687E+02  0.17958628769E+03  0.12499987892E+03 0.  0.
          2    1    1    2  501    0 -0.24006913755E+02 -0.37235472967E+02 -0.28125678257E+03  0.28472476200E+03  0.00000000000E+00 0. -1.
          1    1    1    2  502    0 -0.74028451965E+01 -0.86204197810E+02  0.61585509997E+03  0.62190310338E+03  0.00000000000E+00 0. -1.
         22    1    3    3    0    0  0.61102300489E+02  0.13365238685E+03 -0.18871819392E+02  0.14816408878E+03  0.00000000000E+00 0.  1.
         22    1    3    3    0    0 -0.29692541538E+02 -0.10212716078E+02 -0.11865882947E+01  0.31422198912E+02  0.00000000000E+00 0.  1.
</event>
<event>
 7    1  0.6105960E-006  0.9253577E+02  0.7818608E-02  0.1340950E+00
          2   -1    0    0  502    0  0.00000000000E+00  0.00000000000E+00  0.23197551712E+04  0.23197551712E+04  0.00000000000E+00 0. -1.
          1   -1    0    0  501    0 -0.00000000000E+00 -0.00000000000E+00 -0.20117540691E+03  0.20117540691E+03  0.00000000000E+00 0. -1.
         25    2    1    2    0    0  0.10372279905E+03 -0.16476170381E+02  0.62916165677E+03  0.64999835380E+03  0.12499434531E+03 0.  0.
          2    1    1    2  501    0 -0.82524260813E+02 -0.42148214656E+02 -0.17888697246E+03  0.20146283662E+03  0.00000000000E+00 0. -1.
          1    1    1    2  502    0 -0.21198538240E+02  0.58624385037E+02  0.16683050800E+04  0.16694693877E+04  0.00000000000E+00 0. -1.
         22    1    3    3    0    0  0.10171927353E+03 -0.49403403804E+02  0.57915183007E+03  0.59008842489E+03  0.00000000000E+00 0.  1.
         22    1    3    3    0    0  0.20035255278E+01  0.32927233423E+02  0.50009826695E+02  0.59909928906E+02  0.00000000000E+00 0.  1.
</event>
<event>
 7    1  0.6105960E-006  0.1365652E+03  0.7818608E-02  0.1271581E+00
          2   -1    0    0  502    0  0.00000000000E+00  0.00000000000E+00  0.31287001850E+04  0.31287001850E+04  0.00000000000E+00 0. -1.
          1   -1    0    0  501    0 -0.00000000000E+00 -0.00000000000E+00 -0.65237755926E+03  0.65237755926E+03  0.00000000000E+00 0. -1.
         25    2    1    2    0    0 -0.24493994332E+02  0.10457303984E+03  0.12851599105E+04  0.12956835506E+04  0.12499756622E+03 0.  0.
          2    1    1    2  501    0 -0.52004740726E+02 -0.12657355317E+03 -0.63900679890E+03  0.65349448847E+03  0.00000000000E+00 0. -1.
          1    1    1    2  502    0  0.76498735058E+02  0.22000513333E+02  0.18301695141E+04  0.18318997051E+04  0.00000000000E+00 0. -1.
         22    1    3    3    0    0  0.24573701374E+02  0.95891119074E+01  0.72105176747E+03  0.72153410816E+03  0.00000000000E+00 0. -1.
         22    1    3    3    0    0 -0.49067695706E+02  0.94983927935E+02  0.56410814298E+03  0.57414944248E+03  0.00000000000E+00 0. -1.
</event>
<event>
 7    1  0.6105960E-006  0.8310301E+02  0.7818608E-02  0.1415272E+00
          2   -1    0    0  502    0  0.00000000000E+00  0.00000000000E+00  0.22711462888E+03  0.22711462888E+03  0.00000000000E+00 0. -1.
          1   -1    0    0  501    0 -0.00000000000E+00 -0.00000000000E+00 -0.33841958196E+03  0.33841958196E+03  0.00000000000E+00 0. -1.
         25    2    1    2    0    0 -0.67323631911E+02  0.32455440637E+02  0.13079552114E+02  0.14622222042E+03  0.12499614402E+03 0.  0.
          2    1    1    2  501    0 -0.18608302622E+02 -0.32881627536E+02 -0.25783437722E+03  0.26058786701E+03  0.00000000000E+00 0. -1.
          1    1    1    2  502    0  0.85931934533E+02  0.42618689962E+00  0.13344987203E+03  0.15872412341E+03  0.00000000000E+00 0. -1.
         22    1    3    3    0    0 -0.78173190301E+02 -0.37212958812E+01  0.50431335652E+02  0.93103250966E+02  0.00000000000E+00 0.  1.
         22    1    3    3    0    0  0.10849558390E+02  0.36176736518E+02 -0.37351783538E+02  0.53118969454E+02  0.00000000000E+00 0.  1.
</event>
<event>
 7    1  0.6105960E-006  0.9340391E+02  0.7818608E-02  0.1404678E+00
          2   -1    0    0  502    0  0.00000000000E+00  0.00000000000E+00  0.55887902216E+03  0.55887902216E+03  0.00000000000E+00 0. -1.
          1   -1    0    0  501    0 -0.00000000000E+00 -0.00000000000E+00 -0.28397373784E+04  0.28397373784E+04  0.00000000000E+00 0. -1.
         25    2    1    2    0    0 -0.80305370950E+02  0.80114779870E+02 -0.14904158158E+03  0.22517924679E+03  0.12499987835E+03 0.  0.
          2    1    1    2  501    0 -0.18880777697E+01 -0.36463524056E+02 -0.26483425591E+04  0.26485942429E+04  0.00000000000E+00 0. -1.
          1    1    1    2  502    0  0.82193448720E+02 -0.43651255814E+02  0.51652578439E+03  0.52484291087E+03  0.00000000000E+00 0. -1.
         22    1    3    3    0    0 -0.20381794682E+02  0.78179725410E+02 -0.20515259650E+02  0.83356840739E+02  0.00000000000E+00 0.  1.
         22    1    3    3    0    0 -0.59923576268E+02  0.19350544604E+01 -0.12852632194E+03  0.14182240605E+03  0.00000000000E+00 0.  1.
</event>
<event>
 7    1  0.6105960E-006  0.1167425E+03  0.7818608E-02  0.1295859E+00
          2   -1    0    0  502    0  0.00000000000E+00  0.00000000000E+00  0.36913392823E+03  0.36913392823E+03  0.00000000000E+00 0. -1.
          1   -1    0    0  501    0 -0.00000000000E+00 -0.00000000000E+00 -0.21058297302E+04  0.21058297302E+04  0.00000000000E+00 0. -1.
         25    2    1    2    0    0 -0.55135872460E+02  0.89522918184E+02 -0.31263713930E+03  0.35273527964E+03  0.12500351725E+03 0.  0.
          2    1    1    2  501    0  0.11222490630E+03 -0.42427186900E+02 -0.17671639713E+04  0.17712320563E+04  0.00000000000E+00 0. -1.
          1    1    1    2  502    0 -0.57089033835E+02 -0.47095731283E+02  0.34310530856E+03  0.35099632256E+03  0.00000000000E+00 0. -1.
         22    1    3    3    0    0 -0.33643214117E+02  0.10879451304E+03 -0.30062049515E+03  0.32146662972E+03  0.00000000000E+00 0.  1.
         22    1    3    3    0    0 -0.21492658343E+02 -0.19271594860E+02 -0.12016644151E+02  0.31268649919E+02  0.00000000000E+00 0.  1.
</event>
<event>
 7    1  0.6105960E-006  0.1821470E+03  0.7818608E-02  0.1172616E+00
          2   -1    0    0  502    0  0.00000000000E+00  0.00000000000E+00  0.10443995580E+04  0.10443995580E+04  0.00000000000E+00 0. -1.
          1   -1    0    0  501    0 -0.00000000000E+00 -0.00000000000E+00 -0.36936257117E+03  0.36936257117E+03  0.00000000000E+00 0. -1.
         25    2    1    2    0    0  0.30324984111E+03  0.11598243515E+02  0.13309420393E+03  0.35416654140E+03  0.12499954618E+03 0.  0.
          2    1    1    2  501    0 -0.15584462350E+03  0.69736153742E+02 -0.22045035262E+03  0.27883514087E+03  0.00000000000E+00 0. -1.
          1    1    1    2  502    0 -0.14740521761E+03 -0.81334397258E+02  0.76239313557E+03  0.78076044695E+03  0.00000000000E+00 0. -1.
         22    1    3    3    0    0  0.15116714285E+02  0.16037349614E+02 -0.18304061294E+02  0.28648739820E+02  0.00000000000E+00 0. -1.
         22    1    3    3    0    0  0.28813312682E+03 -0.44391060982E+01  0.15139826522E+03  0.32551780158E+03  0.00000000000E+00 0. -1.
</event>
<event>
 7    1  0.6105960E-006  0.7051539E+02  0.7818608E-02  0.1373186E+00
          2   -1    0    0  502    0  0.00000000000E+00  0.00000000000E+00  0.20302013640E+03  0.20302013640E+03  0.00000000000E+00 0. -1.
          1   -1    0    0  501    0 -0.00000000000E+00 -0.00000000000E+00 -0.42162876737E+03  0.42162876737E+03  0.00000000000E+00 0. -1.
         25    2    1    2    0    0  0.19714179499E+02 -0.15724138040E+02 -0.14880461887E+03  0.19596818669E+03  0.12499927282E+03 0.  0.
          2    1    1    2  501    0  0.50076034439E+02  0.37090982507E+02 -0.23763278188E+03  0.24566784330E+03  0.00000000000E+00 0. -1.
          1    1    1    2  502    0 -0.69790213939E+02 -0.21366844467E+02  0.16782876978E+03  0.18301287378E+03  0.00000000000E+00 0. -1.
         22    1    3    3    0    0 -0.25234921701E+02 -0.54236226806E+02 -0.39556227218E+02  0.71715163552E+02  0.00000000000E+00 0. -1.
         22    1    3    3    0    0  0.44949101201E+02  0.38512088767E+02 -0.10924839165E+03  0.12425302313E+03  0.00000000000E+00 0. -1.
</event>
<event>
 7    1  0.6105960E-006  0.2463587E+02  0.7818608E-02  0.1666797E+00
          2   -1    0    0  502    0  0.00000000000E+00  0.00000000000E+00  0.11629357639E+04  0.11629357639E+04  0.00000000000E+00 0. -1.
          1   -1    0    0  501    0 -0.00000000000E+00 -0.00000000000E+00 -0.19949811941E+03  0.19949811941E+03  0.00000000000E+00 0. -1.
         25    2    1    2    0    0 -0.20506159737E+01  0.81963033107E+01  0.97665352987E+03  0.98465677557E+03  0.12500185538E+03 0.  0.
          2    1    1    2  501    0 -0.22688249018E+02  0.94214049194E+01 -0.19344918006E+03  0.19500283275E+03  0.00000000000E+00 0. -1.
          1    1    1    2  502    0  0.24738864992E+02 -0.17617708230E+02  0.18023329464E+03  0.18277427495E+03  0.00000000000E+00 0. -1.
         22    1    3    3    0    0  0.47333897102E+02 -0.66591756275E+01  0.17696089616E+03  0.18330303108E+03  0.00000000000E+00 0.  1.
         22    1    3    3    0    0 -0.49384513076E+02  0.14855478938E+02  0.79969263371E+03  0.80135374448E+03  0.00000000000E+00 0.  1.
</event>
<event>
 7    1  0.6105960E-006  0.1032931E+03  0.7818608E-02  0.1383564E+00
          2   -1    0    0  502    0  0.00000000000E+00  0.00000000000E+00  0.67176773097E+03  0.67176773097E+03  0.00000000000E+00 0. -1.
          1   -1    0    0  501    0 -0.00000000000E+00 -0.00000000000E+00 -0.21794915996E+03  0.21794915996E+03  0.00000000000E+00 0. -1.
         25    2    1    2    0    0 -0.65302507705E+02 -0.64446790834E+02  0.29351075977E+03  0.33195468766E+03  0.12501016838E+03 0.  0.
          2    1    1    2  501    0 -0.34628876862E+02  0.18116393744E+02 -0.18822426489E+03  0.19223874929E+03  0.00000000000E+00 0. -1.
          1    1    1    2  502    0  0.99931384566E+02  0.46330397089E+02  0.34853207613E+03  0.36552345398E+03  0.00000000000E+00 0. -1.
         22    1    3    3    0    0  0.23172734533E+02 -0.42250254100E+02  0.40311763050E+02  0.62825932842E+02  0.00000000000E+00 0.  1.
         22    1    3    3    0    0 -0.88475242237E+02 -0.22196536734E+02  0.25319899672E+03  0.26912875482E+03  0.00000000000E+00 0.  1.
</event>
<event>
 7    1  0.6105960E-006  0.1259160E+03  0.7818608E-02  0.1345451E+00
          2   -1    0    0  502    0  0.00000000000E+00  0.00000000000E+00  0.29689298498E+04  0.29689298498E+04  0.00000000000E+00 0. -1.
          1   -1    0    0  501    0 -0.00000000000E+00 -0.00000000000E+00 -0.95528198525E+03  0.95528198525E+03  0.00000000000E+00 0. -1.
         25    2    1    2    0    0  0.91206049902E+02 -0.16459361145E+02  0.35725075029E+03  0.38967011685E+03  0.12500098909E+03 0.  0.
          2    1    1    2  501    0 -0.12587204683E+03 -0.10751015180E+02 -0.93463537463E+03  0.94313447610E+03  0.00000000000E+00 0. -1.
          1    1    1    2  502    0  0.34665996925E+02  0.27210376325E+02  0.25910324889E+04  0.25914072421E+04  0.00000000000E+00 0. -1.
         22    1    3    3    0    0  0.66926379778E+02 -0.34906404549E+02  0.77219365747E+02  0.10798346093E+03  0.00000000000E+00 0. -1.
         22    1    3    3    0    0  0.24279670124E+02  0.18447043404E+02  0.28003138454E+03  0.28168665591E+03  0.00000000000E+00 0. -1.
</event>
<event>
 7    1  0.6105960E-006  0.6996979E+02  0.7818608E-02  0.1374322E+00
          2   -1    0    0  502    0  0.00000000000E+00  0.00000000000E+00  0.26132411788E+03  0.26132411788E+03  0.00000000000E+00 0. -1.
          1   -1    0    0  501    0 -0.00000000000E+00 -0.00000000000E+00 -0.29670475512E+04  0.29670475512E+04  0.00000000000E+00 0. -1.
         25    2    1    2    0    0 -0.35070952242E+02 -0.65678712818E+01 -0.65330262742E+03  0.66610997873E+03  0.12500028858E+03 0.  0.
          2    1    1    2  501    0 -0.87779694748E+01  0.61595842947E+02 -0.23020576647E+04  0.23028983026E+04  0.00000000000E+00 0. -1.
          1    1    1    2  502    0  0.43848921717E+02 -0.55027971665E+02  0.24963685882E+03  0.25936338771E+03  0.00000000000E+00 0. -1.
         22    1    3    3    0    0  0.46074401960E+02 -0.49399457314E+01 -0.30336412776E+03  0.30688279130E+03  0.00000000000E+00 0.  1.
         22    1    3    3    0    0 -0.81145354202E+02 -0.16279255504E+01 -0.34993849965E+03  0.35922718743E+03  0.00000000000E+00 0.  1.
</event>
<event>
 7    1  0.6105960E-006  0.2281442E+03  0.7818608E-02  0.1210150E+00
          2   -1    0    0  502    0  0.00000000000E+00  0.00000000000E+00  0.10723371620E+04  0.10723371620E+04  0.00000000000E+00 0. -1.
          1   -1    0    0  501    0 -0.00000000000E+00 -0.00000000000E+00 -0.70811502860E+03  0.70811502860E+03  0.00000000000E+00 0. -1.
         25    2    1    2    0    0  0.24380884703E+03  0.16925315846E+03  0.10824541049E+03  0.33975247282E+03  0.12500115341E+03 0.  0.
          2    1    1    2  501    0 -0.87758516763E+02 -0.13996914093E+02 -0.57460830745E+03  0.58143974568E+03  0.00000000000E+00 0. -1.
          1    1    1    2  502    0 -0.15605033027E+03 -0.15525624436E+03  0.83058503034E+03  0.85925997208E+03  0.00000000000E+00 0. -1.
         22    1    3    3    0    0  0.16083169822E+03  0.16499587948E+03  0.11279682733E+03  0.25654161389E+03  0.00000000000E+00 0.  1.
         22    1    3    3    0    0  0.82977148809E+02  0.42572789743E+01 -0.45514168409E+01  0.83210858931E+02  0.00000000000E+00 0.  1.
</event>
<event>
 7    1  0.6105960E-006  0.4068179E+02  0.7818608E-02  0.1519615E+00
          2   -1    0    0  502    0  0.00000000000E+00  0.00000000000E+00  0.30195915576E+03  0.30195915576E+03  0.00000000000E+00 0. -1.
          1   -1    0    0  501    0 -0.00000000000E+00 -0.00000000000E+00 -0.14550731512E+03  0.14550731512E+03  0.00000000000E+00 0. -1.
         25    2    1    2    0    0  0.30466449477E+02 -0.45240318976E+01 -0.37633171486E+02  0.13412799812E+03  0.12500157149E+03 0.  0.
          2    1    1    2  501    0 -0.20387726127E+02  0.39520873333E+02 -0.49790760425E+02  0.66758359996E+02  0.00000000000E+00 0. -1.
          1    1    1    2  502    0 -0.10078723351E+02 -0.34996841435E+02  0.24387577255E+03  0.24658011277E+03  0.00000000000E+00 0. -1.
         22    1    3    3    0    0 -0.72490972407E+01 -0.58539051625E+02 -0.34145711217E+02  0.68156434549E+02  0.00000000000E+00 0. -1.
         22    1    3    3    0    0  0.37715546718E+02  0.54015019727E+02 -0.34874602682E+01  0.65971563567E+02  0.00000000000E+00 0. -1.
</event>
<event>
 7    1  0.6105960E-006  0.1656412E+03  0.7818608E-02  0.1342174E+00
          2   -1    0    0  502    0  0.00000000000E+00  0.00000000000E+00  0.55344253592E+03  0.55344253592E+03  0.00000000000E+00 0. -1.
          1   -1    0    0  501    0 -0.00000000000E+00 -0.00000000000E+00 -0.19036947875E+03  0.19036947875E+03  0.00000000000E+00 0. -1.
         25    2    1    2    0    0  0.17857323111E+03  0.76448817904E+02  0.49577458238E+02  0.23625319847E+03  0.12499931517E+03 0.  0.
          2    1    1    2  501    0 -0.33878236527E+02 -0.63022723763E+01 -0.77485205689E+02  0.84802185396E+02  0.00000000000E+00 0. -1.
          1    1    1    2  502    0 -0.14469499458E+03 -0.70146545528E+02  0.39098080462E+03  0.42275663080E+03  0.00000000000E+00 0. -1.
         22    1    3    3    0    0  0.17178358499E+03  0.74596321047E+02  0.81003696578E+02  0.20404854826E+03  0.00000000000E+00 0. -1.
         22    1    3    3    0    0  0.67896461182E+01  0.18524968576E+01 -0.31426238340E+02  0.32204650211E+02  0.00000000000E+00 0. -1.
</event>
<event>
 7    1  0.6105960E-006  0.8860296E+02  0.7818608E-02  0.1337457E+00
          2   -1    0    0  502    0  0.00000000000E+00  0.00000000000E+00  0.20317999073E+03  0.20317999073E+03  0.00000000000E+00 0. -1.
          1   -1    0    0  501    0 -0.00000000000E+00 -0.00000000000E+00 -0.16148232941E+03  0.16148232941E+03  0.00000000000E+00 0. -1.
         25    2    1    2    0    0 -0.39757378567E+02 -0.10073968500E+03  0.90786864807E+02  0.18867025552E+03  0.12500030884E+03 0.  0.
          2    1    1    2  501    0 -0.32206846373E+02  0.58875746836E+02 -0.62450229387E+02  0.91671509583E+02  0.00000000000E+00 0. -1.
          1    1    1    2  502    0  0.71964224940E+02  0.41863938168E+02  0.13361025901E+02  0.84320555046E+02  0.00000000000E+00 0. -1.
         22    1    3    3    0    0 -0.83592626620E+02 -0.70267017628E+02  0.44176194267E+02  0.11779947849E+03  0.00000000000E+00 0. -1.
         22    1    3    3    0    0  0.43835248053E+02 -0.30472667376E+02  0.46610670540E+02  0.70870777032E+02  0.00000000000E+00 0. -1.
</event>
<event>
 7    1  0.6105960E-006  0.1624288E+03  0.7818608E-02  0.1335482E+00
          2   -1    0    0  502    0  0.00000000000E+00  0.00000000000E+00  0.46938855331E+02  0.46938855331E+02  0.00000000000E+00 0. -1.
          1   -1    0    0  501    0 -0.00000000000E+00 -0.00000000000E+00 -0.17450049588E+04  0.17450049588E+04  0.00000000000E+00 0. -1.
         25    2    1    2    0    0  0.23335504372E+02 -0.13257404539E+03 -0.25705630558E+03  0.31594405030E+03  0.12498910115E+03 0.  0.
          2    1    1    2  501    0 -0.89903415905E+01  0.16694279018E+03 -0.14261280817E+04  0.14358941559E+04  0.00000000000E+00 0. -1.
          1    1    1    2  502    0 -0.14345162781E+02 -0.34368744793E+02 -0.14881716197E+02  0.40105607973E+02  0.00000000000E+00 0. -1.
         22    1    3    3    0    0 -0.24679270082E+02  0.14262146685E+02 -0.30682462486E+02  0.41879454439E+02  0.00000000000E+00 0.  1.
         22    1    3    3    0    0  0.48014774454E+02 -0.14683619207E+03 -0.22637384309E+03  0.27406459586E+03  0.00000000000E+00 0.  1.
</event>
<event>
 7    1  0.6105960E-006  0.4353489E+02  0.7818608E-02  0.1569574E+00
          2   -1    0    0  502    0  0.00000000000E+00  0.00000000000E+00  0.84912910461E+02  0.84912910461E+02  0.00000000000E+00 0. -1.
          1   -1    0    0  501    0 -0.00000000000E+00 -0.00000000000E+00 -0.20178269746E+03  0.20178269746E+03  0.00000000000E+00 0. -1.
         25    2    1    2    0    0  0.37706765601E+02  0.50654267732E+02 -0.26813530188E+02  0.14258815267E+03  0.12499904347E+03 0.  0.
          2    1    1    2  501    0 -0.19557305312E+02 -0.14974154713E+02 -0.99893553901E+02  0.10288554617E+03  0.00000000000E+00 0. -1.
          1    1    1    2  502    0 -0.18149460289E+02 -0.35680113019E+02  0.98372970931E+01  0.41221909076E+02  0.00000000000E+00 0. -1.
         22    1    3    3    0    0  0.72901342047E+02  0.48716112378E+02  0.13857275397E+02  0.88768740889E+02  0.00000000000E+00 0.  1.
         22    1    3    3    0    0 -0.35194576446E+02  0.19381553538E+01 -0.40670805585E+02  0.53819411780E+02  0.00000000000E+00 0.  1.
</event>
<event>
 7    1  0.6105960E-006  0.4587294E+03  0.7818608E-02  0.1112060E+00
          2   -1    0    0  502    0  0.00000000000E+00  0.00000000000E+00  0.15159778943E+04  0.15159778943E+04  0.00000000000E+00 0. -1.
          1   -1    0    0  501    0 -0.00000000000E+00 -0.00000000000E+00 -0.23757596936E+04  0.23757596936E+04  0.00000000000E+00 0. -1.
         25    2    1    2    0    0  0.32694189902E+03 -0.15147689400E+03  0.36940722151E+03  0.53096412894E+03  0.12499982465E+03 0.  0.
          2    1    1    2  501    0 -0.36748360975E+03  0.28381903222E+03 -0.22668530439E+04  0.23139187905E+04  0.00000000000E+00 0. -1.
          1    1    1    2  502    0  0.40541710732E+02 -0.13234213821E+03  0.10376640231E+04  0.10468546684E+04  0.00000000000E+00 0. -1.
         22    1    3    3    0    0  0.52184161764E+02 -0.49241190294E+02  0.14497233365E+03  0.16175555349E+03  0.00000000000E+00 0.  1.
         22    1    3    3    0    0  0.27475773726E+03 -0.10223570371E+03  0.22443488786E+03  0.36920857545E+03  0.00000000000E+00 0.  1.
</event>
<event>
 7    1  0.6105960E-006  0.1596274E+03  0.7818608E-02  0.1231558E+00
          2   -1    0    0  502    0  0.00000000000E+00  0.00000000000E+00  0.82930175790E+03  0.82930175790E+03  0.00000000000E+00 0. -1.
          1   -1    0    0  501    0 -0.00000000000E+00 -0.00000000000E+00 -0.25231687455E+03  0.25231687455E+03  0.00000000000E+00 0. -1.
         25    2    1    2    0    0 -0.49883901968E+02  0.80126736904E+02  0.15982735366E+03  0.22378099077E+03  0.12499780481E+03 0.  0.
          2    1    1    2  501    0 -0.77376778951E+01  0.10118242648E+03 -0.19335694747E+03  0.21836818501E+03  0.00000000000E+00 0. -1.
          1    1    1    2  502    0  0.57621579863E+02 -0.18130916339E+03  0.61051447717E+03  0.63946945668E+03  0.00000000000E+00 0. -1.
         22    1    3    3    0    0 -0.11043704851E+02  0.88299998029E+01  0.13932746752E+03  0.14004312021E+03  0.00000000000E+00 0.  1.
         22    1    3    3    0    0 -0.38840197117E+02  0.71296737101E+02  0.20499886146E+02  0.83737870556E+02  0.00000000000E+00 0.  1.
</event>
<event>
 7    1  0.6105960E-006  0.3443982E+02  0.7818608E-02  0.1592989E+00
          2   -1    0    0  502    0  0.00000000000E+00  0.00000000000E+00  0.56603874682E+03  0.56603874682E+03  0.00000000000E+00 0. -1.
          1   -1    0    0  501    0 -0.00000000000E+00 -0.00000000000E+00 -0.74486529218E+02  0.74486529218E+02  0.00000000000E+00 0. -1.
         25    2    1    2    0    0 -0.40510630704E+02  0.39051801206E+02  0.26496925216E+03  0.29832920733E+03  0.12500182790E+03 0.  0.
          2    1    1    2  501    0  0.31208681697E+02 -0.13756421240E+02 -0.52068486090E+02  0.62244262244E+02  0.00000000000E+00 0. -1.
          1    1    1    2  502    0  0.93019490070E+01 -0.25295379966E+02  0.27865145152E+03  0.27995180646E+03  0.00000000000E+00 0. -1.
         22    1    3    3    0    0 -0.16526898965E+02 -0.45646618881E+02  0.82188261978E+02  0.95455029263E+02  0.00000000000E+00 0.  1.
         22    1    3    3    0    0 -0.23983731739E+02  0.84698420087E+02  0.18278099019E+03  0.20287417807E+03  0.00000000000E+00 0.  1.
</event>
<event>
 7    1  0.6105960E-006  0.8985676E+02  0.7818608E-02  0.1346158E+00
          2   -1    0    0  502    0  0.00000000000E+00  0.00000000000E+00  0.11118812756E+04  0.11118812756E+04  0.00000000000E+00 0. -1.
          1   -1    0    0  501    0 -0.00000000000E+00 -0.00000000000E+00 -0.96342300007E+02  0.96342300007E+02  0.00000000000E+00 0. -1.
         25    2    1    2    0    0 -0.18629468561E+02  0.43965798319E+02  0.46393327974E+03  0.48284515351E+03  0.12500122278E+03 0.  0.
          2    1    1    2  501    0  0.79950120347E+02 -0.46682528467E+02 -0.60244749982E+02  0.11045682463E+03  0.00000000000E+00 0. -1.
          1    1    1    2  502    0 -0.61320651786E+02  0.27167301479E+01  0.61185044579E+03  0.61492159741E+03  0.00000000000E+00 0. -1.
         22    1    3    3    0    0  0.43580246342E+02  0.52291421072E+02  0.19036964691E+03  0.20217376945E+03  0.00000000000E+00 0.  1.
         22    1    3    3    0    0 -0.62209714903E+02 -0.83256227528E+01  0.27356363283E+03  0.28067138406E+03  0.00000000000E+00 0.  1.
</event>
<event>
 7    1  0.6105960E-006  0.1616852E+03  0.7818608E-02  0.1199627E+00
          2   -1    0    0  502    0  0.00000000000E+00  0.00000000000E+00  0.21720871824E+04  0.21720871824E+04  0.00000000000E+00 0. -1.
          1   -1    0    0  501    0 -0.00000000000E+00 -0.00000000000E+00 -0.13666996972E+03  0.13666996972E+03  0.00000000000E+00 0. -1.
         25    2    1    2    0    0 -0.52593752198E+02 -0.88112720158E+02  0.27383186877E+03  0.31802357075E+03  0.12500057991E+03 0.  0.
          2    1    1    2  501    0  0.11435996036E+03 -0.81523460906E+02 -0.65348110344E+02  0.15490206822E+03  0.00000000000E+00 0. -1.
          1    1    1    2  502    0 -0.61766208165E+02  0.16963618106E+03  0.18269334542E+04  0.18358315131E+04  0.00000000000E+00 0. -1.
         22    1    3    3    0    0  0.99313958844E+01  0.27350227133E+02  0.66822320934E+02  0.72882714847E+02  0.00000000000E+00 0. -1.
         22    1    3    3    0    0 -0.62525148083E+02 -0.11546294729E+03  0.20700954783E+03  0.24514085590E+03  0.00000000000E+00 0. -1.
</event>
<event>
 7    1  0.6105960E-006  0.1025159E+03  0.7818608E-02  0.1305538E+00
          2   -1    0    0  502    0  0.00000000000E+00  0.00000000000E+00  0.11116380156E+04  0.11116380156E+04  0.00000000000E+00 0. -1.
          1   -1    0    0  501    0 -0.00000000000E+00 -0.00000000000E+00 -0.32692255533E+03  0.32692255533E+03  0.00000000000E+00 0. -1.
         25    2    1    2    0    0  0.10375164966E+03  0.71830586900E+01  0.16941513903E+03  0.23482527890E+03  0.12500168454E+03 0.  0.
          2    1    1    2  501    0 -0.70012527196E+02 -0.76500191147E+02 -0.28337783047E+03  0.30175657078E+03  0.00000000000E+00 0. -1.
          1    1    1    2  502    0 -0.33739122464E+02  0.69317132457E+02  0.89867815169E+03  0.90197872124E+03  0.00000000000E+00 0. -1.
         22    1    3    3    0    0  0.10116316746E+03 -0.24554434068E+02  0.17389072753E+03  0.20266941507E+03  0.00000000000E+00 0. -1.
         22    1    3    3    0    0  0.25884822037E+01  0.31737492758E+02 -0.44755884968E+01  0.32155863836E+02  0.00000000000E+00 0. -1.
</event>
<event>
 7    1  0.6105960E-006  0.2726458E+02  0.7818608E-02  0.1636746E+00
          2   -1    0    0  502    0  0.00000000000E+00  0.00000000000E+00  0.44263545622E+03  0.44263545622E+03  0.00000000000E+00 0. -1.
          1   -1    0    0  501    0 -0.00000000000E+00 -0.00000000000E+00 -0.13777759456E+04  0.13777759456E+04  0.00000000000E+00 0. -1.
         25    2    1    2    0    0  0.28763978778E+02  0.19998180699E+02 -0.63047479412E+03  0.64370059377E+03  0.12499877875E+03 0.  0.
          2    1    1    2  501    0 -0.26678289017E+02  0.62125818729E+01 -0.74003823387E+03  0.74054501205E+03  0.00000000000E+00 0. -1.
          1    1    1    2  502    0 -0.20856897617E+01 -0.26210762572E+02  0.43537253864E+03  0.43616579598E+03  0.00000000000E+00 0. -1.
         22    1    3    3    0    0  0.69499086458E+02 -0.14554984413E+02 -0.44713209226E+03  0.45273510855E+03  0.00000000000E+00 0.  1.
         22    1    3    3    0    0 -0.40735107680E+02  0.34553165112E+02 -0.18334270186E+03  0.19096548521E+03  0.00000000000E+00 0.  1.
</event>
<event>
 7    1  0.6105960E-006  0.1128659E+03  0.7818608E-02  0.1365659E+00
          2   -1    0    0  502    0  0.00000000000E+00  0.00000000000E+00  0.14467145525E+04  0.14467145525E+04  0.00000000000E+00 0. -1.
          1   -1    0    0  501    0 -0.00000000000E+00 -0.00000000000E+00 -0.36590375503E+03  0.36590375503E+03  0.00000000000E+00 0. -1.
         25    2    1    2    0    0 -0.31862195398E+02 -0.10357576428E+03 -0.21575349567E+02  0.16683379539E+03  0.12499952454E+03 0.  0.
          2    1    1    2  501    0 -0.81419220547E+01  0.11438512901E+03 -0.25926992171E+03  0.28349804397E+03  0.00000000000E+00 0. -1.
          1    1    1    2  502    0  0.40004117452E+02 -0.10809364731E+02  0.13616560688E+04  0.13622864682E+04  0.00000000000E+00 0. -1.
         22    1    3    3    0    0 -0.77870306618E+02 -0.69023419127E+02 -0.30892064123E+02  0.10854647238E+03  0.00000000000E+00 0.  1.
         22    1    3    3    0    0  0.46008111220E+02 -0.34552345151E+02  0.93167145556E+01  0.58287323009E+02  0.00000000000E+00 0.  1.
</event>
<event>
 7    1  0.6105960E-006  0.5074451E+02  0.7818608E-02  0.1454136E+00
          2   -1    0    0  502    0  0.00000000000E+00  0.00000000000E+00  0.62911521878E+03  0.62911521878E+03  0.00000000000E+00 0. -1.
          1   -1    0    0  501    0 -0.00000000000E+00 -0.00000000000E+00 -0.18644884520E+03  0.18644884520E+03  0.00000000000E+00 0. -1.
         25    2    1    2    0    0  0.44910218101E+02 -0.16710841995E+02  0.37004601166E+03  0.39351540700E+03  0.12499657945E+03 0.  0.
          2    1    1    2  501    0 -0.28307172084E+02 -0.36479950458E+02 -0.16842849139E+03  0.17464317762E+03  0.00000000000E+00 0. -1.
          1    1    1    2  502    0 -0.16603046017E+02  0.53190792453E+02  0.24104885331E+03  0.24740547937E+03  0.00000000000E+00 0. -1.
         22    1    3    3    0    0 -0.24997083819E+02 -0.19911720224E+02  0.26728516707E+03  0.26918895099E+03  0.00000000000E+00 0. -1.
         22    1    3    3    0    0  0.69907301920E+02  0.32008782286E+01  0.10276084459E+03  0.12432645601E+03  0.00000000000E+00 0. -1.
</event>
<event>
 7    1  0.6105960E-006  0.1224931E+03  0.7818608E-02  0.1364553E+00
          2   -1    0    0  502    0  0.00000000000E+00  0.00000000000E+00  0.20683417553E+03  0.20683417553E+03  0.00000000000E+00 0. -1.
          1   -1    0    0  501    0 -0.00000000000E+00 -0.00000000000E+00 -0.41926278200E+03  0.41926278200E+03  0.00000000000E+00 0. -1.
         25    2    1    2    0    0  0.67385457834E+02 -0.62906045699E+02 -0.63155078429E+02  0.16766140481E+03  0.12499524878E+03 0.  0.
          2    1    1    2  501    0 -0.95748818570E+02  0.88993022708E+02 -0.28702781676E+03  0.31539271066E+03  0.00000000000E+00 0. -1.
          1    1    1    2  502    0  0.28363360736E+02 -0.26086977009E+02  0.13775428872E+03  0.14304284205E+03  0.00000000000E+00 0. -1.
         22    1    3    3    0    0 -0.14107365878E+02 -0.46866890538E+02  0.17411859509E+02  0.51948975469E+02  0.00000000000E+00 0.  1.
         22    1    3    3    0    0  0.81492823712E+02 -0.16039155161E+02 -0.80566937939E+02  0.11571242934E+03  0.00000000000E+00 0.  1.
</event>
<event>
 7    1  0.6105960E-006  0.7727170E+02  0.7818608E-02  0.1338694E+00
          2   -1    0    0  502    0  0.00000000000E+00  0.00000000000E+00  0.35840861019E+04  0.35840861019E+04  0.00000000000E+00 0. -1.
          1   -1    0    0  501    0 -0.00000000000E+00 -0.00000000000E+00 -0.11662497058E+03  0.11662497058E+03  0.00000000000E+00 0. -1.
         25    2    1    2    0    0  0.16209707823E+01  0.32943424128E+02  0.15655739452E+02  0.13022309568E+03  0.12500022293E+03 0.  0.
          2    1    1    2  501    0  0.20909217069E+02 -0.10566012005E+03 -0.97005055733E+01  0.10814506986E+03  0.00000000000E+00 0. -1.
          1    1    1    2  502    0 -0.22530187851E+02  0.72716695921E+02  0.34615058974E+04  0.34623429069E+04  0.00000000000E+00 0. -1.
         22    1    3    3    0    0 -0.24926284867E+01  0.10424685153E+01  0.68395425997E+02  0.68448770878E+02  0.00000000000E+00 0.  1.
         22    1    3    3    0    0  0.41135992690E+01  0.31900955613E+02 -0.52739686545E+02  0.61774324803E+02  0.00000000000E+00 0.  1.
</event>
<event>
 7    1  0.6105960E-006  0.1650755E+03  0.7818608E-02  0.1299093E+00
          2   -1    0    0  502    0  0.00000000000E+00  0.00000000000E+00  0.54196543866E+03  0.54196543866E+03  0.00000000000E+00 0. -1.
          1   -1    0    0  501    0 -0.00000000000E+00 -0.00000000000E+00 -0.23916791505E+03  0.23916791505E+03  0.00000000000E+00 0. -1.
         25    2    1    2    0    0 -0.19524628396E+03  0.11909582178E+02  0.20336766889E+03  0.30862042517E+03  0.12500083413E+03 0.  0.
          2    1    1    2  501    0  0.45518005503E+02  0.22545323407E+02 -0.16172546247E+03  0.16951491274E+03  0.00000000000E+00 0. -1.
          1    1    1    2  502    0  0.14972827846E+03 -0.34454905585E+02  0.26115531718E+03  0.30299801580E+03  0.00000000000E+00 0. -1.
         22    1    3    3    0    0 -0.48590415793E+02  0.60457975868E+02  0.63918291195E+02  0.10050742909E+03  0.00000000000E+00 0. -1.
         22    1    3    3    0    0 -0.14665586817E+03 -0.48548393690E+02  0.13944937769E+03  0.20811299608E+03  0.00000000000E+00 0. -1.
</event>
<event>
 7    1  0.6105960E-006  0.5705359E+02  0.7818608E-02  0.1529606E+00
          2   -1    0    0  502    0  0.00000000000E+00  0.00000000000E+00  0.25965749300E+03  0.25965749300E+03  0.00000000000E+00 0. -1.
          1   -1    0    0  501    0 -0.00000000000E+00 -0.00000000000E+00 -0.18209228815E+04  0.18209228815E+04  0.00000000000E+00 0. -1.
         25    2    1    2    0    0 -0.25741553242E+01  0.51797904424E+02  0.58917196177E+01  0.13545501932E+03  0.12499480278E+03 0.  0.
          2    1    1    2  501    0 -0.21704032075E+02 -0.52835804053E+02 -0.17548934704E+04  0.17558228213E+04  0.00000000000E+00 0. -1.
          1    1    1    2  502    0  0.24278187399E+02  0.10378996285E+01  0.18773636229E+03  0.18930253391E+03  0.00000000000E+00 0. -1.
         22    1    3    3    0    0  0.28603160846E+02  0.85043940603E+02  0.51111690798E+01  0.89870666477E+02  0.00000000000E+00 0. -1.
         22    1    3    3    0    0 -0.31177316170E+02 -0.33246036179E+02  0.78055053784E+00  0.45584352845E+02  0.00000000000E+00 0. -1.
</event>
<event>
 7    1  0.6105960E-006  0.1275763E+03  0.7818608E-02  0.1273803E+00
          2   -1    0    0  502    0  0.00000000000E+00  0.00000000000E+00  0.13108084511E+03  0.13108084511E+03  0.00000000000E+00 0. -1.
          1   -1    0    0  501    0 -0.00000000000E+00 -0.00000000000E+00 -0.37317720124E+03  0.37317720124E+03  0.00000000000E+00 0. -1.
         25    2    1    2    0    0  0.64870090285E+02 -0.36466119302E+02 -0.45509195211E+02  0.15242357069E+03  0.12499580626E+03 0.  0.
          2    1    1    2  501    0 -0.10767722431E+03  0.10804758046E+03 -0.21767726624E+03  0.26580454571E+03  0.00000000000E+00 0. -1.
          1    1    1    2  502    0  0.42807134028E+02 -0.71581461159E+02  0.21090105324E+02  0.86029929954E+02  0.00000000000E+00 0. -1.
         22    1    3    3    0    0 -0.27136216425E+02 -0.34230127146E+02  0.10181129823E+02  0.44852327150E+02  0.00000000000E+00 0.  1.
         22    1    3    3    0    0  0.92006306710E+02 -0.22359921561E+01 -0.55690325034E+02  0.10757124354E+03  0.00000000000E+00 0.  1.
</event>
<event>
 7    1  0.6105960E-006  0.2062311E+03  0.7818608E-02  0.1237462E+00
          2   -1    0    0  502    0  0.00000000000E+00  0.00000000000E+00  0.68380818807E+03  0.68380818807E+03  0.00000000000E+00 0. -1.
          1   -1    0    0  501    0 -0.00000000000E+00 -0.00000000000E+00 -0.75697103813E+03  0.75697103813E+03  0.00000000000E+00 0. -1.
         25    2    1    2    0    0 -0.94322627521E+02 -0.21077119252E+03  0.13862325933E+03  0.29692198297E+03  0.12500000915E+03 0.  0.
          2    1    1    2  501    0  0.73245838964E+02  0.10067472230E+02 -0.65379281284E+03  0.65795999046E+03  0.00000000000E+00 0. -1.
          1    1    1    2  502    0  0.21076788556E+02  0.20070372029E+03  0.44200670345E+03  0.48589725277E+03  0.00000000000E+00 0. -1.
         22    1    3    3    0    0 -0.10694725773E+03 -0.19443618218E+03  0.81867234579E+02  0.23652777633E+03  0.00000000000E+00 0.  1.
         22    1    3    3    0    0  0.12624630212E+02 -0.16335010340E+02  0.56756024751E+02  0.60394206646E+02  0.00000000000E+00 0.  1.
</event>
<event>
 7    1  0.6105960E-006  0.1396789E+03  0.7818608E-02  0.1413421E+00
          2   -1    0    0  502    0  0.00000000000E+00  0.00000000000E+00  0.15966006060E+03  0.15966006060E+03  0.00000000000E+00 0. -1.
          1   -1    0    0  501    0 -0.00000000000E+00 -0.00000000000E+00 -0.17429451014E+04  0.17429451014E+04  0.00000000000E+00 0. -1.
         25    2    1    2    0    0  0.12936272514E+03 -0.80355550858E+02 -0.46924125516E+03  0.50892540488E+03  0.12500393186E+03 0.  0.
          2    1    1    2  501    0 -0.30754367683E+01  0.22595324019E+02 -0.12192470073E+04  0.12194602379E+04  0.00000000000E+00 0. -1.
          1    1    1    2  502    0 -0.12628728837E+03  0.57760226839E+02  0.10520322171E+03  0.17421951919E+03  0.00000000000E+00 0. -1.
         22    1    3    3    0    0  0.28346314450E+02 -0.69701238866E+02 -0.95248487806E+02  0.12138389791E+03  0.00000000000E+00 0. -1.
         22    1    3    3    0    0  0.10101641069E+03 -0.10654311992E+02 -0.37399276735E+03  0.38754150697E+03  0.00000000000E+00 0. -1.
</event>
<event>
 7    1  0.6105960E-006  0.1079140E+03  0.7818608E-02  0.1405344E+00
          2   -1    0    0  502    0  0.00000000000E+00  0.00000000000E+00  0.19396995266E+04  0.19396995266E+04  0.00000000000E+00 0. -1.
          1   -1    0    0  501    0 -0.00000000000E+00 -0.00000000000E+00 -0.47584567643E+02  0.47584567643E+02  0.00000000000E+00 0. -1.
         25    2    1    2    0    0 -0.81891067255E+02  0.56734224131E+02  0.29400466244E+03  0.33464993355E+03  0.12500766938E+03 0.  0.
          2    1    1    2  501    0  0.13686259197E+02  0.28302297597E+02 -0.15704363312E+02  0.35142008581E+02  0.00000000000E+00 0. -1.
          1    1    1    2  502    0  0.68204808058E+02 -0.85036521728E+02  0.16138146598E+04  0.16174921521E+04  0.00000000000E+00 0. -1.
         22    1    3    3    0    0 -0.43671060368E+02  0.77835253853E+02  0.27096605398E+03  0.28528598049E+03  0.00000000000E+00 0. -1.
         22    1    3    3    0    0 -0.38220006887E+02 -0.21101029722E+02  0.23038608462E+02  0.49363953059E+02  0.00000000000E+00 0. -1.
</event>
<event>
 7    1  0.6105960E-006  0.9650228E+02  0.7818608E-02  0.1394276E+00
          2   -1    0    0  502    0  0.00000000000E+00  0.00000000000E+00  0.16098014698E+03  0.16098014698E+03  0.00000000000E+00 0. -1.
          1   -1    0    0  501    0 -0.00000000000E+00 -0.00000000000E+00 -0.56380963647E+03  0.56380963647E+03  0.00000000000E+00 0. -1.
         25    2    1    2    0    0  0.59033628683E+02  0.67483299725E+02 -0.20596096265E+03  0.25706836772E+03  0.12500104995E+03 0.  0.
          2    1    1    2  501    0 -0.89739206006E+02 -0.44463566041E+02 -0.32180225127E+03  0.33702644217E+03  0.00000000000E+00 0. -1.
          1    1    1    2  502    0  0.30705577323E+02 -0.23019733684E+02  0.12493372442E+03  0.13069497357E+03  0.00000000000E+00 0. -1.
         22    1    3    3    0    0  0.40545215088E+02  0.92924937875E+02 -0.85669653371E+02  0.13273374874E+03  0.00000000000E+00 0.  1.
         22    1    3    3    0    0  0.18488413595E+02 -0.25441638150E+02 -0.12029130928E+03  0.12433461898E+03  0.00000000000E+00 0.  1.
</event>
<event>
 7    1  0.6105960E-006  0.5287812E+02  0.7818608E-02  0.1477096E+00
          2   -1    0    0  502    0  0.00000000000E+00  0.00000000000E+00  0.21134401943E+04  0.21134401943E+04  0.00000000000E+00 0. -1.
          1   -1    0    0  501    0 -0.00000000000E+00 -0.00000000000E+00 -0.27469218608E+03  0.27469218608E+03  0.00000000000E+00 0. -1.
         25    2    1    2    0    0 -0.67245970526E+02  0.22439699870E+02  0.10829038521E+04  0.10923967318E+04  0.12499722395E+03 0.  0.
          2    1    1    2  501    0  0.33639163202E+02  0.16693361715E+02 -0.26798722894E+03  0.27060564758E+03  0.00000000000E+00 0. -1.
          1    1    1    2  502    0  0.33606807324E+02 -0.39133061585E+02  0.10238313851E+04  0.10251300011E+04  0.00000000000E+00 0. -1.
         22    1    3    3    0    0  0.58061576532E+00  0.18589267134E+02  0.19951545524E+02  0.27275669305E+02  0.00000000000E+00 0. -1.
         22    1    3    3    0    0 -0.67826586291E+02  0.38504327368E+01  0.10629523066E+04  0.10651210625E+04  0.00000000000E+00 0. -1.
</event>
<event>
 7    1  0.6105960E-006  0.9921897E+02  0.7818608E-02  0.1410950E+00
          2   -1    0    0  502    0  0.00000000000E+00  0.00000000000E+00  0.14844300546E+03  0.14844300546E+03  0.00000000000E+00 0. -1.
          1   -1    0    0  501    0 -0.00000000000E+00 -0.00000000000E+00 -0.29402679677E+04  0.29402679677E+04  0.00000000000E+00 0. -1.
         25    2    1    2    0    0  0.11335252428E+03  0.41457364516E+02 -0.70011753649E+02  0.18733205299E+03  0.12499657834E+03 0.  0.
          2    1    1    2  501    0 -0.98154443886E+02 -0.12474859844E+02 -0.28077133047E+04  0.28094561606E+04  0.00000000000E+00 0. -1.
          1    1    1    2  502    0 -0.15198080399E+02 -0.28982504672E+02  0.85900096080E+02  0.91922759594E+02  0.00000000000E+00 0. -1.
         22    1    3    3    0    0  0.75642433392E+02  0.26956590246E+02 -0.10616609315E+03  0.13311526893E+03  0.00000000000E+00 0. -1.
         22    1    3    3    0    0  0.37710090892E+02  0.14500774270E+02  0.36154339502E+02  0.54216784065E+02  0.00000000000E+00 0. -1.
</event>
<event>
 7    1  0.6105960E-006  0.4435498E+02  0.7818608E-02  0.1488256E+00
          2   -1    0    0  502    0  0.00000000000E+00  0.00000000000E+00  0.16539942978E+04  0.16539942978E+04  0.00000000000E+00 0. -1.
          1   -1    0    0  501    0 -0.00000000000E+00 -0.00000000000E+00 -0.22424632707E+03  0.22424632707E+03  0.00000000000E+00 0. -1.
         25    2    1    2    0    0 -0.37239887353E+02 -0.63207434420E+02 -0.14068908948E+03  0.20199834881E+03  0.12501169565E+03 0.  0.
          2    1    1    2  501    0 -0.13258698769E+01  0.41366604320E+02 -0.44456930414E+02  0.60740205348E+02  0.00000000000E+00 0. -1.
          1    1    1    2  502    0  0.38565757230E+02  0.21840830100E+02  0.16148939906E+04  0.16155020707E+04  0.00000000000E+00 0. -1.
         22    1    3    3    0    0 -0.41008519691E+02 -0.88856008179E+02 -0.54542365831E+02  0.11203552360E+03  0.00000000000E+00 0. -1.
         22    1    3    3    0    0  0.37686323386E+01  0.25648573759E+02 -0.86146723651E+02  0.89962825219E+02  0.00000000000E+00 0. -1.
</event>
<event>
 7    1  0.6105960E-006  0.3969339E+02  0.7818608E-02  0.1519921E+00
          2   -1    0    0  502    0  0.00000000000E+00  0.00000000000E+00  0.17979794078E+04  0.17979794078E+04  0.00000000000E+00 0. -1.
          1   -1    0    0  501    0 -0.00000000000E+00 -0.00000000000E+00 -0.17573652499E+02  0.17573652499E+02  0.00000000000E+00 0. -1.
         25    2    1    2    0    0  0.10592013050E+02  0.51455344724E+01  0.11713319727E+04  0.11780397799E+04  0.12498186017E+03 0.  0.
          2    1    1    2  501    0  0.37209607237E+02 -0.17267567352E+01  0.12905549328E+02  0.39421945196E+02  0.00000000000E+00 0. -1.
          1    1    1    2  502    0 -0.47801620287E+02 -0.34187777372E+01  0.59616823327E+03  0.59809133526E+03  0.00000000000E+00 0. -1.
         22    1    3    3    0    0 -0.30877082124E+02  0.34792368546E+02  0.19868663416E+03  0.20405950530E+03  0.00000000000E+00 0.  1.
         22    1    3    3    0    0  0.41469095173E+02 -0.29646834074E+02  0.97264533858E+03  0.97398027458E+03  0.00000000000E+00 0.  1.
</event>
<event>
 7    1  0.6105960E-006  0.8230997E+02  0.7818608E-02  0.1328182E+00
          2   -1    0    0  502    0  0.00000000000E+00  0.00000000000E+00  0.14987942949E+02  0.14987942949E+02  0.00000000000E+00 0. -1.
          1   -1    0    0  501    0 -0.00000000000E+00 -0.00000000000E+00 -0.34912622127E+04  0.34912622127E+04  0.00000000000E+00 0. -1.
         25    2    1    2    0    0 -0.22737973670E+02 -0.33511683409E+02 -0.10377294378E+04  0.10460148735E+04  0.12499872435E+03 0.  0.
          2    1    1    2  501    0  0.95865523800E+02  0.53760143265E+01 -0.22924124358E+04  0.22944223404E+04  0.00000000000E+00 0. -1.
          1    1    1    2  502    0 -0.73127550130E+02  0.28135669083E+02 -0.14613239613E+03  0.16581294178E+03  0.00000000000E+00 0. -1.
         22    1    3    3    0    0 -0.47222797059E+02 -0.71801665864E+02 -0.67347997662E+03  0.67894090368E+03  0.00000000000E+00 0. -1.
         22    1    3    3    0    0  0.24484823390E+02  0.38289982455E+02 -0.36424946120E+03  0.36707396982E+03  0.00000000000E+00 0. -1.
</event>
<event>
 7    1  0.6105960E-006  0.1510307E+03  0.7818608E-02  0.1297145E+00
          2   -1    0    0  502    0  0.00000000000E+00  0.00000000000E+00  0.43534676282E+04  0.43534676282E+04  0.00000000000E+00 0. -1.
          1   -1    0    0  501    0 -0.00000000000E+00 -0.00000000000E+00 -0.45992689078E+02  0.45992689078E+02  0.00000000000E+00 0. -1.
         25    2    1    2    0    0  0.83876283421E+02 -0.10069489457E+03  0.13177517088E+04  0.13301387726E+04  0.12499958192E+03 0.  0.
          2    1    1    2  501    0 -0.49923387532E+02  0.14589077642E+03  0.11087967569E+03  0.18992305218E+03  0.00000000000E+00 0. -1.
          1    1    1    2  502    0 -0.33952895889E+02 -0.45195881852E+02  0.28788435546E+04  0.28793984925E+04  0.00000000000E+00 0. -1.
         22    1    3    3    0    0  0.92641393529E+02 -0.12111030242E+03  0.12378394220E+04  0.12471954810E+04  0.00000000000E+00 0. -1.
         22    1    3    3    0    0 -0.87651101077E+01  0.20415407855E+02  0.79912286852E+02  0.82943291609E+02  0.00000000000E+00 0. -1.
</event>
<event>
 7    1  0.6105960E-006  0.1692294E+03  0.7818608E-02  0.1361922E+00
          2   -1    0    0  502    0  0.00000000000E+00  0.00000000000E+00  0.72241021494E+03  0.72241021494E+03  0.00000000000E+00 0. -1.
          1   -1    0    0  501    0 -0.00000000000E+00 -0.00000000000E+00 -0.29313389287E+03  0.29313389287E+03  0.00000000000E+00 0. -1.
         25    2    1    2    0    0  0.97792464000E+02 -0.13357171897E+03 -0.10348910789E+03  0.23181860838E+03  0.12500040647E+03 0.  0.
          2    1    1    2  501    0 -0.78817558192E+02  0.15485524574E+03 -0.64822988548E+02  0.18545720385E+03  0.00000000000E+00 0. -1.
          1    1    1    2  502    0 -0.18974905808E+02 -0.21283526772E+02  0.59758841851E+03  0.59826829558E+03  0.00000000000E+00 0. -1.
         22    1    3    3    0    0  0.75314687172E+01 -0.34307065561E+02  0.27274087073E+02  0.44469917856E+02  0.00000000000E+00 0. -1.
         22    1    3    3    0    0  0.90260995283E+02 -0.99264653412E+02 -0.13076319496E+03  0.18734869053E+03  0.00000000000E+00 0. -1.
</event>
<event>
 7    1  0.6105960E-006  0.6258893E+02  0.7818608E-02  0.1534358E+00
          2   -1    0    0  502    0  0.00000000000E+00  0.00000000000E+00  0.25315991164E+03  0.25315991164E+03  0.00000000000E+00 0. -1.
          1   -1    0    0  501    0 -0.00000000000E+00 -0.00000000000E+00 -0.48929107359E+03  0.48929107359E+03  0.00000000000E+00 0. -1.
         25    2    1    2    0    0 -0.34421716619E+02 -0.37890470394E+02 -0.87678683443E+02  0.16104054388E+03  0.12500385162E+03 0.  0.
          2    1    1    2  501    0  0.26497006865E+02  0.57843863104E+02 -0.36161499855E+03  0.36716945822E+03  0.00000000000E+00 0. -1.
          1    1    1    2  502    0  0.79247097538E+01 -0.19953392710E+02  0.21316252004E+03  0.21424098314E+03  0.00000000000E+00 0. -1.
         22    1    3    3    0    0  0.10946141608E+02  0.41586699050E+02 -0.35009899919E+02  0.55452363758E+02  0.00000000000E+00 0. -1.
         22    1    3    3    0    0 -0.45367858227E+02 -0.79477169444E+02 -0.52668783524E+02  0.10558818012E+03  0.00000000000E+00 0. -1.
</event>
<event>
 7    1  0.6105960E-006  0.4221031E+02  0.7818608E-02  0.1548156E+00
          2   -1    0    0  502    0  0.00000000000E+00  0.00000000000E+00  0.13218121144E+04  0.13218121144E+04  0.00000000000E+00 0. -1.
          1   -1    0    0  501    0 -0.00000000000E+00 -0.00000000000E+00 -0.18536717169E+03  0.18536717169E+03  0.00000000000E+00 0. -1.
         25    2    1    2    0    0 -0.48020061615E+02  0.43711204686E+02  0.19671983282E+03  0.24195198689E+03  0.12500190239E+03 0.  0.
          2    1    1    2  501    0  0.38757087374E+02 -0.16120002604E+02 -0.15984879496E+03  0.16526827753E+03  0.00000000000E+00 0. -1.
          1    1    1    2  502    0  0.92629742414E+01 -0.27591202082E+02  0.10995739048E+04  0.10999590217E+04  0.00000000000E+00 0. -1.
         22    1    3    3    0    0  0.22911368000E+01 -0.41606965044E+02  0.53334621459E+02  0.67682868542E+02  0.00000000000E+00 0. -1.
         22    1    3    3    0    0 -0.50311198415E+02  0.85318169730E+02  0.14338521136E+03  0.17426911835E+03  0.00000000000E+00 0. -1.
</event>
<event>
 7    1  0.6105960E-006  0.8544663E+02  0.7818608E-02  0.1320709E+00
          2   -1    0    0  502    0  0.00000000000E+00  0.00000000000E+00  0.37937115283E+03  0.37937115283E+03  0.00000000000E+00 0. -1.
          1   -1    0    0  501    0 -0.00000000000E+00 -0.00000000000E+00 -0.93735094929E+02  0.93735094929E+02  0.00000000000E+00 0. -1.
         25    2    1    2    0    0 -0.18906178544E+02 -0.20214038563E+02  0.73479745599E+02  0.14760787911E+03  0.12499104776E+03 0.  0.
          2    1    1    2  501    0  0.64903103384E+02  0.92223824789E+02  0.19100936816E+02  0.11437872387E+03  0.00000000000E+00 0. -1.
          1    1    1    2  502    0 -0.45996924839E+02 -0.72009786226E+02  0.19305537548E+03  0.21111964477E+03  0.00000000000E+00 0. -1.
         22    1    3    3    0    0 -0.62393414233E+02 -0.43856460549E+02  0.57774057499E+02  0.95677421534E+02  0.00000000000E+00 0. -1.
         22    1    3    3    0    0  0.43487235688E+02  0.23642421986E+02  0.15705688099E+02  0.51930457574E+02  0.00000000000E+00 0. -1.
</event>
<event>
 7    1  0.6105960E-006  0.2058268E+03  0.7818608E-02  0.1309800E+00
          2   -1    0    0  502    0  0.00000000000E+00  0.00000000000E+00  0.17059965834E+04  0.17059965834E+04  0.00000000000E+00 0. -1.
          1   -1    0    0  501    0 -0.00000000000E+00 -0.00000000000E+00 -0.10072732587E+04  0.10072732587E+04  0.00000000000E+00 0. -1.
         25    2    1    2    0    0 -0.23433493583E+03 -0.10733931707E+02  0.12534135011E+04  0.12812845069E+04  0.12496600855E+03 0.  0.
          2    1    1    2  501    0  0.20524392141E+03 -0.12024329506E+02 -0.98189406771E+03  0.10031877252E+04  0.00000000000E+00 0. -1.
          1    1    1    2  502    0  0.29091014415E+02  0.22758261213E+02  0.42720389135E+03  0.42879761001E+03  0.00000000000E+00 0. -1.
         22    1    3    3    0    0 -0.75149367692E+02  0.54421597083E+02  0.49365321388E+03  0.50229735542E+03  0.00000000000E+00 0. -1.
         22    1    3    3    0    0 -0.15918556814E+03 -0.65155528790E+02  0.75976028726E+03  0.77898715145E+03  0.00000000000E+00 0. -1.
</event>
<event>
 7    1  0.6105960E-006  0.5647905E+02  0.7818608E-02  0.1478632E+00
          2   -1    0    0  502    0  0.00000000000E+00  0.00000000000E+00  0.10881367469E+04  0.10881367469E+04  0.00000000000E+00 0. -1.
          1   -1    0    0  501    0 -0.00000000000E+00 -0.00000000000E+00 -0.33641647696E+03  0.33641647696E+03  0.00000000000E+00 0. -1.
         25    2    1    2    0    0 -0.28912405211E+02  0.47219686331E+01  0.43937413391E+03  0.45774657956E+03  0.12499630946E+03 0.  0.
          2    1    1    2  501    0 -0.31187085891E+02 -0.15392012661E+02 -0.32484356583E+03  0.32670000098E+03  0.00000000000E+00 0. -1.
          1    1    1    2  502    0  0.60099491102E+02  0.10670044027E+02  0.63718970182E+03  0.64010664328E+03  0.00000000000E+00 0. -1.
         22    1    3    3    0    0 -0.67658586599E+01  0.64353171621E+02  0.22882411712E+03  0.23779735936E+03  0.00000000000E+00 0.  1.
         22    1    3    3    0    0 -0.22146546551E+02 -0.59631202988E+02  0.21055001679E+03  0.21994922020E+03  0.00000000000E+00 0.  1.
</event>
<event>
 7    1  0.6105960E-006  0.4929344E+02  0.7818608E-02  0.1456780E+00
          2   -1    0    0  502    0  0.00000000000E+00  0.00000000000E+00  0.31546586265E+03  0.31546586265E+03  0.00000000000E+00 0. -1.
          1   -1    0    0  501    0 -0.00000000000E+00 -0.00000000000E+00 -0.10778495048E+03  0.10778495048E+03  0.00000000000E+00 0. -1.
         25    2    1    2    0    0 -0.13886199168E+02 -0.22207042168E+02  0.14305724587E+02  0.12852055125E+03  0.12500759612E+03 0.  0.
          2    1    1    2  501    0 -0.21099974730E+02  0.53024900895E+02 -0.31423067037E+02  0.65147971499E+02  0.00000000000E+00 0. -1.
          1    1    1    2  502    0  0.34986173898E+02 -0.30817858727E+02  0.22479825462E+03  0.22958229039E+03  0.00000000000E+00 0. -1.
         22    1    3    3    0    0  0.22256785101E+02 -0.44565597837E+02 -0.36887545508E+02  0.61985062775E+02  0.00000000000E+00 0. -1.
         22    1    3    3    0    0 -0.36142984269E+02  0.22358555669E+02  0.51193270095E+02  0.66535488474E+02  0.00000000000E+00 0. -1.
</event>
<event>
 7    1  0.6105960E-006  0.3506934E+02  0.7818608E-02  0.1594968E+00
          2   -1    0    0  502    0  0.00000000000E+00  0.00000000000E+00  0.19476965231E+03  0.19476965231E+03  0.00000000000E+00 0. -1.
          1   -1    0    0  501    0 -0.00000000000E+00 -0.00000000000E+00 -0.18035475316E+03  0.18035475316E+03  0.00000000000E+00 0. -1.
         25    2    1    2    0    0 -0.50784532331E+02 -0.16456658157E+02  0.11218700715E+03  0.17624093399E+03  0.12500020768E+03 0.  0.
          2    1    1    2  501    0  0.18346092046E+02  0.18637368984E+02 -0.14177830239E+03  0.14417009969E+03  0.00000000000E+00 0. -1.
          1    1    1    2  502    0  0.32438440285E+02 -0.21807108265E+01  0.44006194396E+02  0.54713371794E+02  0.00000000000E+00 0. -1.
         22    1    3    3    0    0  0.30401204977E+02  0.29101348268E+02  0.26628703170E+02  0.49801702456E+02  0.00000000000E+00 0.  1.
         22    1    3    3    0    0 -0.81185737307E+02 -0.45558006425E+02  0.85558303977E+02  0.12643923153E+03  0.00000000000E+00 0.  1.
</event>
<event>
 7    1  0.6105960E-006  0.9689450E+02  0.7818608E-02  0.1312883E+00
          2   -1    0    0  502    0  0.00000000000E+00  0.00000000000E+00  0.16686430013E+04  0.16686430013E+04  0.00000000000E+00 0. -1.
          1   -1    0    0  501    0 -0.00000000000E+00 -0.00000000000E+00 -0.37572896677E+03  0.37572896677E+03  0.00000000000E+00 0. -1.
         25    2    1    2    0    0  0.39364180103E+02 -0.43603263227E+02  0.63810629720E+03  0.65288241568E+03  0.12500007575E+03 0.  0.
          2    1    1    2  501    0 -0.21208188122E+02 -0.73292813119E+02 -0.36091968005E+03  0.36889651549E+03  0.00000000000E+00 0. -1.
          1    1    1    2  502    0 -0.18155991982E+02  0.11689607635E+03  0.10157274174E+04  0.10225930369E+04  0.00000000000E+00 0. -1.
         22    1    3    3    0    0  0.45891161384E+02 -0.27557277118E+02  0.63237455480E+03  0.63463610028E+03  0.00000000000E+00 0.  1.
         22    1    3    3    0    0 -0.65269812802E+01 -0.16045986109E+02  0.57317424004E+01  0.18246315403E+02  0.00000000000E+00 0.  1.
</event>
<event>
 7    1  0.6160025E-006  0.4312231E+02  0.7818608E-02  0.1525285E+00
          2   -1    0    0  502    0  0.00000000000E+00  0.00000000000E+00  0.21745790371E+04  0.21745790371E+04  0.00000000000E+00 0. -1.
          1   -1    0    0  501    0 -0.00000000000E+00 -0.00000000000E+00 -0.24688182461E+04  0.24688182461E+04  0.00000000000E+00 0. -1.
         25    2    1    2    0    0  0.13913918949E+02  0.31178776032E+02 -0.54266993469E+03  0.55792567663E+03  0.12499875764E+03 0.  0.
          2    1    1    2  501    0  0.27347291407E+02 -0.18619178757E+02 -0.19181631673E+04  0.19184484576E+04  0.00000000000E+00 0. -1.
          1    1    1    2  502    0 -0.41261210356E+02 -0.12559597276E+02  0.21665938930E+04  0.21670231490E+04  0.00000000000E+00 0. -1.
         22    1    3    3    0    0  0.23822471630E+02 -0.36693425738E+02 -0.36267884843E+03  0.36530790403E+03  0.00000000000E+00 0. -1.
         22    1    3    3    0    0 -0.99085526806E+01  0.67872201771E+02 -0.17999108626E+03  0.19261777261E+03  0.00000000000E+00 0. -1.
</event>
<event>
 7    1  0.6105960E-006  0.2675785E+03  0.7818608E-02  0.1272704E+00
          2   -1    0    0  502    0  0.00000000000E+00  0.00000000000E+00  0.72376160993E+03  0.72376160993E+03  0.00000000000E+00 0. -1.
          1   -1    0    0  501    0 -0.00000000000E+00 -0.00000000000E+00 -0.17780803239E+04  0.17780803239E+04  0.00000000000E+00 0. -1.
         25    2    1    2    0    0 -0.23691869513E+03  0.15846694787E+03 -0.23801727474E+02  0.31214324309E+03  0.12499856120E+03 0.  0.
          2    1    1    2  501    0  0.20049027689E+03 -0.17543989780E+03 -0.15983725032E+04  0.16204228361E+04  0.00000000000E+00 0. -1.
          1    1    1    2  502    0  0.36428418243E+02  0.16972949929E+02  0.56785551675E+03  0.56927585457E+03  0.00000000000E+00 0. -1.
         22    1    3    3    0    0 -0.11738708385E+03  0.12333183417E+03  0.35868097242E+02  0.17400284243E+03  0.00000000000E+00 0.  1.
         22    1    3    3    0    0 -0.11953161129E+03  0.35135113701E+02 -0.59669824716E+02  0.13814040066E+03  0.00000000000E+00 0.  1.
</event>
<event>
 7    1  0.6105960E-006  0.7793885E+02  0.7818608E-02  0.1448176E+00
          2   -1    0    0  502    0  0.00000000000E+00  0.00000000000E+00  0.92730204850E+03  0.92730204850E+03  0.00000000000E+00 0. -1.
          1   -1    0    0  501    0 -0.00000000000E+00 -0.00000000000E+00 -0.10484143511E+03  0.10484143511E+03  0.00000000000E+00 0. -1.
         25    2    1    2    0    0  0.86981096472E+02  0.54301038605E+02  0.41131713345E+03  0.44195680598E+03  0.12501887917E+03 0.  0.
          2    1    1    2  501    0 -0.30681614687E+02 -0.67271053833E+01 -0.83951410734E+02  0.89635120298E+02  0.00000000000E+00 0. -1.
          1    1    1    2  502    0 -0.56299481785E+02 -0.47573933222E+02  0.49509489068E+03  0.50055155733E+03  0.00000000000E+00 0. -1.
         22    1    3    3    0    0  0.81348523467E+02  0.75781336599E+02  0.19471537970E+03  0.22421969659E+03  0.00000000000E+00 0.  1.
         22    1    3    3    0    0  0.56325730042E+01 -0.21480297994E+02  0.21660175374E+03  0.21773710939E+03  0.00000000000E+00 0.  1.
</event>
<event>
 7    1  0.6105960E-006  0.4682561E+02  0.7818608E-02  0.1501545E+00
          2   -1    0    0  502    0  0.00000000000E+00  0.00000000000E+00  0.59984593767E+01  0.59984593767E+01  0.00000000000E+00 0. -1.
          1   -1    0    0  501    0 -0.00000000000E+00 -0.00000000000E+00 -0.34045923679E+04  0.34045923679E+04  0.00000000000E+00 0. -1.
         25    2    1    2    0    0  0.46086320779E+02 -0.13002663143E+02 -0.22336200689E+04  0.22376274642E+04  0.12500015334E+03 0.  0.
          2    1    1    2  501    0 -0.25610077897E+02  0.42319938446E+02 -0.10750876089E+04  0.10762249858E+04  0.00000000000E+00 0. -1.
          1    1    1    2  502    0 -0.20476242882E+02 -0.29317275302E+02 -0.89886230756E+02  0.96738377251E+02  0.00000000000E+00 0. -1.
         22    1    3    3    0    0 -0.20860867936E+02  0.42138113208E+02 -0.74297331100E+03  0.74445962769E+03  0.00000000000E+00 0. -1.
         22    1    3    3    0    0  0.66947188716E+02 -0.55140776352E+02 -0.14906467579E+04  0.14931678365E+04  0.00000000000E+00 0. -1.
</event>
<event>
 7    1  0.6105960E-006  0.1218434E+03  0.7818608E-02  0.1362893E+00
          2   -1    0    0  502    0  0.00000000000E+00  0.00000000000E+00  0.73328595092E+03  0.73328595092E+03  0.00000000000E+00 0. -1.
          1   -1    0    0  501    0 -0.00000000000E+00 -0.00000000000E+00 -0.97705697243E+03  0.97705697243E+03  0.00000000000E+00 0. -1.
         25    2    1    2    0    0  0.86142362718E+02 -0.48275706468E+01  0.11769935186E+02  0.15234660939E+03  0.12500858340E+03 0.  0.
          2    1    1    2  501    0 -0.12188465872E+03  0.21124995838E+02 -0.90195074176E+03  0.91039402242E+03  0.00000000000E+00 0. -1.
          1    1    1    2  502    0  0.35742295997E+02 -0.16297425192E+02  0.64640978507E+03  0.64760229156E+03  0.00000000000E+00 0. -1.
         22    1    3    3    0    0  0.36672915338E+02  0.36644603414E+02  0.54274416179E+02  0.75056258436E+02  0.00000000000E+00 0. -1.
         22    1    3    3    0    0  0.49469447380E+02 -0.41472174061E+02 -0.42504480993E+02  0.77290350950E+02  0.00000000000E+00 0. -1.
</event>
<event>
 7    1  0.6105960E-006  0.1646191E+03  0.7818608E-02  0.1326507E+00
          2   -1    0    0  502    0  0.00000000000E+00  0.00000000000E+00  0.54235248124E+03  0.54235248124E+03  0.00000000000E+00 0. -1.
          1   -1    0    0  501    0 -0.00000000000E+00 -0.00000000000E+00 -0.23073651819E+03  0.23073651819E+03  0.00000000000E+00 0. -1.
         25    2    1    2    0    0  0.24389878477E+02  0.15564187942E+03  0.25492112297E+03  0.32469769623E+03  0.12499821677E+03 0.  0.
          2    1    1    2  501    0 -0.64070579153E+02 -0.15312161964E+03 -0.15852805261E+03  0.22952649733E+03  0.00000000000E+00 0. -1.
          1    1    1    2  502    0  0.39680700677E+02 -0.25202597829E+01  0.21522289269E+03  0.21886480588E+03  0.00000000000E+00 0. -1.
         22    1    3    3    0    0 -0.29722190176E+02  0.48575477423E+02  0.16564282392E+03  0.17515858732E+03  0.00000000000E+00 0.  1.
         22    1    3    3    0    0  0.54112068653E+02  0.10706640200E+03  0.89278299044E+02  0.14953910890E+03  0.00000000000E+00 0.  1.
</event>
<event>
 7    1  0.6105960E-006  0.8638666E+02  0.7818608E-02  0.1358506E+00
          2   -1    0    0  502    0  0.00000000000E+00  0.00000000000E+00  0.30462490131E+04  0.30462490131E+04  0.00000000000E+00 0. -1.
          1   -1    0    0  501    0 -0.00000000000E+00 -0.00000000000E+00 -0.92455978383E+02  0.92455978383E+02  0.00000000000E+00 0. -1.
         25    2    1    2    0    0 -0.23263221115E+02  0.11466110672E+03  0.26541644488E+03  0.31584365840E+03  0.12499192170E+03 0.  0.
          2    1    1    2  501    0  0.53392025551E+02 -0.65705371458E+02 -0.40169615103E+02  0.93709669770E+02  0.00000000000E+00 0. -1.
          1    1    1    2  502    0 -0.30128804436E+02 -0.48955735257E+02  0.27285462050E+04  0.27291516633E+04  0.00000000000E+00 0. -1.
         22    1    3    3    0    0  0.44695844983E+02  0.24224073758E+02  0.12880070678E+03  0.13847074194E+03  0.00000000000E+00 0. -1.
         22    1    3    3    0    0 -0.67959066099E+02  0.90437032957E+02  0.13661573810E+03  0.17737291646E+03  0.00000000000E+00 0. -1.
</event>
<event>
 7    1  0.6105960E-006  0.2031429E+03  0.7818608E-02  0.1318392E+00
          2   -1    0    0  502    0  0.00000000000E+00  0.00000000000E+00  0.18903705194E+04  0.18903705194E+04  0.00000000000E+00 0. -1.
          1   -1    0    0  501    0 -0.00000000000E+00 -0.00000000000E+00 -0.44188985487E+03  0.44188985487E+03  0.00000000000E+00 0. -1.
         25    2    1    2    0    0  0.19420627922E+03 -0.15699439427E+02  0.15468683193E+03  0.27842654468E+03  0.12502309196E+03 0.  0.
          2    1    1    2  501    0 -0.20374691051E+03 -0.17594252006E+02 -0.35231138982E+03  0.40736430458E+03  0.00000000000E+00 0. -1.
          1    1    1    2  502    0  0.95406312935E+01  0.33293691432E+02  0.16461052225E+04  0.16464695251E+04  0.00000000000E+00 0. -1.
         22    1    3    3    0    0  0.83038283346E+02  0.24554947010E+02  0.37205240377E+01  0.86672626722E+02  0.00000000000E+00 0.  1.
         22    1    3    3    0    0  0.11116799587E+03 -0.40254386437E+02  0.15096630789E+03  0.19175391796E+03  0.00000000000E+00 0.  1.
</event>
<event>
 7    1  0.6105960E-006  0.7389385E+02  0.7818608E-02  0.1391577E+00
          2   -1    0    0  502    0  0.00000000000E+00  0.00000000000E+00  0.33854004244E+03  0.33854004244E+03  0.00000000000E+00 0. -1.
          1   -1    0    0  501    0 -0.00000000000E+00 -0.00000000000E+00 -0.11115793400E+04  0.11115793400E+04  0.00000000000E+00 0. -1.
         25    2    1    2    0    0 -0.38906260067E+02  0.62602533356E+01 -0.26745150178E+03  0.29783967612E+03  0.12500111609E+03 0.  0.
          2    1    1    2  501    0  0.57701379366E+02 -0.53898379000E+02 -0.82500921003E+03  0.82877903031E+03  0.00000000000E+00 0. -1.
          1    1    1    2  502    0 -0.18795119299E+02  0.47638125664E+02  0.31942141423E+03  0.32350067603E+03  0.00000000000E+00 0. -1.
         22    1    3    3    0    0  0.20406230673E+02 -0.18973238578E+02 -0.59247458863E+01  0.28486850409E+02  0.00000000000E+00 0. -1.
         22    1    3    3    0    0 -0.59312490740E+02  0.25233491914E+02 -0.26152675589E+03  0.26935282571E+03  0.00000000000E+00 0. -1.
</event>
<event>
 7    1  0.6105960E-006  0.1359313E+03  0.7818608E-02  0.1267547E+00
          2   -1    0    0  502    0  0.00000000000E+00  0.00000000000E+00  0.24002508364E+04  0.24002508364E+04  0.00000000000E+00 0. -1.
          1   -1    0    0  501    0 -0.00000000000E+00 -0.00000000000E+00 -0.29549183319E+03  0.29549183319E+03  0.00000000000E+00 0. -1.
         25    2    1    2    0    0  0.11229768445E+03 -0.48067175026E+02  0.42606449576E+03  0.46051349301E+03  0.12498199651E+03 0.  0.
          2    1    1    2  501    0 -0.39873458328E+02 -0.72970315777E+02 -0.26944795064E+03  0.28198715887E+03  0.00000000000E+00 0. -1.
          1    1    1    2  502    0 -0.72424226123E+02  0.12103749080E+03  0.19481424581E+04  0.19532420177E+04  0.00000000000E+00 0. -1.
         22    1    3    3    0    0  0.89818948921E+02  0.26845644916E+02  0.19074216096E+03  0.21253400717E+03  0.00000000000E+00 0. -1.
         22    1    3    3    0    0  0.22478735531E+02 -0.74912819942E+02  0.23532233480E+03  0.24797948584E+03  0.00000000000E+00 0. -1.
</event>
<event>
 7    1  0.6105960E-006  0.9656840E+02  0.7818608E-02  0.1361835E+00
          2   -1    0    0  502    0  0.00000000000E+00  0.00000000000E+00  0.30530555143E+04  0.30530555143E+04  0.00000000000E+00 0. -1.
          1   -1    0    0  501    0 -0.00000000000E+00 -0.00000000000E+00 -0.82342827300E+03  0.82342827300E+03  0.00000000000E+00 0. -1.
         25    2    1    2    0    0  0.13075260212E+03  0.63317239838E+02  0.18594544681E+03  0.26704073870E+03  0.12501892302E+03 0.  0.
          2    1    1    2  501    0 -0.46834197941E+02 -0.17522719281E+02 -0.78127273073E+03  0.78287136080E+03  0.00000000000E+00 0. -1.
          1    1    1    2  502    0 -0.83918404179E+02 -0.45794520557E+02  0.28249545253E+04  0.28265716878E+04  0.00000000000E+00 0. -1.
         22    1    3    3    0    0  0.70461454517E+02  0.54280710588E+02  0.21284456152E+02  0.91456220063E+02  0.00000000000E+00 0.  1.
         22    1    3    3    0    0  0.60291147604E+02  0.90365292501E+01  0.16466099066E+03  0.17558451864E+03  0.00000000000E+00 0.  1.
</event>
<event>
 7    1  0.6105960E-006  0.7689673E+02  0.7818608E-02  0.1409710E+00
          2   -1    0    0  502    0  0.00000000000E+00  0.00000000000E+00  0.10155516330E+04  0.10155516330E+04  0.00000000000E+00 0. -1.
          1   -1    0    0  501    0 -0.00000000000E+00 -0.00000000000E+00 -0.36323353395E+03  0.36323353395E+03  0.00000000000E+00 0. -1.
         25    2    1    2    0    0 -0.24116744425E+02  0.10953598364E+03  0.64521191223E+02  0.17991016117E+03  0.12499973161E+03 0.  0.
          2    1    1    2  501    0  0.26285119329E+02 -0.33569255218E+02 -0.30242472833E+03  0.30541532165E+03  0.00000000000E+00 0. -1.
          1    1    1    2  502    0 -0.21683749040E+01 -0.75966728418E+02  0.89022163617E+03  0.89345968414E+03  0.00000000000E+00 0. -1.
         22    1    3    3    0    0 -0.23407830764E+02  0.11517813977E+03  0.93619400658E+02  0.15026151404E+03  0.00000000000E+00 0.  1.
         22    1    3    3    0    0 -0.70891366119E+00 -0.56421561298E+01 -0.29098209436E+02  0.29648647131E+02  0.00000000000E+00 0.  1.
</event>
<event>
 7    1  0.6105960E-006  0.5200486E+02  0.7818608E-02  0.1455148E+00
          2   -1    0    0  502    0  0.00000000000E+00  0.00000000000E+00  0.22160925344E+02  0.22160925344E+02  0.00000000000E+00 0. -1.
          1   -1    0    0  501    0 -0.00000000000E+00 -0.00000000000E+00 -0.11859121681E+04  0.11859121681E+04  0.00000000000E+00 0. -1.
         25    2    1    2    0    0 -0.10632058864E+02  0.10059857119E+02 -0.81476267418E+03  0.82442472015E+03  0.12499465012E+03 0.  0.
          2    1    1    2  501    0  0.53983818145E+02 -0.38784945185E+02 -0.31402433647E+03  0.32098256726E+03  0.00000000000E+00 0. -1.
          1    1    1    2  502    0 -0.43351759282E+02  0.28725088066E+02 -0.34964232095E+02  0.62665806012E+02  0.00000000000E+00 0. -1.
         22    1    3    3    0    0 -0.73712577501E+01  0.28472729435E+02 -0.80015674661E+03  0.80069710310E+03  0.00000000000E+00 0. -1.
         22    1    3    3    0    0 -0.32608011136E+01 -0.18412872317E+02 -0.14605927566E+02  0.23727617051E+02  0.00000000000E+00 0. -1.
</event>
<event>
 7    1  0.6105960E-006  0.9788879E+02  0.7818608E-02  0.1388711E+00
          2   -1    0    0  502    0  0.00000000000E+00  0.00000000000E+00  0.21380187442E+04  0.21380187442E+04  0.00000000000E+00 0. -1.
          1   -1    0    0  501    0 -0.00000000000E+00 -0.00000000000E+00 -0.27073874429E+03  0.27073874429E+03  0.00000000000E+00 0. -1.
         25    2    1    2    0    0 -0.60964479759E+02 -0.29286529781E+02  0.72713820980E+03  0.74089767409E+03  0.12500007483E+03 0.  0.
          2    1    1    2  501    0 -0.32461042834E+02 -0.22609604079E+02 -0.26032885008E+03  0.26331734406E+03  0.00000000000E+00 0. -1.
          1    1    1    2  502    0  0.93425522593E+02  0.51896133860E+02  0.14004706402E+04  0.14045424704E+04  0.00000000000E+00 0. -1.
         22    1    3    3    0    0 -0.13738656025E+02 -0.74439123562E+02  0.43554154490E+03  0.44207054993E+03  0.00000000000E+00 0.  1.
         22    1    3    3    0    0 -0.47225823734E+02  0.45152593780E+02  0.29159666490E+03  0.29882712416E+03  0.00000000000E+00 0.  1.
</event>
<event>
 7    1  0.6105960E-006  0.1569633E+03  0.7818608E-02  0.1209011E+00
          2   -1    0    0  502    0  0.00000000000E+00  0.00000000000E+00  0.15629746103E+04  0.15629746103E+04  0.00000000000E+00 0. -1.
          1   -1    0    0  501    0 -0.00000000000E+00 -0.00000000000E+00 -0.47390149061E+03  0.47390149061E+03  0.00000000000E+00 0. -1.
         25    2    1    2    0    0  0.23102000486E+03 -0.13294444623E+03  0.70408835307E+03  0.76315792249E+03  0.12500054922E+03 0.  0.
          2    1    1    2  501    0 -0.11613863940E+03  0.60060677179E+02 -0.42897914013E+03  0.44846245235E+03  0.00000000000E+00 0. -1.
          1    1    1    2  502    0 -0.11488136546E+03  0.72883769052E+02  0.81396390672E+03  0.82525572604E+03  0.00000000000E+00 0. -1.
         22    1    3    3    0    0  0.23751589456E+02 -0.70300028314E+02  0.23650932811E+03  0.24787677234E+03  0.00000000000E+00 0.  1.
         22    1    3    3    0    0  0.20726841540E+03 -0.62644417917E+02  0.46757902496E+03  0.51528115015E+03  0.00000000000E+00 0.  1.
</event>
<event>
 7    1  0.6105960E-006  0.5435968E+02  0.7818608E-02  0.1524888E+00
          2   -1    0    0  502    0  0.00000000000E+00  0.00000000000E+00  0.26320412984E+04  0.26320412984E+04  0.00000000000E+00 0. -1.
          1   -1    0    0  501    0 -0.00000000000E+00 -0.00000000000E+00 -0.21718593951E+02  0.21718593951E+02  0.00000000000E+00 0. -1.
         25    2    1    2    0    0 -0.70007717979E+01  0.44589951757E+02  0.87172728484E+03  0.88179962269E+03  0.12499936333E+03 0.  0.
          2    1    1    2  501    0  0.33305933967E+02 -0.43908912015E+02  0.29212938905E+02  0.62375264257E+02  0.00000000000E+00 0. -1.
          1    1    1    2  502    0 -0.26305162169E+02 -0.68103974235E+00  0.17093824807E+04  0.17095850054E+04  0.00000000000E+00 0. -1.
         22    1    3    3    0    0 -0.73746513825E+01 -0.22274853539E+02  0.33445665216E+02  0.40855441559E+02  0.00000000000E+00 0.  1.
         22    1    3    3    0    0  0.37387958461E+00  0.66864805296E+02  0.83828161963E+03  0.84094418113E+03  0.00000000000E+00 0.  1.
</event>
<event>
 7    1  0.6105960E-006  0.3585376E+02  0.7818608E-02  0.1545928E+00
          2   -1    0    0  502    0  0.00000000000E+00  0.00000000000E+00  0.13206417503E+04  0.13206417503E+04  0.00000000000E+00 0. -1.
          1   -1    0    0  501    0 -0.00000000000E+00 -0.00000000000E+00 -0.64824060936E+03  0.64824060936E+03  0.00000000000E+00 0. -1.
         25    2    1    2    0    0  0.55260579436E+02  0.40981700863E+02  0.47019328654E+02  0.15023163931E+03  0.12500198693E+03 0.  0.
          2    1    1    2  501    0 -0.31769582917E+02 -0.14105729119E+02 -0.59586717105E+03  0.59688019194E+03  0.00000000000E+00 0. -1.
          1    1    1    2  502    0 -0.23490996519E+02 -0.26875971745E+02  0.12212489833E+04  0.12217705284E+04  0.00000000000E+00 0. -1.
         22    1    3    3    0    0  0.74508827621E+02 -0.18871040927E+02  0.10642517872E+02  0.77594747025E+02  0.00000000000E+00 0. -1.
         22    1    3    3    0    0 -0.19248248185E+02  0.59852741791E+02  0.36376810782E+02  0.72636892284E+02  0.00000000000E+00 0. -1.
</event>
<event>
 7    1  0.6105960E-006  0.8027531E+02  0.7818608E-02  0.1491452E+00
          2   -1    0    0  502    0  0.00000000000E+00  0.00000000000E+00  0.16120526879E+04  0.16120526879E+04  0.00000000000E+00 0. -1.
          1   -1    0    0  501    0 -0.00000000000E+00 -0.00000000000E+00 -0.65601993897E+02  0.65601993897E+02  0.00000000000E+00 0. -1.
         25    2    1    2    0    0 -0.55564635597E+02  0.42100442058E+02  0.59186083991E+03  0.60892062854E+03  0.12500080838E+03 0.  0.
          2    1    1    2  501    0  0.34138877586E+01  0.22102654463E+02 -0.53119548133E+02  0.57635651794E+02  0.00000000000E+00 0. -1.
          1    1    1    2  502    0  0.52150747838E+02 -0.64203096521E+02  0.10077094022E+04  0.10110984015E+04  0.00000000000E+00 0. -1.
         22    1    3    3    0    0  0.38905121014E+02  0.13011954600E+02  0.12002607255E+03  0.12684312159E+03  0.00000000000E+00 0. -1.
         22    1    3    3    0    0 -0.94469756611E+02  0.29088487458E+02  0.47183476736E+03  0.48207750695E+03  0.00000000000E+00 0. -1.
</event>
<event>
 7    1  0.6105960E-006  0.2481137E+03  0.7818608E-02  0.1135733E+00
          2   -1    0    0  502    0  0.00000000000E+00  0.00000000000E+00  0.98202784779E+03  0.98202784779E+03  0.00000000000E+00 0. -1.
          1   -1    0    0  501    0 -0.00000000000E+00 -0.00000000000E+00 -0.99022129141E+03  0.99022129141E+03  0.00000000000E+00 0. -1.
         25    2    1    2    0    0  0.42056847315E+03  0.19293178260E+02 -0.78833882866E+02  0.44619569062E+03  0.12500298359E+03 0.  0.
          2    1    1    2  501    0 -0.22984088152E+03 -0.19368627301E+02 -0.69746882159E+03  0.73461876619E+03  0.00000000000E+00 0. -1.
          1    1    1    2  502    0 -0.19072759163E+03  0.75449040991E-01  0.76810926083E+03  0.79143468238E+03  0.00000000000E+00 0. -1.
         22    1    3    3    0    0  0.18352242764E+03  0.24688338073E+02  0.25916506930E+02  0.18698037548E+03  0.00000000000E+00 0.  1.
         22    1    3    3    0    0  0.23704604551E+03 -0.53951598139E+01 -0.10475038980E+03  0.25921531514E+03  0.00000000000E+00 0.  1.
</event>
<event>
 7    1  0.6105960E-006  0.1768848E+03  0.7818608E-02  0.1174122E+00
          2   -1    0    0  502    0  0.00000000000E+00  0.00000000000E+00  0.18984015507E+04  0.18984015507E+04  0.00000000000E+00 0. -1.
          1   -1    0    0  501    0 -0.00000000000E+00 -0.00000000000E+00 -0.87295228029E+02  0.87295228029E+02  0.00000000000E+00 0. -1.
         25    2    1    2    0    0 -0.26033231660E+02 -0.78594992267E+01  0.33843940929E+02  0.13232915593E+03  0.12500436909E+03 0.  0.
          2    1    1    2  501    0 -0.12672898740E+03 -0.11394301816E+03  0.19452907248E+03  0.25862097300E+03  0.00000000000E+00 0. -1.
          1    1    1    2  502    0  0.15276221906E+03  0.12180251738E+03  0.15827333093E+04  0.15947466498E+04  0.00000000000E+00 0. -1.
         22    1    3    3    0    0 -0.29216319308E+02 -0.64353899842E+02  0.25491010231E+02  0.75131946211E+02  0.00000000000E+00 0. -1.
         22    1    3    3    0    0  0.31830876476E+01  0.56494400616E+02  0.83529306979E+01  0.57197209715E+02  0.00000000000E+00 0. -1.
</event>
<event>
 7    1  0.6105960E-006  0.7953890E+02  0.7818608E-02  0.1392907E+00
          2   -1    0    0  502    0  0.00000000000E+00  0.00000000000E+00  0.20349224791E+04  0.20349224791E+04  0.00000000000E+00 0. -1.
          1   -1    0    0  501    0 -0.00000000000E+00 -0.00000000000E+00 -0.49664760277E+02  0.49664760277E+02  0.00000000000E+00 0. -1.
         25    2    1    2    0    0  0.68730551580E+02  0.85174687280E+02  0.15974515491E+03  0.23048200602E+03  0.12499929803E+03 0.  0.
          2    1    1    2  501    0 -0.27842898489E+02 -0.61849199502E+02  0.68282370137E+02  0.96244649445E+02  0.00000000000E+00 0. -1.
          1    1    1    2  502    0 -0.40887653091E+02 -0.23325487777E+02  0.17572301938E+04  0.17578605840E+04  0.00000000000E+00 0. -1.
         22    1    3    3    0    0  0.55551728292E+02 -0.11019941538E+01  0.89898086426E+01  0.56285216236E+02  0.00000000000E+00 0. -1.
         22    1    3    3    0    0  0.13178823288E+02  0.86276681433E+02  0.15075534627E+03  0.17419678979E+03  0.00000000000E+00 0. -1.
</event>
<event>
 7    1  0.6105960E-006  0.8838876E+02  0.7818608E-02  0.1374516E+00
          2   -1    0    0  502    0  0.00000000000E+00  0.00000000000E+00  0.15451803206E+04  0.15451803206E+04  0.00000000000E+00 0. -1.
          1   -1    0    0  501    0 -0.00000000000E+00 -0.00000000000E+00 -0.21607253285E+03  0.21607253285E+03  0.00000000000E+00 0. -1.
         25    2    1    2    0    0 -0.83604960021E+02 -0.82114224083E+02  0.15516861361E+03  0.23115764208E+03  0.12499608676E+03 0.  0.
          2    1    1    2  501    0  0.34470265040E+02  0.80144366355E+02 -0.16691483656E+03  0.18833980274E+03  0.00000000000E+00 0. -1.
          1    1    1    2  502    0  0.49134694981E+02  0.19698577279E+01  0.13408540107E+04  0.13417554087E+04  0.00000000000E+00 0. -1.
         22    1    3    3    0    0 -0.15952198045E+02  0.25896984036E+02  0.75428938998E-01  0.30415984189E+02  0.00000000000E+00 0. -1.
         22    1    3    3    0    0 -0.67652761976E+02 -0.10801120812E+03  0.15509318467E+03  0.20074165789E+03  0.00000000000E+00 0. -1.
</event>
<event>
 7    1  0.6105960E-006  0.8374841E+02  0.7818608E-02  0.1356466E+00
          2   -1    0    0  502    0  0.00000000000E+00  0.00000000000E+00  0.22018634221E+04  0.22018634221E+04  0.00000000000E+00 0. -1.
          1   -1    0    0  501    0 -0.00000000000E+00 -0.00000000000E+00 -0.74997952249E+03  0.74997952249E+03  0.00000000000E+00 0. -1.
         25    2    1    2    0    0  0.60793331495E+02 -0.10407085636E+03  0.31990247116E+03  0.36399184673E+03  0.12500360448E+03 0.  0.
          2    1    1    2  501    0 -0.70711685457E+02  0.44567659588E+02 -0.72504405449E+03  0.72984607945E+03  0.00000000000E+00 0. -1.
          1    1    1    2  502    0  0.99183539623E+01  0.59503196771E+02  0.18570254829E+04  0.18580050184E+04  0.00000000000E+00 0. -1.
         22    1    3    3    0    0 -0.73393809965E-01  0.60533702349E+01  0.16188302868E+03  0.16199618407E+03  0.00000000000E+00 0. -1.
         22    1    3    3    0    0  0.60866725305E+02 -0.11012422659E+03  0.15801944248E+03  0.20199566266E+03  0.00000000000E+00 0. -1.
</event>
<event>
 7    1  0.6105960E-006  0.9993908E+02  0.7818608E-02  0.1367786E+00
          2   -1    0    0  502    0  0.00000000000E+00  0.00000000000E+00  0.89011584328E+03  0.89011584328E+03  0.00000000000E+00 0. -1.
          1   -1    0    0  501    0 -0.00000000000E+00 -0.00000000000E+00 -0.28650177454E+03  0.28650177454E+03  0.00000000000E+00 0. -1.
         25    2    1    2    0    0  0.68349255650E+02 -0.12030345444E+03  0.39422745005E+02  0.19058127575E+03  0.12499011140E+03 0.  0.
          2    1    1    2  501    0 -0.37303067427E+02  0.26878581853E+02 -0.20524274973E+03  0.21032965392E+03  0.00000000000E+00 0. -1.
          1    1    1    2  502    0 -0.31046188223E+02  0.93424872584E+02  0.76943407347E+03  0.77570668814E+03  0.00000000000E+00 0. -1.
         22    1    3    3    0    0  0.30166000484E+02 -0.13971372253E+03  0.23331944685E+02  0.14482503752E+03  0.00000000000E+00 0.  1.
         22    1    3    3    0    0  0.38183255166E+02  0.19410268096E+02  0.16090800320E+02  0.45756238237E+02  0.00000000000E+00 0.  1.
</event>
<event>
 7    1  0.6105960E-006  0.1047231E+03  0.7818608E-02  0.1358218E+00
          2   -1    0    0  502    0  0.00000000000E+00  0.00000000000E+00  0.17711772662E+04  0.17711772662E+04  0.00000000000E+00 0. -1.
          1   -1    0    0  501    0 -0.00000000000E+00 -0.00000000000E+00 -0.75602646503E+03  0.75602646503E+03  0.00000000000E+00 0. -1.
         25    2    1    2    0    0  0.73246212356E+02  0.36134417377E+01  0.43284957737E+03  0.45646654825E+03  0.12499955380E+03 0.  0.
          2    1    1    2  501    0 -0.98408756874E+02  0.36714294365E+02 -0.74008285118E+03  0.74749906318E+03  0.00000000000E+00 0. -1.
          1    1    1    2  502    0  0.25162544518E+02 -0.40327736103E+02  0.13223840750E+04  0.13232381198E+04  0.00000000000E+00 0. -1.
         22    1    3    3    0    0  0.97135282322E+02 -0.31755479304E+02  0.29986533470E+03  0.31680102981E+03  0.00000000000E+00 0. -1.
         22    1    3    3    0    0 -0.23889069966E+02  0.35368921042E+02  0.13298424267E+03  0.13966551843E+03  0.00000000000E+00 0. -1.
</event>
<event>
 7    1  0.6105960E-006  0.4960991E+02  0.7818608E-02  0.1539691E+00
          2   -1    0    0  502    0  0.00000000000E+00  0.00000000000E+00  0.11228540664E+04  0.11228540664E+04  0.00000000000E+00 0. -1.
          1   -1    0    0  501    0 -0.00000000000E+00 -0.00000000000E+00 -0.37480399376E+03  0.37480399376E+03  0.00000000000E+00 0. -1.
         25    2    1    2    0    0  0.34424186585E+02 -0.47793976937E+02  0.24490951605E+03  0.28120644801E+03  0.12500842570E+03 0.  0.
          2    1    1    2  501    0 -0.43745353396E+02  0.23352398159E+02 -0.35473155429E+03  0.35818077287E+03  0.00000000000E+00 0. -1.
          1    1    1    2  502    0  0.93211668112E+01  0.24441578778E+02  0.85787211094E+03  0.85827083933E+03  0.00000000000E+00 0. -1.
         22    1    3    3    0    0 -0.99252899949E+01 -0.33301727661E+02  0.22943257084E+03  0.23204917800E+03  0.00000000000E+00 0. -1.
         22    1    3    3    0    0  0.44349476580E+02 -0.14492249276E+02  0.15476945207E+02  0.49157270011E+02  0.00000000000E+00 0. -1.
</event>
<event>
 7    1  0.6105960E-006  0.9339315E+02  0.7818608E-02  0.1365194E+00
          2   -1    0    0  502    0  0.00000000000E+00  0.00000000000E+00  0.10116386153E+03  0.10116386153E+03  0.00000000000E+00 0. -1.
          1   -1    0    0  501    0 -0.00000000000E+00 -0.00000000000E+00 -0.77446136184E+03  0.77446136184E+03  0.00000000000E+00 0. -1.
         25    2    1    2    0    0 -0.57638866639E+02  0.32992134130E+02 -0.40873041237E+03  0.43254623354E+03  0.12499989718E+03 0.  0.
          2    1    1    2  501    0  0.92030096377E+01  0.49423825461E+02 -0.32573334104E+03  0.32959007778E+03  0.00000000000E+00 0. -1.
          1    1    1    2  502    0  0.48435857001E+02 -0.82415959592E+02  0.61166253098E+02  0.11348891204E+03  0.00000000000E+00 0. -1.
         22    1    3    3    0    0 -0.84503101605E+02 -0.31211495196E+01 -0.17303712485E+03  0.19259377543E+03  0.00000000000E+00 0.  1.
         22    1    3    3    0    0  0.26864234966E+02  0.36113283650E+02 -0.23569328752E+03  0.23995245812E+03  0.00000000000E+00 0.  1.
</event>
<event>
 7    1  0.6105960E-006  0.9097354E+02  0.7818608E-02  0.1309442E+00
          2   -1    0    0  502    0  0.00000000000E+00  0.00000000000E+00  0.50981304975E+03  0.50981304975E+03  0.00000000000E+00 0. -1.
          1   -1    0    0  501    0 -0.00000000000E+00 -0.00000000000E+00 -0.11701582007E+03  0.11701582007E+03  0.00000000000E+00 0. -1.
         25    2    1    2    0    0 -0.57349286817E+02 -0.16824382919E+01  0.11893978541E+02  0.13804612118E+03  0.12499397405E+03 0.  0.
          2    1    1    2  501    0  0.86636387492E+02  0.87812870250E+02  0.30925648094E+02  0.12717452390E+03  0.00000000000E+00 0. -1.
          1    1    1    2  502    0 -0.29287100675E+02 -0.86130431958E+02  0.34997760304E+03  0.36160822475E+03  0.00000000000E+00 0. -1.
         22    1    3    3    0    0 -0.27501573897E+02  0.47246550237E+02 -0.34210387731E+02  0.64489717823E+02  0.00000000000E+00 0. -1.
         22    1    3    3    0    0 -0.29847712920E+02 -0.48928988529E+02  0.46104366272E+02  0.73556403354E+02  0.00000000000E+00 0. -1.
</event>
<event>
 7    1  0.6105960E-006  0.1635143E+03  0.7818608E-02  0.1345155E+00
          2   -1    0    0  502    0  0.00000000000E+00  0.00000000000E+00  0.45297119104E+03  0.45297119104E+03  0.00000000000E+00 0. -1.
          1   -1    0    0  501    0 -0.00000000000E+00 -0.00000000000E+00 -0.14987657913E+04  0.14987657913E+04  0.00000000000E+00 0. -1.
         25    2    1    2    0    0  0.24901616984E+02  0.13921706504E+03 -0.53486825533E+03  0.56719570383E+03  0.12500173661E+03 0.  0.
          2    1    1    2  501    0 -0.22282808478E+02 -0.17313893878E+03 -0.93901459829E+03  0.95510315227E+03  0.00000000000E+00 0. -1.
          1    1    1    2  502    0 -0.26188085054E+01  0.33921873740E+02  0.42808825331E+03  0.42943812628E+03  0.00000000000E+00 0. -1.
         22    1    3    3    0    0  0.72380303453E+02  0.90174683404E+02 -0.39472348517E+03  0.41131133172E+03  0.00000000000E+00 0. -1.
         22    1    3    3    0    0 -0.47478686469E+02  0.49042381637E+02 -0.14014477016E+03  0.15588437211E+03  0.00000000000E+00 0. -1.
</event>
<event>
 7    1  0.6105960E-006  0.5735421E+02  0.7818608E-02  0.1550309E+00
          2   -1    0    0  502    0  0.00000000000E+00  0.00000000000E+00  0.17476441346E+03  0.17476441346E+03  0.00000000000E+00 0. -1.
          1   -1    0    0  501    0 -0.00000000000E+00 -0.00000000000E+00 -0.95708607800E+03  0.95708607800E+03  0.00000000000E+00 0. -1.
         25    2    1    2    0    0 -0.13790564234E+02  0.61801156003E+02 -0.18130661954E+03  0.22914321004E+03  0.12499983149E+03 0.  0.
          2    1    1    2  501    0  0.30267290297E+02 -0.48580122279E+02 -0.75002572982E+03  0.75220657570E+03  0.00000000000E+00 0. -1.
          1    1    1    2  502    0 -0.16476726062E+02 -0.13221033724E+02  0.14901068481E+03  0.15050070572E+03  0.00000000000E+00 0. -1.
         22    1    3    3    0    0 -0.29121989530E+02 -0.32636000445E+02 -0.67920165295E+02  0.80785813439E+02  0.00000000000E+00 0.  1.
         22    1    3    3    0    0  0.15331425295E+02  0.94437156448E+02 -0.11338645424E+03  0.14835739660E+03  0.00000000000E+00 0.  1.
</event>
<event>
 7    1  0.6105960E-006  0.9188569E+02  0.7818608E-02  0.1310836E+00
          2   -1    0    0  502    0  0.00000000000E+00  0.00000000000E+00  0.44532234781E+03  0.44532234781E+03  0.00000000000E+00 0. -1.
          1   -1    0    0  501    0 -0.00000000000E+00 -0.00000000000E+00 -0.25061141934E+04  0.25061141934E+04  0.00000000000E+00 0. -1.
         25    2    1    2    0    0 -0.55282765358E+01  0.14883146472E+03 -0.21247588819E+03  0.28801390527E+03  0.12499855934E+03 0.  0.
          2    1    1    2  501    0  0.46515254488E+02 -0.67484889621E+02 -0.22500241465E+04  0.22515164976E+04  0.00000000000E+00 0. -1.
          1    1    1    2  502    0 -0.40986977952E+02 -0.81346575101E+02  0.40170818906E+03  0.41190613834E+03  0.00000000000E+00 0. -1.
         22    1    3    3    0    0 -0.19464499464E+02  0.55460666366E+02 -0.17809437341E+03  0.18754295000E+03  0.00000000000E+00 0.  1.
         22    1    3    3    0    0  0.13936222928E+02  0.93370798355E+02 -0.34381514773E+02  0.10047095527E+03  0.00000000000E+00 0.  1.
</event>
<event>
 7    1  0.6105960E-006  0.9903851E+02  0.7818608E-02  0.1356505E+00
          2   -1    0    0  502    0  0.00000000000E+00  0.00000000000E+00  0.51428911653E+03  0.51428911653E+03  0.00000000000E+00 0. -1.
          1   -1    0    0  501    0 -0.00000000000E+00 -0.00000000000E+00 -0.13980767162E+04  0.13980767162E+04  0.00000000000E+00 0. -1.
         25    2    1    2    0    0 -0.12805090481E+03  0.26875560190E+02 -0.10282743433E+03  0.20812869689E+03  0.12499897305E+03 0.  0.
          2    1    1    2  501    0  0.83465642262E+02 -0.51625066547E+02 -0.12392444576E+04  0.12431244856E+04  0.00000000000E+00 0. -1.
          1    1    1    2  502    0  0.44585262545E+02  0.24749506357E+02  0.45828429225E+03  0.46111265026E+03  0.00000000000E+00 0. -1.
         22    1    3    3    0    0 -0.12181268575E+03 -0.27218303417E+02 -0.84270722892E+02  0.15060119915E+03  0.00000000000E+00 0.  1.
         22    1    3    3    0    0 -0.62382190597E+01  0.54093863607E+02 -0.18556711434E+02  0.57527497739E+02  0.00000000000E+00 0.  1.
</event>
<event>
 7    1  0.6105960E-006  0.3759301E+02  0.7818608E-02  0.1529452E+00
          2   -1    0    0  502    0  0.00000000000E+00  0.00000000000E+00  0.21902470718E+03  0.21902470718E+03  0.00000000000E+00 0. -1.
          1   -1    0    0  501    0 -0.00000000000E+00 -0.00000000000E+00 -0.27408104132E+03  0.27408104132E+03  0.00000000000E+00 0. -1.
         25    2    1    2    0    0  0.96395715555E+00  0.73969790151E+02 -0.17676271033E+03  0.22878843347E+03  0.12500652966E+03 0.  0.
          2    1    1    2  501    0 -0.32354961780E+01 -0.36775394087E+02 -0.64554660521E+02  0.74365329561E+02  0.00000000000E+00 0. -1.
          1    1    1    2  502    0  0.22715390225E+01 -0.37194396064E+02  0.18626103671E+03  0.18995198547E+03  0.00000000000E+00 0. -1.
         22    1    3    3    0    0 -0.29815454903E+02  0.12178990161E+01 -0.13726153440E+03  0.14046769541E+03  0.00000000000E+00 0.  1.
         22    1    3    3    0    0  0.30779412059E+02  0.72751891135E+02 -0.39501175929E+02  0.88320738052E+02  0.00000000000E+00 0.  1.
</event>
<event>
 7    1  0.6105960E-006  0.8231536E+02  0.7818608E-02  0.1444464E+00
          2   -1    0    0  502    0  0.00000000000E+00  0.00000000000E+00  0.38014355559E+03  0.38014355559E+03  0.00000000000E+00 0. -1.
          1   -1    0    0  501    0 -0.00000000000E+00 -0.00000000000E+00 -0.41698059925E+03  0.41698059925E+03  0.00000000000E+00 0. -1.
         25    2    1    2    0    0  0.32574996600E+02 -0.10545519982E+03 -0.57622313945E+02  0.17643135116E+03  0.12500304410E+03 0.  0.
          2    1    1    2  501    0 -0.23534458233E+02  0.76253103024E+02 -0.29389212553E+03  0.30453405047E+03  0.00000000000E+00 0. -1.
          1    1    1    2  502    0 -0.90405383672E+01  0.29202096800E+02  0.31467739582E+03  0.31615875321E+03  0.00000000000E+00 0. -1.
         22    1    3    3    0    0  0.56234094341E+02 -0.32197827505E+01  0.79071349968E+00  0.56331745891E+02  0.00000000000E+00 0. -1.
         22    1    3    3    0    0 -0.23659097741E+02 -0.10223541707E+03 -0.58413027445E+02  0.12009960527E+03  0.00000000000E+00 0. -1.
</event>
<event>
 7    1  0.6105960E-006  0.5181654E+02  0.7818608E-02  0.1564079E+00
          2   -1    0    0  502    0  0.00000000000E+00  0.00000000000E+00  0.22687541684E+03  0.22687541684E+03  0.00000000000E+00 0. -1.
          1   -1    0    0  501    0 -0.00000000000E+00 -0.00000000000E+00 -0.24651437954E+03  0.24651437954E+03  0.00000000000E+00 0. -1.
         25    2    1    2    0    0  0.19711154919E+02  0.33771023097E+02 -0.41932310377E+02  0.13752302970E+03  0.12500101366E+03 0.  0.
          2    1    1    2  501    0 -0.11519583715E+02  0.18060542245E+02 -0.15217625857E+03  0.15367660091E+03  0.00000000000E+00 0. -1.
          1    1    1    2  502    0 -0.81915712034E+01 -0.51831565342E+02  0.17446960624E+03  0.18219016578E+03  0.00000000000E+00 0. -1.
         22    1    3    3    0    0 -0.24865295264E+02  0.71222516044E+01  0.35721678650E+02  0.44102694952E+02  0.00000000000E+00 0.  1.
         22    1    3    3    0    0  0.44576450183E+02  0.26648771492E+02 -0.77653989027E+02  0.93420334749E+02  0.00000000000E+00 0.  1.
</event>
<event>
 7    1  0.6105960E-006  0.8324778E+02  0.7818608E-02  0.1381799E+00
          2   -1    0    0  502    0  0.00000000000E+00  0.00000000000E+00  0.22450581324E+04  0.22450581324E+04  0.00000000000E+00 0. -1.
          1   -1    0    0  501    0 -0.00000000000E+00 -0.00000000000E+00 -0.48042931238E+02  0.48042931238E+02  0.00000000000E+00 0. -1.
         25    2    1    2    0    0 -0.51009678230E+02 -0.24506401305E+02  0.25731647398E+03  0.29161720045E+03  0.12500509125E+03 0.  0.
          2    1    1    2  501    0 -0.33380359032E+02  0.36133103199E+02 -0.97716692732E+01  0.50153115918E+02  0.00000000000E+00 0. -1.
          1    1    1    2  502    0  0.84390037262E+02 -0.11626701894E+02  0.19494703964E+04  0.19513307473E+04  0.00000000000E+00 0. -1.
         22    1    3    3    0    0 -0.22066414669E+02 -0.24245987638E+02  0.10697949384E+00  0.32784234283E+02  0.00000000000E+00 0. -1.
         22    1    3    3    0    0 -0.28943263561E+02 -0.26041366701E+00  0.25720949448E+03  0.25883296616E+03  0.00000000000E+00 0. -1.
</event>
<event>
 7    1  0.6105960E-006  0.2915238E+02  0.7818608E-02  0.1670282E+00
          2   -1    0    0  502    0  0.00000000000E+00  0.00000000000E+00  0.98668543765E+03  0.98668543765E+03  0.00000000000E+00 0. -1.
          1   -1    0    0  501    0 -0.00000000000E+00 -0.00000000000E+00 -0.40101661373E+03  0.40101661373E+03  0.00000000000E+00 0. -1.
         25    2    1    2    0    0 -0.98401384660E+01 -0.59600684519E+01  0.90181270990E+02  0.15456429073E+03  0.12500043036E+03 0.  0.
          2    1    1    2  501    0 -0.19461271460E+02  0.59997159134E+01 -0.36829537254E+03  0.36885799315E+03  0.00000000000E+00 0. -1.
          1    1    1    2  502    0  0.29301409926E+02 -0.39647461478E-01  0.86378292546E+03  0.86427976751E+03  0.00000000000E+00 0. -1.
         22    1    3    3    0    0 -0.60411982325E+02 -0.21852584675E+01  0.83978937785E+02  0.10347388537E+03  0.00000000000E+00 0.  1.
         22    1    3    3    0    0  0.50571843859E+02 -0.37748099845E+01  0.62023332058E+01  0.51090405351E+02  0.00000000000E+00 0.  1.
</event>
<event>
 7    1  0.6105960E-006  0.7495981E+02  0.7818608E-02  0.1412582E+00
          2   -1    0    0  502    0  0.00000000000E+00  0.00000000000E+00  0.20438570224E+04  0.20438570224E+04  0.00000000000E+00 0. -1.
          1   -1    0    0  501    0 -0.00000000000E+00 -0.00000000000E+00 -0.37106948012E+03  0.37106948012E+03  0.00000000000E+00 0. -1.
         25    2    1    2    0    0 -0.31416699123E+02 -0.17221572573E+02  0.23550870116E+03  0.26902180600E+03  0.12499916893E+03 0.  0.
          2    1    1    2  501    0 -0.26071965093E+02 -0.33904283619E+02 -0.35219269872E+03  0.35478013592E+03  0.00000000000E+00 0. -1.
          1    1    1    2  502    0  0.57488664216E+02  0.51125856191E+02  0.17894715399E+04  0.17911245606E+04  0.00000000000E+00 0. -1.
         22    1    3    3    0    0  0.29393748762E+02 -0.42228830604E+02  0.48177118206E+02  0.70486178213E+02  0.00000000000E+00 0.  1.
         22    1    3    3    0    0 -0.60810447885E+02  0.25007258031E+02  0.18733158296E+03  0.19853562778E+03  0.00000000000E+00 0.  1.
</event>
<event>
 7    1  0.6105960E-006  0.1735323E+03  0.7818608E-02  0.1330448E+00
          2   -1    0    0  502    0  0.00000000000E+00  0.00000000000E+00  0.12717202563E+04  0.12717202563E+04  0.00000000000E+00 0. -1.
          1   -1    0    0  501    0 -0.00000000000E+00 -0.00000000000E+00 -0.94270546953E+02  0.94270546953E+02  0.00000000000E+00 0. -1.
         25    2    1    2    0    0  0.11821236720E+03  0.14752164350E+03  0.37659041028E+03  0.43951534734E+03  0.12496641298E+03 0.  0.
          2    1    1    2  501    0  0.93575224207E+01 -0.35207875321E+02 -0.48285852333E+02  0.60487033702E+02  0.00000000000E+00 0. -1.
          1    1    1    2  502    0 -0.12756988962E+03 -0.11231376818E+03  0.84914515144E+03  0.86598842225E+03  0.00000000000E+00 0. -1.
         22    1    3    3    0    0 -0.24382150077E+01  0.30625417075E+02  0.42279637827E+01  0.31011880646E+02  0.00000000000E+00 0.  1.
         22    1    3    3    0    0  0.12065058221E+03  0.11689622642E+03  0.37236244650E+03  0.40850346669E+03  0.00000000000E+00 0.  1.
</event>
<event>
 7    1  0.6105960E-006  0.1499565E+03  0.7818608E-02  0.1317390E+00
          2   -1    0    0  502    0  0.00000000000E+00  0.00000000000E+00  0.81075336571E+03  0.81075336571E+03  0.00000000000E+00 0. -1.
          1   -1    0    0  501    0 -0.00000000000E+00 -0.00000000000E+00 -0.18770537268E+04  0.18770537268E+04  0.00000000000E+00 0. -1.
         25    2    1    2    0    0 -0.95760995424E+02 -0.91418364724E+02 -0.55493707010E+02  0.19034873623E+03  0.12500241683E+03 0.  0.
          2    1    1    2  501    0  0.13582255256E+03  0.66195285312E+02 -0.17501203481E+04  0.17566305287E+04  0.00000000000E+00 0. -1.
          1    1    1    2  502    0 -0.40061557131E+02  0.25223079412E+02  0.73931369396E+03  0.74082782762E+03  0.00000000000E+00 0. -1.
         22    1    3    3    0    0 -0.24154770516E+02 -0.56209748487E+02 -0.85469838278E+02  0.10510985691E+03  0.00000000000E+00 0.  1.
         22    1    3    3    0    0 -0.71606224909E+02 -0.35208616237E+02  0.29976131267E+02  0.85238879326E+02  0.00000000000E+00 0.  1.
</event>
<event>
 7    1  0.6105960E-006  0.1636922E+03  0.7818608E-02  0.1278384E+00
          2   -1    0    0  502    0  0.00000000000E+00  0.00000000000E+00  0.42075767901E+03  0.42075767901E+03  0.00000000000E+00 0. -1.
          1   -1    0    0  501    0 -0.00000000000E+00 -0.00000000000E+00 -0.16748962934E+04  0.16748962934E+04  0.00000000000E+00 0. -1.
         25    2    1    2    0    0  0.12028419342E+03  0.95864083288E+02 -0.49272492252E+02  0.20423330377E+03  0.12500101690E+03 0.  0.
          2    1    1    2  501    0 -0.15816851620E+03 -0.46516294807E+02 -0.15408906796E+04  0.15496854944E+04  0.00000000000E+00 0. -1.
          1    1    1    2  502    0  0.37884322783E+02 -0.49347788480E+02  0.33602455740E+03  0.34173517425E+03  0.00000000000E+00 0. -1.
         22    1    3    3    0    0  0.10168705886E+03  0.12635878012E+03 -0.36091432296E+02  0.16616073766E+03  0.00000000000E+00 0. -1.
         22    1    3    3    0    0  0.18597134561E+02 -0.30494696836E+02 -0.13181059956E+02  0.38072566115E+02  0.00000000000E+00 0. -1.
</event>
<event>
 7    1  0.6105960E-006  0.2773918E+03  0.7818608E-02  0.1110399E+00
          2   -1    0    0  502    0  0.00000000000E+00  0.00000000000E+00  0.50987411496E+03  0.50987411496E+03  0.00000000000E+00 0. -1.
          1   -1    0    0  501    0 -0.00000000000E+00 -0.00000000000E+00 -0.22504955691E+04  0.22504955691E+04  0.00000000000E+00 0. -1.
         25    2    1    2    0    0  0.33991336191E+03 -0.29104716131E+03 -0.24257794601E+03  0.52413498625E+03  0.12499552076E+03 0.  0.
          2    1    1    2  501    0 -0.22686192526E+03  0.56441379240E+02 -0.18127424532E+04  0.18277546783E+04  0.00000000000E+00 0. -1.
          1    1    1    2  502    0 -0.11305143665E+03  0.23460578207E+03  0.31469894507E+03  0.40848001951E+03  0.00000000000E+00 0. -1.
         22    1    3    3    0    0  0.31152750159E+03 -0.29007967056E+03 -0.19384670398E+03  0.46773084586E+03  0.00000000000E+00 0. -1.
         22    1    3    3    0    0  0.28385860313E+02 -0.96749075616E+00 -0.48731242028E+02  0.56404140395E+02  0.00000000000E+00 0. -1.
</event>
<event>
 7    1  0.6105960E-006  0.1231515E+03  0.7818608E-02  0.1354785E+00
          2   -1    0    0  502    0  0.00000000000E+00  0.00000000000E+00  0.70185249443E+03  0.70185249443E+03  0.00000000000E+00 0. -1.
          1   -1    0    0  501    0 -0.00000000000E+00 -0.00000000000E+00 -0.33926979618E+03  0.33926979618E+03  0.00000000000E+00 0. -1.
         25    2    1    2    0    0  0.31531702437E+01 -0.13722362694E+03  0.24249650055E+03  0.30540090265E+03  0.12499956915E+03 0.  0.
          2    1    1    2  501    0 -0.39161530030E+02  0.11637098676E+03 -0.29449041765E+03  0.31906180919E+03  0.00000000000E+00 0. -1.
          1    1    1    2  502    0  0.36008359786E+02  0.20852640173E+02  0.41457661536E+03  0.41665957877E+03  0.00000000000E+00 0. -1.
         22    1    3    3    0    0  0.45430645669E+02 -0.46551944856E+02  0.16951432591E+03  0.18156578374E+03  0.00000000000E+00 0. -1.
         22    1    3    3    0    0 -0.42277475425E+02 -0.90671682081E+02  0.72982174633E+02  0.12383511890E+03  0.00000000000E+00 0. -1.
</event>
<event>
 7    1  0.6974422E-006  0.1099830E+03  0.7818608E-02  0.1374427E+00
          2   -1    0    0  502    0  0.00000000000E+00  0.00000000000E+00  0.12549454265E+04  0.12549454265E+04  0.00000000000E+00 0. -1.
          1   -1    0    0  501    0 -0.00000000000E+00 -0.00000000000E+00 -0.61317041875E+03  0.61317041875E+03  0.00000000000E+00 0. -1.
         25    2    1    2    0    0 -0.86898736837E+02  0.11129707364E+03 -0.30292070658E+03  0.35682333819E+03  0.12499404441E+03 0.  0.
          2    1    1    2  501    0  0.37200936062E+02 -0.13421811704E+02 -0.27945025073E+03  0.28223482653E+03  0.00000000000E+00 0. -1.
          1    1    1    2  502    0  0.49697800776E+02 -0.97875261936E+02  0.12241459651E+04  0.12290576805E+04  0.00000000000E+00 0. -1.
         22    1    3    3    0    0 -0.30022792369E+02 -0.25887987214E+02 -0.54413288419E+02  0.67322818569E+02  0.00000000000E+00 0.  1.
         22    1    3    3    0    0 -0.56875944469E+02  0.13718506085E+03 -0.24850741816E+03  0.28950051962E+03  0.00000000000E+00 0.  1.
</event>
<event>
 7    1  0.6105960E-006  0.3585295E+02  0.7818608E-02  0.1597479E+00
          2   -1    0    0  502    0  0.00000000000E+00  0.00000000000E+00  0.14196774691E+04  0.14196774691E+04  0.00000000000E+00 0. -1.
          1   -1    0    0  501    0 -0.00000000000E+00 -0.00000000000E+00 -0.22642365517E+03  0.22642365517E+03  0.00000000000E+00 0. -1.
         25    2    1    2    0    0 -0.38074232204E+02 -0.25101084044E+02  0.11009168006E+03  0.17269724797E+03  0.12499779942E+03 0.  0.
          2    1    1    2  501    0  0.35825868884E+02  0.65055451484E-02 -0.19335102888E+03  0.19664209441E+03  0.00000000000E+00 0. -1.
          1    1    1    2  502    0  0.22483633200E+01  0.25094578499E+02  0.12765131627E+04  0.12767617818E+04  0.00000000000E+00 0. -1.
         22    1    3    3    0    0  0.16173538520E+02  0.35167846319E+02  0.36395600715E+01  0.38879392491E+02  0.00000000000E+00 0.  1.
         22    1    3    3    0    0 -0.54247770724E+02 -0.60268930363E+02  0.10645211998E+03  0.13381785548E+03  0.00000000000E+00 0.  1.
</event>
<event>
 7    1  0.6105960E-006  0.3463705E+03  0.7818608E-02  0.1196803E+00
          2   -1    0    0  502    0  0.00000000000E+00  0.00000000000E+00  0.63638185466E+03  0.63638185466E+03  0.00000000000E+00 0. -1.
          1   -1    0    0  501    0 -0.00000000000E+00 -0.00000000000E+00 -0.98625901146E+03  0.98625901146E+03  0.00000000000E+00 0. -1.
         25    2    1    2    0    0 -0.36515196341E+03  0.37036924380E+02 -0.41419154662E+03  0.56735145250E+03  0.12500137281E+03 0.  0.
          2    1    1    2  501    0  0.33254118470E+03  0.22184684024E+02 -0.43691650205E+03  0.54951963522E+03  0.00000000000E+00 0. -1.
          1    1    1    2  502    0  0.32610778708E+02 -0.59221608404E+02  0.50123089187E+03  0.50576977841E+03  0.00000000000E+00 0. -1.
         22    1    3    3    0    0 -0.19675678215E+03 -0.15081400900E+02 -0.14219307903E+03  0.24322736626E+03  0.00000000000E+00 0. -1.
         22    1    3    3    0    0 -0.16839518126E+03  0.52118325280E+02 -0.27199846760E+03  0.32412408623E+03  0.00000000000E+00 0. -1.
</event>
<event>
 7    1  0.1090283E-005  0.5879523E+02  0.7818608E-02  0.1476811E+00
          2   -1    0    0  502    0  0.00000000000E+00  0.00000000000E+00  0.11301119584E+04  0.11301119584E+04  0.00000000000E+00 0. -1.
          1   -1    0    0  501    0 -0.00000000000E+00 -0.00000000000E+00 -0.17636831495E+04  0.17636831495E+04  0.00000000000E+00 0. -1.
         25    2    1    2    0    0  0.80106387511E+02  0.24488184494E+02 -0.30679631787E+03  0.34170249389E+03  0.12497963502E+03 0.  0.
          2    1    1    2  501    0 -0.21386136123E+02 -0.26228586571E+02 -0.14384591650E+04  0.14388572115E+04  0.00000000000E+00 0. -1.
          1    1    1    2  502    0 -0.58720251388E+02  0.17404020776E+01  0.11116842917E+04  0.11132354025E+04  0.00000000000E+00 0. -1.
         22    1    3    3    0    0  0.11088492565E+03  0.14185682976E+02 -0.18966997946E+03  0.22016221621E+03  0.00000000000E+00 0. -1.
         22    1    3    3    0    0 -0.30778538142E+02  0.10302501518E+02 -0.11712633841E+03  0.12154027768E+03  0.00000000000E+00 0. -1.
</event>
<event>
 7    1  0.6105960E-006  0.6783497E+02  0.7818608E-02  0.1390710E+00
          2   -1    0    0  502    0  0.00000000000E+00  0.00000000000E+00  0.44166865591E+03  0.44166865591E+03  0.00000000000E+00 0. -1.
          1   -1    0    0  501    0 -0.00000000000E+00 -0.00000000000E+00 -0.43802307860E+03  0.43802307860E+03  0.00000000000E+00 0. -1.
         25    2    1    2    0    0 -0.72966105367E+02 -0.95832421895E+02 -0.83716752703E+02  0.19272050998E+03  0.12499917865E+03 0.  0.
          2    1    1    2  501    0  0.41771340553E+02  0.49114614875E+02 -0.29425780290E+03  0.30123868419E+03  0.00000000000E+00 0. -1.
          1    1    1    2  502    0  0.31194764814E+02  0.46717807019E+02  0.38162013291E+03  0.38573254035E+03  0.00000000000E+00 0. -1.
         22    1    3    3    0    0 -0.38367559400E+02 -0.11857147169E+03 -0.85738588558E+02  0.15126919409E+03  0.00000000000E+00 0. -1.
         22    1    3    3    0    0 -0.34598545967E+02  0.22739049793E+02  0.20218358546E+01  0.41451315887E+02  0.00000000000E+00 0. -1.
</event>
<event>
 7    1  0.6105960E-006  0.9255839E+02  0.7818608E-02  0.1443013E+00
          2   -1    0    0  502    0  0.00000000000E+00  0.00000000000E+00  0.79370471181E+02  0.79370471181E+02  0.00000000000E+00 0. -1.
          1   -1    0    0  501    0 -0.00000000000E+00 -0.00000000000E+00 -0.25719876384E+04  0.25719876384E+04  0.00000000000E+00 0. -1.
         25    2    1    2    0    0 -0.10471209839E+03 -0.47046171078E+02 -0.17321011603E+03  0.24249826012E+03  0.12500278439E+03 0.  0.
          2    1    1    2  501    0  0.88617994795E+02  0.24770655853E+02 -0.23589287697E+04  0.23607227018E+04  0.00000000000E+00 0. -1.
          1    1    1    2  502    0  0.16094103596E+02  0.22275515225E+02  0.39521718505E+02  0.48137147638E+02  0.00000000000E+00 0. -1.
         22    1    3    3    0    0 -0.12245982469E+03 -0.16114029883E+02 -0.92664920531E+02  0.15441132769E+03  0.00000000000E+00 0.  1.
         22    1    3    3    0    0  0.17747726298E+02 -0.30932141195E+02 -0.80545195494E+02  0.88086932430E+02  0.00000000000E+00 0.  1.
</event>
<event>
 7    1  0.6105960E-006  0.1593758E+03  0.7818608E-02  0.1265323E+00
          2   -1    0    0  502    0  0.00000000000E+00  0.00000000000E+00  0.73538679433E+03  0.73538679433E+03  0.00000000000E+00 0. -1.
          1   -1    0    0  501    0 -0.00000000000E+00 -0.00000000000E+00 -0.10663929294E+04  0.10663929294E+04  0.00000000000E+00 0. -1.
         25    2    1    2    0    0  0.21228754925E+03 -0.19380772036E+02  0.50941682541E+03  0.56618791169E+03  0.12498652505E+03 0.  0.
          2    1    1    2  501    0 -0.15654493314E+03 -0.26934151856E+02 -0.10250320142E+04  0.10372667905E+04  0.00000000000E+00 0. -1.
          1    1    1    2  502    0 -0.55742616112E+02  0.46314923892E+02  0.18460905373E+03  0.19832502148E+03  0.00000000000E+00 0. -1.
         22    1    3    3    0    0  0.20307676779E+02 -0.43538694218E+02  0.59830998378E+02  0.76731792611E+02  0.00000000000E+00 0. -1.
         22    1    3    3    0    0  0.19197987247E+03  0.24157922182E+02  0.44958582703E+03  0.48945611908E+03  0.00000000000E+00 0. -1.
</event>
<event>
 7    1  0.6105960E-006  0.8407322E+02  0.7818608E-02  0.1332511E+00
          2   -1    0    0  502    0  0.00000000000E+00  0.00000000000E+00  0.91056101585E+03  0.91056101585E+03  0.00000000000E+00 0. -1.
          1   -1    0    0  501    0 -0.00000000000E+00 -0.00000000000E+00 -0.15527538570E+04  0.15527538570E+04  0.00000000000E+00 0. -1.
         25    2    1    2    0    0 -0.40766235612E+02  0.74681792717E+02  0.56314849359E+01  0.15131597050E+03  0.12500221268E+03 0.  0.
          2    1    1    2  501    0 -0.42945703529E+02 -0.60073209841E+02 -0.14768170875E+04  0.14786621771E+04  0.00000000000E+00 0. -1.
          1    1    1    2  502    0  0.83711939141E+02 -0.14608582876E+02  0.82899276134E+03  0.83333672535E+03  0.00000000000E+00 0. -1.
         22    1    3    3    0    0 -0.80713243060E+02  0.28692895471E+02 -0.15073101382E+02  0.86977630693E+02  0.00000000000E+00 0.  1.
         22    1    3    3    0    0  0.39947007448E+02  0.45988897247E+02  0.20704586318E+02  0.64338339803E+02  0.00000000000E+00 0.  1.
</event>
<event>
 7    1  0.6105960E-006  0.7412483E+02  0.7818608E-02  0.1415912E+00
          2   -1    0    0  502    0  0.00000000000E+00  0.00000000000E+00  0.30069299340E+03  0.30069299340E+03  0.00000000000E+00 0. -1.
          1   -1    0    0  501    0 -0.00000000000E+00 -0.00000000000E+00 -0.10563685546E+04  0.10563685546E+04  0.00000000000E+00 0. -1.
         25    2    1    2    0    0 -0.54692624760E+02 -0.24220119825E+02 -0.26198876431E+03  0.29637989585E+03  0.12500013051E+03 0.  0.
          2    1    1    2  501    0  0.41754010180E+02  0.64333890454E+02 -0.77371105034E+03  0.77750307796E+03  0.00000000000E+00 0. -1.
          1    1    1    2  502    0  0.12938614580E+02 -0.40113770629E+02  0.28002425347E+03  0.28317857418E+03  0.00000000000E+00 0. -1.
         22    1    3    3    0    0 -0.69395005740E+02  0.27143602284E+02 -0.20566521843E+03  0.21874785494E+03  0.00000000000E+00 0.  1.
         22    1    3    3    0    0  0.14702380980E+02 -0.51363722109E+02 -0.56323545884E+02  0.77632040913E+02  0.00000000000E+00 0.  1.
</event>
<event>
 7    1  0.6105960E-006  0.1044799E+03  0.7818608E-02  0.1402515E+00
          2   -1    0    0  502    0  0.00000000000E+00  0.00000000000E+00  0.12986904261E+04  0.12986904261E+04  0.00000000000E+00 0. -1.
          1   -1    0    0  501    0 -0.00000000000E+00 -0.00000000000E+00 -0.43472656161E+03  0.43472656161E+03  0.00000000000E+00 0. -1.
         25    2    1    2    0    0  0.47641429080E+01 -0.87034950462E+02 -0.15103375711E+03  0.21455332944E+03  0.12499662286E+03 0.  0.
          2    1    1    2  501    0 -0.29790308000E+02 -0.14660560751E+02 -0.24866336563E+03  0.25087021326E+03  0.00000000000E+00 0. -1.
          1    1    1    2  502    0  0.25026165092E+02  0.10169551121E+03  0.12636609872E+04  0.12679934450E+04  0.00000000000E+00 0. -1.
         22    1    3    3    0    0 -0.25505903505E+02 -0.72589362357E+02 -0.16193670727E+03  0.17928542551E+03  0.00000000000E+00 0.  1.
         22    1    3    3    0    0  0.30270046413E+02 -0.14445588105E+02  0.10902950150E+02  0.35267903929E+02  0.00000000000E+00 0.  1.
</event>
<event>
 7    1  0.6105960E-006  0.4733927E+02  0.7818608E-02  0.1525250E+00
          2   -1    0    0  502    0  0.00000000000E+00  0.00000000000E+00  0.24219361095E+03  0.24219361095E+03  0.00000000000E+00 0. -1.
          1   -1    0    0  501    0 -0.00000000000E+00 -0.00000000000E+00 -0.14719052100E+04  0.14719052100E+04  0.00000000000E+00 0. -1.
         25    2    1    2    0    0  0.17840667098E+01 -0.68298550205E+02 -0.24246859109E+03  0.28121715321E+03  0.12499677892E+03 0.  0.
          2    1    1    2  501    0 -0.18447913002E+02  0.43179438924E+02 -0.12085848553E+04  0.12094966482E+04  0.00000000000E+00 0. -1.
          1    1    1    2  502    0  0.16663846292E+02  0.25119111282E+02  0.22134184741E+03  0.22338501951E+03  0.00000000000E+00 0. -1.
         22    1    3    3    0    0 -0.45543572046E+02 -0.13575348449E+02 -0.28654867981E+02  0.55494220413E+02  0.00000000000E+00 0.  1.
         22    1    3    3    0    0  0.47327638756E+02 -0.54723201756E+02 -0.21381372311E+03  0.22572293280E+03  0.00000000000E+00 0.  1.
</event>
<event>
 7    1  0.6105960E-006  0.3964005E+02  0.7818608E-02  0.1572821E+00
          2   -1    0    0  502    0  0.00000000000E+00  0.00000000000E+00  0.12464658353E+04  0.12464658353E+04  0.00000000000E+00 0. -1.
          1   -1    0    0  501    0 -0.00000000000E+00 -0.00000000000E+00 -0.90523159618E+01  0.90523159618E+01  0.00000000000E+00 0. -1.
         25    2    1    2    0    0  0.15095029186E+02 -0.33608372827E+02  0.57636802015E+03  0.59091849865E+03  0.12500877873E+03 0.  0.
          2    1    1    2  501    0 -0.25745700091E+02 -0.63140789827E+01  0.30985432989E+03  0.31098619650E+03  0.00000000000E+00 0. -1.
          1    1    1    2  502    0  0.10650670905E+02  0.39922451810E+02  0.35119116933E+03  0.35361345614E+03  0.00000000000E+00 0. -1.
         22    1    3    3    0    0 -0.12592935129E-01 -0.76211238116E+00  0.53872468993E+03  0.53872522914E+03  0.00000000000E+00 0. -1.
         22    1    3    3    0    0  0.15107622121E+02 -0.32846260446E+02  0.37643330225E+02  0.52193269507E+02  0.00000000000E+00 0. -1.
</event>
<event>
 7    1  0.6105960E-006  0.1265785E+03  0.7818608E-02  0.1279630E+00
          2   -1    0    0  502    0  0.00000000000E+00  0.00000000000E+00  0.18915786154E+04  0.18915786154E+04  0.00000000000E+00 0. -1.
          1   -1    0    0  501    0 -0.00000000000E+00 -0.00000000000E+00 -0.17483769598E+03  0.17483769598E+03  0.00000000000E+00 0. -1.
         25    2    1    2    0    0  0.31940834901E+01 -0.19555241385E+03  0.14354573808E+03  0.27291233046E+03  0.12499924987E+03 0.  0.
          2    1    1    2  501    0 -0.68433329828E+01  0.11613121053E+03 -0.78214675267E+02  0.14018139924E+03  0.00000000000E+00 0. -1.
          1    1    1    2  502    0  0.36492494926E+01  0.79421203317E+02  0.16514098567E+04  0.16533225817E+04  0.00000000000E+00 0. -1.
         22    1    3    3    0    0  0.47468901878E+02 -0.16203101052E+03  0.13613401885E+03  0.21688664344E+03  0.00000000000E+00 0. -1.
         22    1    3    3    0    0 -0.44274818388E+02 -0.33521403327E+02  0.74117192281E+01  0.56025687021E+02  0.00000000000E+00 0. -1.
</event>
<event>
 7    1  0.6105960E-006  0.1355607E+03  0.7818608E-02  0.1393801E+00
          2   -1    0    0  502    0  0.00000000000E+00  0.00000000000E+00  0.10696338034E+04  0.10696338034E+04  0.00000000000E+00 0. -1.
          1   -1    0    0  501    0 -0.00000000000E+00 -0.00000000000E+00 -0.10066797115E+04  0.10066797115E+04  0.00000000000E+00 0. -1.
         25    2    1    2    0    0 -0.11791951708E+03  0.48391743179E+02  0.45927898840E+03  0.49275620727E+03  0.12499886921E+03 0.  0.
          2    1    1    2  501    0  0.11282345591E+03 -0.75336950835E+02 -0.98497244342E+03  0.99427134257E+03  0.00000000000E+00 0. -1.
          1    1    1    2  502    0  0.50960611687E+01  0.26945207657E+02  0.58864754696E+03  0.58928596505E+03  0.00000000000E+00 0. -1.
         22    1    3    3    0    0 -0.32925147388E+02 -0.24472029525E+02  0.26801899388E+03  0.27114041868E+03  0.00000000000E+00 0. -1.
         22    1    3    3    0    0 -0.84994369688E+02  0.72863772703E+02  0.19125999452E+03  0.22161578859E+03  0.00000000000E+00 0. -1.
</event>
<event>
 7    1  0.6105960E-006  0.1186879E+03  0.7818608E-02  0.1338225E+00
          2   -1    0    0  502    0  0.00000000000E+00  0.00000000000E+00  0.60985484353E+02  0.60985484353E+02  0.00000000000E+00 0. -1.
          1   -1    0    0  501    0 -0.00000000000E+00 -0.00000000000E+00 -0.28227786444E+04  0.28227786444E+04  0.00000000000E+00 0. -1.
         25    2    1    2    0    0  0.57349806178E+02  0.10573085138E+03 -0.98268876019E+03  0.99788282475E+03  0.12499967722E+03 0.  0.
          2    1    1    2  501    0 -0.95330812629E+02 -0.73575016633E+02 -0.18184552119E+04  0.18224380935E+04  0.00000000000E+00 0. -1.
          1    1    1    2  502    0  0.37981006451E+02 -0.32155834751E+02  0.39350812012E+02  0.63443210555E+02  0.00000000000E+00 0. -1.
         22    1    3    3    0    0  0.80407767140E+02  0.10772157048E+03 -0.61751287461E+03  0.63197428434E+03  0.00000000000E+00 0. -1.
         22    1    3    3    0    0 -0.23057960962E+02 -0.19907190949E+01 -0.36517588559E+03  0.36590854040E+03  0.00000000000E+00 0. -1.
</event>
<event>
 7    1  0.6105960E-006  0.5762634E+02  0.7818608E-02  0.1489213E+00
          2   -1    0    0  502    0  0.00000000000E+00  0.00000000000E+00  0.55352406688E+03  0.55352406688E+03  0.00000000000E+00 0. -1.
          1   -1    0    0  501    0 -0.00000000000E+00 -0.00000000000E+00 -0.22775406725E+03  0.22775406725E+03  0.00000000000E+00 0. -1.
         25    2    1    2    0    0 -0.83067152131E+02 -0.27610439135E+02 -0.11765378920E+03  0.19269184462E+03  0.12500097902E+03 0.  0.
          2    1    1    2  501    0  0.26750459334E+02  0.16904828104E+02 -0.67451165927E+02  0.74505168094E+02  0.00000000000E+00 0. -1.
          1    1    1    2  502    0  0.56316692797E+02  0.10705611031E+02  0.51087495476E+03  0.51408112142E+03  0.00000000000E+00 0. -1.
         22    1    3    3    0    0 -0.68165506015E+02 -0.56456125496E+00 -0.13922945051E+03  0.15502159471E+03  0.00000000000E+00 0.  1.
         22    1    3    3    0    0 -0.14901646115E+02 -0.27045877880E+02  0.21575661303E+02  0.37670249905E+02  0.00000000000E+00 0.  1.
</event>
<event>
 7    1  0.1384568E-005  0.8666716E+02  0.7818608E-02  0.1376841E+00
          2   -1    0    0  502    0  0.00000000000E+00  0.00000000000E+00  0.11374382484E+04  0.11374382484E+04  0.00000000000E+00 0. -1.
          1   -1    0    0  501    0 -0.00000000000E+00 -0.00000000000E+00 -0.20320261253E+04  0.20320261253E+04  0.00000000000E+00 0. -1.
         25    2    1    2    0    0  0.39520093188E+02 -0.10443472273E+02 -0.18334723072E+03  0.22563777920E+03  0.12500118605E+03 0.  0.
          2    1    1    2  501    0  0.34983885157E+02 -0.34598565910E+02 -0.18255041335E+04  0.18261670993E+04  0.00000000000E+00 0. -1.
          1    1    1    2  502    0 -0.74503978345E+02  0.45042038183E+02  0.11142634874E+04  0.11176594952E+04  0.00000000000E+00 0. -1.
         22    1    3    3    0    0  0.37813542916E+02 -0.82057821204E+01  0.34244546382E+01  0.38844893843E+02  0.00000000000E+00 0. -1.
         22    1    3    3    0    0  0.17065502714E+01 -0.22376901530E+01 -0.18677168535E+03  0.18679288536E+03  0.00000000000E+00 0. -1.
</event>
<event>
 7    1  0.6105960E-006  0.4342023E+02  0.7818608E-02  0.1513631E+00
          2   -1    0    0  502    0  0.00000000000E+00  0.00000000000E+00  0.16094642163E+04  0.16094642163E+04  0.00000000000E+00 0. -1.
          1   -1    0    0  501    0 -0.00000000000E+00 -0.00000000000E+00 -0.40599826028E+03  0.40599826028E+03  0.00000000000E+00 0. -1.
         25    2    1    2    0    0  0.17101577615E+02 -0.35803781125E+02  0.10841815229E+04  0.10920848080E+04  0.12500111381E+03 0.  0.
          2    1    1    2  501    0  0.28089809120E+02  0.21742965904E+02 -0.40018412443E+03  0.40175754801E+03  0.00000000000E+00 0. -1.
          1    1    1    2  502    0 -0.45191386735E+02  0.14060815221E+02  0.51946855752E+03  0.52162012059E+03  0.00000000000E+00 0. -1.
         22    1    3    3    0    0 -0.25620457535E+02  0.10159482038E+02  0.60504374408E+02  0.66486105632E+02  0.00000000000E+00 0.  1.
         22    1    3    3    0    0  0.42722035150E+02 -0.45963263163E+02  0.10236771485E+04  0.10255987024E+04  0.00000000000E+00 0.  1.
</event>
<event>
 7    1  0.6105960E-006  0.1061668E+03  0.7818608E-02  0.1442101E+00
          2   -1    0    0  502    0  0.00000000000E+00  0.00000000000E+00  0.99301406007E+03  0.99301406007E+03  0.00000000000E+00 0. -1.
          1   -1    0    0  501    0 -0.00000000000E+00 -0.00000000000E+00 -0.44353415220E+03  0.44353415220E+03  0.00000000000E+00 0. -1.
         25    2    1    2    0    0 -0.12756160894E+03 -0.23255117285E+02  0.24039517125E+03  0.30037896018E+03  0.12499966722E+03 0.  0.
          2    1    1    2  501    0  0.10364007515E+03  0.20152231473E+02 -0.40659678683E+03  0.42008133102E+03  0.00000000000E+00 0. -1.
          1    1    1    2  502    0  0.23921533786E+02  0.31028858119E+01  0.71568152345E+03  0.71608792106E+03  0.00000000000E+00 0. -1.
         22    1    3    3    0    0  0.20188989531E+02 -0.14838222178E+02  0.10941027424E+02  0.27339974704E+02  0.00000000000E+00 0.  1.
         22    1    3    3    0    0 -0.14775059847E+03 -0.84168951068E+01  0.22945414383E+03  0.27303898548E+03  0.00000000000E+00 0.  1.
</event>
<event>
 7    1  0.6105960E-006  0.7542537E+02  0.7818608E-02  0.1411222E+00
          2   -1    0    0  502    0  0.00000000000E+00  0.00000000000E+00  0.15730207240E+03  0.15730207240E+03  0.00000000000E+00 0. -1.
          1   -1    0    0  501    0 -0.00000000000E+00 -0.00000000000E+00 -0.58417667384E+03  0.58417667384E+03  0.00000000000E+00 0. -1.
         25    2    1    2    0    0  0.11169352886E+03  0.74184882366E+01 -0.27267468292E+03  0.32016647867E+03  0.12499845200E+03 0.  0.
          2    1    1    2  501    0 -0.68872409674E+02 -0.39904431819E+01 -0.28000319648E+03  0.28837670241E+03  0.00000000000E+00 0. -1.
          1    1    1    2  502    0 -0.42821119188E+02 -0.34280450547E+01  0.12580327795E+03  0.13293556516E+03  0.00000000000E+00 0. -1.
         22    1    3    3    0    0  0.57203558549E+02 -0.19634237739E+02 -0.24672121109E+03  0.25402579870E+03  0.00000000000E+00 0. -1.
         22    1    3    3    0    0  0.54489970313E+02  0.27052725976E+02 -0.25953471827E+02  0.66140679973E+02  0.00000000000E+00 0. -1.
</event>
<event>
 7    1  0.6105960E-006  0.1777143E+03  0.7818608E-02  0.1211017E+00
          2   -1    0    0  502    0  0.00000000000E+00  0.00000000000E+00  0.10059594271E+04  0.10059594271E+04  0.00000000000E+00 0. -1.
          1   -1    0    0  501    0 -0.00000000000E+00 -0.00000000000E+00 -0.12813420101E+04  0.12813420101E+04  0.00000000000E+00 0. -1.
         25    2    1    2    0    0 -0.29177104055E+02 -0.13713390113E+03 -0.19437341664E+03  0.27030069876E+03  0.12499772963E+03 0.  0.
          2    1    1    2  501    0 -0.11058058712E+03  0.23431691543E+02 -0.10375252124E+04  0.10436645422E+04  0.00000000000E+00 0. -1.
          1    1    1    2  502    0  0.13975769117E+03  0.11370220959E+03  0.95651604602E+03  0.97333619628E+03  0.00000000000E+00 0. -1.
         22    1    3    3    0    0 -0.60388703901E+02 -0.12451293030E+03 -0.10179865655E+03  0.17179415544E+03  0.00000000000E+00 0. -1.
         22    1    3    3    0    0  0.31211599847E+02 -0.12620970835E+02 -0.92574760095E+02  0.98506543318E+02  0.00000000000E+00 0. -1.
</event>
<event>
 7    1  0.6105960E-006  0.7098605E+02  0.7818608E-02  0.1428426E+00
          2   -1    0    0  502    0  0.00000000000E+00  0.00000000000E+00  0.75435675219E+03  0.75435675219E+03  0.00000000000E+00 0. -1.
          1   -1    0    0  501    0 -0.00000000000E+00 -0.00000000000E+00 -0.23605386190E+04  0.23605386190E+04  0.00000000000E+00 0. -1.
         25    2    1    2    0    0  0.10336183288E+03 -0.31654853020E+02 -0.12909514782E+03  0.20970454536E+03  0.12499896375E+03 0.  0.
          2    1    1    2  501    0 -0.39983103058E+02  0.51084659882E+00 -0.21892097958E+04  0.21895749449E+04  0.00000000000E+00 0. -1.
          1    1    1    2  502    0 -0.63378729822E+02  0.31144006421E+02  0.71212307679E+03  0.71561588092E+03  0.00000000000E+00 0. -1.
         22    1    3    3    0    0  0.23773698607E+02 -0.18582320170E+02  0.22735581149E+02  0.37780921356E+02  0.00000000000E+00 0.  1.
         22    1    3    3    0    0  0.79588134274E+02 -0.13072532850E+02 -0.15183072897E+03  0.17192362401E+03  0.00000000000E+00 0.  1.
</event>
<event>
 7    1  0.6105960E-006  0.5982067E+02  0.7818608E-02  0.1456762E+00
          2   -1    0    0  502    0  0.00000000000E+00  0.00000000000E+00  0.84187472178E+03  0.84187472178E+03  0.00000000000E+00 0. -1.
          1   -1    0    0  501    0 -0.00000000000E+00 -0.00000000000E+00 -0.48666914110E+03  0.48666914110E+03  0.00000000000E+00 0. -1.
         25    2    1    2    0    0  0.24304589631E+02  0.94746683048E+02  0.13861545542E+03  0.21072956087E+03  0.12500022528E+03 0.  0.
          2    1    1    2  501    0 -0.15184078674E+02 -0.57420784963E+02 -0.44809766523E+03  0.45201683639E+03  0.00000000000E+00 0. -1.
          1    1    1    2  502    0 -0.91205109566E+01 -0.37325898085E+02  0.66468779050E+03  0.66579746562E+03  0.00000000000E+00 0. -1.
         22    1    3    3    0    0 -0.48264708541E+01 -0.24906288146E+02  0.77341829909E-01  0.25369745602E+02  0.00000000000E+00 0. -1.
         22    1    3    3    0    0  0.29131060485E+02  0.11965297119E+03  0.13853811359E+03  0.18535981527E+03  0.00000000000E+00 0. -1.
</event>
<event>
 7    1  0.6105960E-006  0.1066947E+03  0.7818608E-02  0.1285341E+00
          2   -1    0    0  502    0  0.00000000000E+00  0.00000000000E+00  0.15226069883E+04  0.15226069883E+04  0.00000000000E+00 0. -1.
          1   -1    0    0  501    0 -0.00000000000E+00 -0.00000000000E+00 -0.62564109334E+03  0.62564109334E+03  0.00000000000E+00 0. -1.
         25    2    1    2    0    0  0.78853421427E+02 -0.16586483547E+03  0.15133062146E+03  0.26880348057E+03  0.12500139382E+03 0.  0.
          2    1    1    2  501    0 -0.63617785122E+02  0.62740808132E+02 -0.56129564578E+03  0.56836294176E+03  0.00000000000E+00 0. -1.
          1    1    1    2  502    0 -0.15235636305E+02  0.10312402734E+03  0.13069309193E+04  0.13110816593E+04  0.00000000000E+00 0. -1.
         22    1    3    3    0    0  0.14114145307E+02 -0.10657607056E+03  0.17753877999E+02  0.10896269131E+03  0.00000000000E+00 0.  1.
         22    1    3    3    0    0  0.64739276120E+02 -0.59288764914E+02  0.13357674346E+03  0.15984078926E+03  0.00000000000E+00 0.  1.
</event>
<event>
 7    1  0.6105960E-006  0.1326489E+03  0.7818608E-02  0.1292435E+00
          2   -1    0    0  502    0  0.00000000000E+00  0.00000000000E+00  0.17683829341E+04  0.17683829341E+04  0.00000000000E+00 0. -1.
          1   -1    0    0  501    0 -0.00000000000E+00 -0.00000000000E+00 -0.13113004215E+04  0.13113004215E+04  0.00000000000E+00 0. -1.
         25    2    1    2    0    0  0.10138945209E+03  0.10161796609E+02 -0.40999789660E+02  0.16639946063E+03  0.12499885856E+03 0.  0.
          2    1    1    2  501    0 -0.11141655349E+03 -0.76651743568E+02 -0.12031482781E+04  0.12107249552E+04  0.00000000000E+00 0. -1.
          1    1    1    2  502    0  0.10027101398E+02  0.66489946959E+02  0.17012305803E+04  0.17025589397E+04  0.00000000000E+00 0. -1.
         22    1    3    3    0    0  0.79691283697E+02 -0.49462186097E+02 -0.42406270009E+02  0.10293444655E+03  0.00000000000E+00 0. -1.
         22    1    3    3    0    0  0.21698168390E+02  0.59623982706E+02  0.14064803486E+01  0.63465014080E+02  0.00000000000E+00 0. -1.
</event>
<event>
 7    1  0.6105960E-006  0.5320190E+02  0.7818608E-02  0.1437186E+00
          2   -1    0    0  502    0  0.00000000000E+00  0.00000000000E+00  0.60694429875E+03  0.60694429875E+03  0.00000000000E+00 0. -1.
          1   -1    0    0  501    0 -0.00000000000E+00 -0.00000000000E+00 -0.28402829394E+04  0.28402829394E+04  0.00000000000E+00 0. -1.
         25    2    1    2    0    0 -0.39531420306E+02 -0.82539588353E+01 -0.49482636412E+03  0.51196565877E+03  0.12499937644E+03 0.  0.
          2    1    1    2  501    0  0.15687546601E+02  0.52132179312E+02 -0.23355272422E+04  0.23361616730E+04  0.00000000000E+00 0. -1.
          1    1    1    2  502    0  0.23843873705E+02 -0.43878220477E+02  0.59701496570E+03  0.59909990637E+03  0.00000000000E+00 0. -1.
         22    1    3    3    0    0  0.43541448672E+02 -0.19107191493E+02 -0.17369836143E+03  0.18008904265E+03  0.00000000000E+00 0.  1.
         22    1    3    3    0    0 -0.83072868978E+02  0.10853232658E+02 -0.32112800269E+03  0.33187661613E+03  0.00000000000E+00 0.  1.
</event>
<event>
 7    1  0.6105960E-006  0.1848631E+03  0.7818608E-02  0.1254477E+00
          2   -1    0    0  502    0  0.00000000000E+00  0.00000000000E+00  0.28110166059E+04  0.28110166059E+04  0.00000000000E+00 0. -1.
          1   -1    0    0  501    0 -0.00000000000E+00 -0.00000000000E+00 -0.25995719852E+03  0.25995719852E+03  0.00000000000E+00 0. -1.
         25    2    1    2    0    0 -0.71574222245E+01  0.14797681062E+03  0.50874794523E+03  0.54442320118E+03  0.12499514003E+03 0.  0.
          2    1    1    2  501    0 -0.60171378434E+02  0.34799885095E+02 -0.23288212331E+03  0.24303438057E+03  0.00000000000E+00 0. -1.
          1    1    1    2  502    0  0.67328800658E+02 -0.18277669571E+03  0.22751935855E+04  0.22835162227E+04  0.00000000000E+00 0. -1.
         22    1    3    3    0    0  0.49400424061E+01  0.12366183935E+03  0.50117402126E+03  0.51622868394E+03  0.00000000000E+00 0. -1.
         22    1    3    3    0    0 -0.12097464631E+02  0.24314971266E+02  0.75739239684E+01  0.28194517240E+02  0.00000000000E+00 0. -1.
</event>
<event>
 7    1  0.6105960E-006  0.1862804E+03  0.7818608E-02  0.1215122E+00
          2   -1    0    0  502    0  0.00000000000E+00  0.00000000000E+00  0.92683057792E+02  0.92683057792E+02  0.00000000000E+00 0. -1.
          1   -1    0    0  501    0 -0.00000000000E+00 -0.00000000000E+00 -0.86263825132E+03  0.86263825132E+03  0.00000000000E+00 0. -1.
         25    2    1    2    0    0 -0.11706907236E+03 -0.12226880419E+03 -0.30182761411E+03  0.36794035516E+03  0.12500147255E+03 0.  0.
          2    1    1    2  501    0 -0.80789643220E+02  0.64271883467E+02 -0.31234194735E+03  0.32896099090E+03  0.00000000000E+00 0. -1.
          1    1    1    2  502    0  0.19785871558E+03  0.57996920724E+02 -0.15578563207E+03  0.25841996305E+03  0.00000000000E+00 0. -1.
         22    1    3    3    0    0 -0.11031579499E+03 -0.27553447567E+02 -0.18795060443E+03  0.21966837916E+03  0.00000000000E+00 0. -1.
         22    1    3    3    0    0 -0.67532773686E+01 -0.94715356624E+02 -0.11387700968E+03  0.14827197600E+03  0.00000000000E+00 0. -1.
</event>
<event>
 7    1  0.6105960E-006  0.7593158E+02  0.7818608E-02  0.1349662E+00
          2   -1    0    0  502    0  0.00000000000E+00  0.00000000000E+00  0.93050666848E+03  0.93050666848E+03  0.00000000000E+00 0. -1.
          1   -1    0    0  501    0 -0.00000000000E+00 -0.00000000000E+00 -0.66803703141E+03  0.66803703141E+03  0.00000000000E+00 0. -1.
         25    2    1    2    0    0 -0.53592563679E+02 -0.13527657440E+03 -0.17610815003E+03  0.26040555734E+03  0.12500023729E+03 0.  0.
          2    1    1    2  501    0  0.30954493205E+02  0.63331726827E+02 -0.44540245786E+03  0.45094615836E+03  0.00000000000E+00 0. -1.
          1    1    1    2  502    0  0.22638070474E+02  0.71944847572E+02  0.88398024497E+03  0.88719198419E+03  0.00000000000E+00 0. -1.
         22    1    3    3    0    0  0.43237754040E+01 -0.42083429589E+02  0.10808207698E+02  0.43663800034E+02  0.00000000000E+00 0.  1.
         22    1    3    3    0    0 -0.57916339083E+02 -0.93193144809E+02 -0.18691635773E+03  0.21674175730E+03  0.00000000000E+00 0.  1.
</event>
<event>
 7    1  0.6105960E-006  0.8818093E+02  0.7818608E-02  0.1377363E+00
          2   -1    0    0  502    0  0.00000000000E+00  0.00000000000E+00  0.98280094212E+03  0.98280094212E+03  0.00000000000E+00 0. -1.
          1   -1    0    0  501    0 -0.00000000000E+00 -0.00000000000E+00 -0.58787409582E+03  0.58787409582E+03  0.00000000000E+00 0. -1.
         25    2    1    2    0    0 -0.16190574065E+02  0.51494086634E+02  0.29281636068E+02  0.13927216101E+03  0.12500217988E+03 0.  0.
          2    1    1    2  501    0 -0.46384909026E+02  0.12925137528E+02 -0.52953961163E+03  0.53172438279E+03  0.00000000000E+00 0. -1.
          1    1    1    2  502    0  0.62575483091E+02 -0.64419224162E+02  0.89518482186E+03  0.89967849414E+03  0.00000000000E+00 0. -1.
         22    1    3    3    0    0 -0.44939428901E+02  0.55738815204E+02 -0.26523658684E+02  0.76353600179E+02  0.00000000000E+00 0. -1.
         22    1    3    3    0    0  0.28748854836E+02 -0.42447285707E+01  0.55805294752E+02  0.62918560834E+02  0.00000000000E+00 0. -1.
</event>
<event>
 7    1  0.6105960E-006  0.1919603E+03  0.7818608E-02  0.1223562E+00
          2   -1    0    0  502    0  0.00000000000E+00  0.00000000000E+00  0.78746865903E+03  0.78746865903E+03  0.00000000000E+00 0. -1.
          1   -1    0    0  501    0 -0.00000000000E+00 -0.00000000000E+00 -0.16384856806E+04  0.16384856806E+04  0.00000000000E+00 0. -1.
         25    2    1    2    0    0  0.17742191284E+03 -0.20298024868E+03 -0.36224507781E+03  0.46853555904E+03  0.12499822870E+03 0.  0.
          2    1    1    2  501    0 -0.13620687764E+03  0.12108853721E+03 -0.12134019969E+04  0.12270122874E+04  0.00000000000E+00 0. -1.
          1    1    1    2  502    0 -0.41215035204E+02  0.81891711463E+02  0.72463005309E+03  0.73040649324E+03  0.00000000000E+00 0. -1.
         22    1    3    3    0    0  0.48239629503E+01 -0.72385672399E+02 -0.14358506627E+03  0.16087146248E+03  0.00000000000E+00 0. -1.
         22    1    3    3    0    0  0.17259794989E+03 -0.13059457628E+03 -0.21866001154E+03  0.30766409655E+03  0.00000000000E+00 0. -1.
</event>
<event>
 7    1  0.6105960E-006  0.8868513E+02  0.7818608E-02  0.1454148E+00
          2   -1    0    0  502    0  0.00000000000E+00  0.00000000000E+00  0.14473976660E+03  0.14473976660E+03  0.00000000000E+00 0. -1.
          1   -1    0    0  501    0 -0.00000000000E+00 -0.00000000000E+00 -0.16733331416E+04  0.16733331416E+04  0.00000000000E+00 0. -1.
         25    2    1    2    0    0  0.84179225024E+02 -0.69460187005E+02 -0.47400695005E+00  0.16593928390E+03  0.12499904701E+03 0.  0.
          2    1    1    2  501    0 -0.57894453434E+02  0.66808096240E+02 -0.15860247125E+04  0.15884865370E+04  0.00000000000E+00 0. -1.
          1    1    1    2  502    0 -0.26284771590E+02  0.26520907657E+01  0.57905344483E+02  0.63647087307E+02  0.00000000000E+00 0. -1.
         22    1    3    3    0    0 -0.15233666138E+02 -0.39388239996E+02  0.36372235996E+02  0.55735424869E+02  0.00000000000E+00 0. -1.
         22    1    3    3    0    0  0.99412891162E+02 -0.30071947010E+02 -0.36846242946E+02  0.11020385903E+03  0.00000000000E+00 0. -1.
</event>
<event>
 7    1  0.6105960E-006  0.6789912E+02  0.7818608E-02  0.1413875E+00
          2   -1    0    0  502    0  0.00000000000E+00  0.00000000000E+00  0.20578644972E+04  0.20578644972E+04  0.00000000000E+00 0. -1.
          1   -1    0    0  501    0 -0.00000000000E+00 -0.00000000000E+00 -0.29822449566E+02  0.29822449566E+02  0.00000000000E+00 0. -1.
         25    2    1    2    0    0  0.25793981255E+02  0.47034657499E+01  0.15456247145E+04  0.15508924394E+04  0.12499659353E+03 0.  0.
          2    1    1    2  501    0 -0.56542057698E+02 -0.39912922343E+02  0.20030034406E+02  0.72050315315E+02  0.00000000000E+00 0. -1.
          1    1    1    2  502    0  0.30748076443E+02  0.35209456593E+02  0.46238729872E+03  0.46474419206E+03  0.00000000000E+00 0. -1.
         22    1    3    3    0    0  0.45299751979E+02 -0.50776267443E+02  0.91802611278E+03  0.92054453483E+03  0.00000000000E+00 0.  1.
         22    1    3    3    0    0 -0.19505770724E+02  0.55479733193E+02  0.62759860176E+03  0.63034790459E+03  0.00000000000E+00 0.  1.
</event>
<event>
 7    1  0.6105960E-006  0.1025444E+03  0.7818608E-02  0.1438659E+00
          2   -1    0    0  502    0  0.00000000000E+00  0.00000000000E+00  0.40412517043E+03  0.40412517043E+03  0.00000000000E+00 0. -1.
          1   -1    0    0  501    0 -0.00000000000E+00 -0.00000000000E+00 -0.93992916649E+03  0.93992916649E+03  0.00000000000E+00 0. -1.
         25    2    1    2    0    0  0.11347461014E+03  0.16765702087E+01  0.27471637961E+02  0.17104988156E+03  0.12499629216E+03 0.  0.
          2    1    1    2  501    0 -0.14543233309E+02  0.21097405350E+02 -0.85949244740E+03  0.85987433575E+03  0.00000000000E+00 0. -1.
          1    1    1    2  502    0 -0.98931376830E+02 -0.22773975558E+02  0.29621681337E+03  0.31313011961E+03  0.00000000000E+00 0. -1.
         22    1    3    3    0    0  0.37935211925E+01 -0.47028026621E+02  0.18596573343E+02  0.50713495551E+02  0.00000000000E+00 0.  1.
         22    1    3    3    0    0  0.10968108895E+03  0.48704596830E+02  0.88750646176E+01  0.12033638601E+03  0.00000000000E+00 0.  1.
</event>
<event>
 7    1  0.6105960E-006  0.7163455E+02  0.7818608E-02  0.1384963E+00
          2   -1    0    0  502    0  0.00000000000E+00  0.00000000000E+00  0.32566388011E+04  0.32566388011E+04  0.00000000000E+00 0. -1.
          1   -1    0    0  501    0 -0.00000000000E+00 -0.00000000000E+00 -0.62556330775E+01  0.62556330775E+01  0.00000000000E+00 0. -1.
         25    2    1    2    0    0 -0.29101771165E+01 -0.51733774677E+01  0.12866761480E+04  0.12927472192E+04  0.12499851993E+03 0.  0.
          2    1    1    2  501    0 -0.65890673979E+02  0.28105654131E+02  0.55927279510E+03  0.56384179346E+03  0.00000000000E+00 0. -1.
          1    1    1    2  502    0  0.68800851096E+02 -0.22932276663E+02  0.14044342249E+04  0.14063054215E+04  0.00000000000E+00 0. -1.
         22    1    3    3    0    0 -0.78257878933E+01  0.35938369466E+02  0.12414362241E+03  0.12947759784E+03  0.00000000000E+00 0.  1.
         22    1    3    3    0    0  0.49156107768E+01 -0.41111746934E+02  0.11625325256E+04  0.11632696214E+04  0.00000000000E+00 0.  1.
</event>
<event>
 7    1  0.6105960E-006  0.1441043E+03  0.7818608E-02  0.1273589E+00
          2   -1    0    0  502    0  0.00000000000E+00  0.00000000000E+00  0.27363615515E+03  0.27363615515E+03  0.00000000000E+00 0. -1.
          1   -1    0    0  501    0 -0.00000000000E+00 -0.00000000000E+00 -0.39838656839E+03  0.39838656839E+03  0.00000000000E+00 0. -1.
         25    2    1    2    0    0  0.11772590003E+03 -0.18494798296E+02  0.68611788478E+02  0.18583564784E+03  0.12500346151E+03 0.  0.
          2    1    1    2  501    0  0.29199358777E+02 -0.67985251411E+02 -0.28373822119E+03  0.29322683221E+03  0.00000000000E+00 0. -1.
          1    1    1    2  502    0 -0.14692525881E+03  0.86480049707E+02  0.90376019476E+02  0.19296024349E+03  0.00000000000E+00 0. -1.
         22    1    3    3    0    0 -0.23907258328E+02 -0.10828572819E+02  0.27819771800E+02  0.38245976169E+02  0.00000000000E+00 0.  1.
         22    1    3    3    0    0  0.14163315836E+03 -0.76662254767E+01  0.40792016678E+02  0.14758967167E+03  0.00000000000E+00 0.  1.
</event>
<event>
 7    1  0.6105960E-006  0.4155066E+02  0.7818608E-02  0.1502742E+00
          2   -1    0    0  502    0  0.00000000000E+00  0.00000000000E+00  0.32986767958E+03  0.32986767958E+03  0.00000000000E+00 0. -1.
          1   -1    0    0  501    0 -0.00000000000E+00 -0.00000000000E+00 -0.41915886588E+03  0.41915886588E+03  0.00000000000E+00 0. -1.
         25    2    1    2    0    0  0.27220091201E+01 -0.12462489500E+01 -0.20655407729E+02  0.12674350161E+03  0.12501322675E+03 0.  0.
          2    1    1    2  501    0 -0.42275844346E+02 -0.45114231327E+01 -0.34269605890E+03  0.34532331045E+03  0.00000000000E+00 0. -1.
          1    1    1    2  502    0  0.39553835226E+02  0.57576720827E+01  0.27406028033E+03  0.27695973340E+03  0.00000000000E+00 0. -1.
         22    1    3    3    0    0  0.56219190467E+02  0.90375090956E+01  0.18257458201E+02  0.59796393933E+02  0.00000000000E+00 0. -1.
         22    1    3    3    0    0 -0.53497181347E+02 -0.10283758046E+02 -0.38912865930E+02  0.66947107679E+02  0.00000000000E+00 0. -1.
</event>
<event>
 7    1  0.6105960E-006  0.7857813E+02  0.7818608E-02  0.1411503E+00
          2   -1    0    0  502    0  0.00000000000E+00  0.00000000000E+00  0.28832526778E+03  0.28832526778E+03  0.00000000000E+00 0. -1.
          1   -1    0    0  501    0 -0.00000000000E+00 -0.00000000000E+00 -0.53092046780E+03  0.53092046780E+03  0.00000000000E+00 0. -1.
         25    2    1    2    0    0  0.79924303461E+02 -0.44126258055E+02 -0.35131070078E+03  0.38389508203E+03  0.12498481745E+03 0.  0.
          2    1    1    2  501    0 -0.35570692084E+02 -0.20678015942E+02 -0.15490823913E+03  0.16027918464E+03  0.00000000000E+00 0. -1.
          1    1    1    2  502    0 -0.44353611377E+02  0.64804273997E+02  0.26362373989E+03  0.27507146890E+03  0.00000000000E+00 0. -1.
         22    1    3    3    0    0  0.10913614554E+03 -0.47242894769E+02 -0.22820585891E+03  0.25733344790E+03  0.00000000000E+00 0. -1.
         22    1    3    3    0    0 -0.29211842075E+02  0.31166367139E+01 -0.12310484187E+03  0.12656163413E+03  0.00000000000E+00 0. -1.
</event>
<event>
 7    1  0.6105960E-006  0.1895600E+03  0.7818608E-02  0.1241791E+00
          2   -1    0    0  502    0  0.00000000000E+00  0.00000000000E+00  0.90820569994E+03  0.90820569994E+03  0.00000000000E+00 0. -1.
          1   -1    0    0  501    0 -0.00000000000E+00 -0.00000000000E+00 -0.18092182461E+04  0.18092182461E+04  0.00000000000E+00 0. -1.
         25    2    1    2    0    0  0.20569317501E+03 -0.32165409571E+02 -0.25488426609E+03  0.35203907657E+03  0.12498490515E+03 0.  0.
          2    1    1    2  501    0 -0.18420085616E+03 -0.41748905540E+02 -0.14980918150E+04  0.15099509968E+04  0.00000000000E+00 0. -1.
          1    1    1    2  502    0 -0.21492318844E+02  0.73914315111E+02  0.85196353491E+03  0.85543387270E+03  0.00000000000E+00 0. -1.
         22    1    3    3    0    0  0.15591904793E+03  0.34395829697E+02 -0.17089042466E+03  0.23387466697E+03  0.00000000000E+00 0. -1.
         22    1    3    3    0    0  0.49774127078E+02 -0.66561239268E+02 -0.83993841428E+02  0.11816440960E+03  0.00000000000E+00 0. -1.
</event>
<event>
 7    1  0.6105960E-006  0.5361339E+02  0.7818608E-02  0.1547158E+00
          2   -1    0    0  502    0  0.00000000000E+00  0.00000000000E+00  0.15120108404E+04  0.15120108404E+04  0.00000000000E+00 0. -1.
          1   -1    0    0  501    0 -0.00000000000E+00 -0.00000000000E+00 -0.79707136969E+03  0.79707136969E+03  0.00000000000E+00 0. -1.
         25    2    1    2    0    0 -0.76391123420E+01 -0.36832332327E+02  0.13467447747E+04  0.13530563884E+04  0.12500050075E+03 0.  0.
          2    1    1    2  501    0  0.29219007790E+02  0.44966453967E+02 -0.79218424830E+03  0.79399723907E+03  0.00000000000E+00 0. -1.
          1    1    1    2  502    0 -0.21579895448E+02 -0.81341216395E+01  0.16037894426E+03  0.16202858262E+03  0.00000000000E+00 0. -1.
         22    1    3    3    0    0 -0.10672118463E+02  0.46013489821E+02  0.43895061877E+03  0.44148474614E+03  0.00000000000E+00 0. -1.
         22    1    3    3    0    0  0.30330061207E+01 -0.82845822149E+02  0.90779415598E+03  0.91157164228E+03  0.00000000000E+00 0. -1.
</event>
<event>
 7    1  0.6105960E-006  0.1655565E+03  0.7818608E-02  0.1233921E+00
          2   -1    0    0  502    0  0.00000000000E+00  0.00000000000E+00  0.42960130205E+03  0.42960130205E+03  0.00000000000E+00 0. -1.
          1   -1    0    0  501    0 -0.00000000000E+00 -0.00000000000E+00 -0.15396281578E+04  0.15396281578E+04  0.00000000000E+00 0. -1.
         25    2    1    2    0    0 -0.10012606202E+03 -0.17335305630E+03 -0.14584739556E+03  0.27744030565E+03  0.12500059993E+03 0.  0.
          2    1    1    2  501    0 -0.39691940609E+02  0.86855621863E+02 -0.13075786141E+04  0.13110610898E+04  0.00000000000E+00 0. -1.
          1    1    1    2  502    0  0.13981800263E+03  0.86497434441E+02  0.34339915396E+03  0.38072806432E+03  0.00000000000E+00 0. -1.
         22    1    3    3    0    0 -0.12788278071E+03 -0.15575658929E+03 -0.11333812190E+03  0.23121343081E+03  0.00000000000E+00 0.  1.
         22    1    3    3    0    0  0.27756718692E+02 -0.17596467015E+02 -0.32509273658E+02  0.46226874843E+02  0.00000000000E+00 0.  1.
</event>
<event>
 7    1  0.6105960E-006  0.4367863E+02  0.7818608E-02  0.1510233E+00
          2   -1    0    0  502    0  0.00000000000E+00  0.00000000000E+00  0.13807885461E+03  0.13807885461E+03  0.00000000000E+00 0. -1.
          1   -1    0    0  501    0 -0.00000000000E+00 -0.00000000000E+00 -0.91967926579E+03  0.91967926579E+03  0.00000000000E+00 0. -1.
         25    2    1    2    0    0  0.88710952723E+01  0.51604721307E+02 -0.14611445954E+03  0.19928809807E+03  0.12499826859E+03 0.  0.
          2    1    1    2  501    0  0.24012812205E+02 -0.36631861882E+02 -0.74338890746E+03  0.74467816954E+03  0.00000000000E+00 0. -1.
          1    1    1    2  502    0 -0.32883907477E+02 -0.14972859425E+02  0.10790295582E+03  0.11379185280E+03  0.00000000000E+00 0. -1.
         22    1    3    3    0    0  0.12009728468E+02  0.59091025154E+01 -0.15246083497E+03  0.15304723869E+03  0.00000000000E+00 0.  1.
         22    1    3    3    0    0 -0.31386331958E+01  0.45695618792E+02  0.63463754252E+01  0.46240859380E+02  0.00000000000E+00 0.  1.
</event>
<event>
 7    1  0.6105960E-006  0.4220171E+02  0.7818608E-02  0.1539446E+00
          2   -1    0    0  502    0  0.00000000000E+00  0.00000000000E+00  0.34395889122E+03  0.34395889122E+03  0.00000000000E+00 0. -1.
          1   -1    0    0  501    0 -0.00000000000E+00 -0.00000000000E+00 -0.18737956563E+03  0.18737956563E+03  0.00000000000E+00 0. -1.
         25    2    1    2    0    0 -0.12062357074E+02  0.24038368417E+02  0.12625400985E+03  0.17969041707E+03  0.12500090947E+03 0.  0.
          2    1    1    2  501    0  0.40701520257E+02 -0.12706051702E+02 -0.15654940900E+03  0.16225219555E+03  0.00000000000E+00 0. -1.
          1    1    1    2  502    0 -0.28639163182E+02 -0.11332316715E+02  0.18687472473E+03  0.18939584424E+03  0.00000000000E+00 0. -1.
         22    1    3    3    0    0  0.35275115109E+02 -0.24817120033E+02  0.88908328489E+01  0.44037144565E+02  0.00000000000E+00 0.  1.
         22    1    3    3    0    0 -0.47337472184E+02  0.48855488451E+02  0.11736317700E+03  0.13565327250E+03  0.00000000000E+00 0.  1.
</event>
<event>
 7    1  0.6105960E-006  0.5506370E+02  0.7818608E-02  0.1464239E+00
          2   -1    0    0  502    0  0.00000000000E+00  0.00000000000E+00  0.21766939350E+04  0.21766939350E+04  0.00000000000E+00 0. -1.
          1   -1    0    0  501    0 -0.00000000000E+00 -0.00000000000E+00 -0.16478395524E+02  0.16478395524E+02  0.00000000000E+00 0. -1.
         25    2    1    2    0    0 -0.20686156910E+02  0.63497813438E+02  0.71397324476E+03  0.72790252461E+03  0.12499760674E+03 0.  0.
          2    1    1    2  501    0  0.37923402732E+02 -0.11184351760E+02  0.34560358304E+02  0.52513736918E+02  0.00000000000E+00 0. -1.
          1    1    1    2  502    0 -0.17237245822E+02 -0.52313461678E+02  0.14116819365E+04  0.14127560690E+04  0.00000000000E+00 0. -1.
         22    1    3    3    0    0 -0.35491819756E+02  0.93794244442E+02  0.41097463692E+03  0.42303331045E+03  0.00000000000E+00 0. -1.
         22    1    3    3    0    0  0.14805662846E+02 -0.30296431004E+02  0.30299860784E+03  0.30486921415E+03  0.00000000000E+00 0. -1.
</event>
<event>
 7    1  0.6105960E-006  0.9210751E+02  0.7818608E-02  0.1358663E+00
          2   -1    0    0  502    0  0.00000000000E+00  0.00000000000E+00  0.90036725024E+02  0.90036725024E+02  0.00000000000E+00 0. -1.
          1   -1    0    0  501    0 -0.00000000000E+00 -0.00000000000E+00 -0.17352109335E+04  0.17352109335E+04  0.00000000000E+00 0. -1.
         25    2    1    2    0    0  0.13794487021E+03  0.14131426241E+02 -0.37658402925E+02  0.19045143698E+03  0.12500044045E+03 0.  0.
          2    1    1    2  501    0 -0.86397753935E+02 -0.29684933516E+02 -0.15609197686E+04  0.15635908324E+04  0.00000000000E+00 0. -1.
          1    1    1    2  502    0 -0.51547116271E+02  0.15553507275E+02 -0.46596036966E+02  0.71205389159E+02  0.00000000000E+00 0. -1.
         22    1    3    3    0    0  0.66876723825E+02 -0.26200095595E+02 -0.72103445855E+02  0.10177351376E+03  0.00000000000E+00 0.  1.
         22    1    3    3    0    0  0.71068146382E+02  0.40331521836E+02  0.34445042931E+02  0.88677923218E+02  0.00000000000E+00 0.  1.
</event>
<event>
 7    1  0.6105960E-006  0.4340867E+02  0.7818608E-02  0.1599566E+00
          2   -1    0    0  502    0  0.00000000000E+00  0.00000000000E+00  0.36787191593E+03  0.36787191593E+03  0.00000000000E+00 0. -1.
          1   -1    0    0  501    0 -0.00000000000E+00 -0.00000000000E+00 -0.10242933723E+04  0.10242933723E+04  0.00000000000E+00 0. -1.
         25    2    1    2    0    0 -0.44304110533E+02  0.32060773551E+02 -0.17575937091E+03  0.22250018124E+03  0.12499690708E+03 0.  0.
          2    1    1    2  501    0  0.25499261148E+01 -0.20390613171E+02 -0.82367093554E+03  0.82392723543E+03  0.00000000000E+00 0. -1.
          1    1    1    2  502    0  0.41754184419E+02 -0.11670160380E+02  0.34300885010E+03  0.34573787153E+03  0.00000000000E+00 0. -1.
         22    1    3    3    0    0  0.13152940980E+02 -0.41133809164E+02 -0.61393780817E+02  0.75061217920E+02  0.00000000000E+00 0. -1.
         22    1    3    3    0    0 -0.57457051513E+02  0.73194582715E+02 -0.11436559009E+03  0.14743896332E+03  0.00000000000E+00 0. -1.
</event>
<event>
 7    1  0.6105960E-006  0.1378087E+03  0.7818608E-02  0.1399668E+00
          2   -1    0    0  502    0  0.00000000000E+00  0.00000000000E+00  0.34750520133E+03  0.34750520133E+03  0.00000000000E+00 0. -1.
          1   -1    0    0  501    0 -0.00000000000E+00 -0.00000000000E+00 -0.14276871603E+04  0.14276871603E+04  0.00000000000E+00 0. -1.
         25    2    1    2    0    0 -0.44487105383E+02 -0.14531463542E+03  0.32831148342E+02  0.19949485215E+03  0.12499946367E+03 0.  0.
          2    1    1    2  501    0  0.22571544487E+02  0.12383424397E+02 -0.13246047296E+04  0.13248549028E+04  0.00000000000E+00 0. -1.
          1    1    1    2  502    0  0.21915560896E+02  0.13293121103E+03  0.21159162232E+03  0.25084260665E+03  0.00000000000E+00 0. -1.
         22    1    3    3    0    0 -0.75910040546E+02 -0.94154002541E+02 -0.16140403314E+02  0.12201566731E+03  0.00000000000E+00 0.  1.
         22    1    3    3    0    0  0.31422935163E+02 -0.51160632881E+02  0.48971551656E+02  0.77479184835E+02  0.00000000000E+00 0.  1.
</event>
<event>
 7    1  0.6105960E-006  0.1379655E+03  0.7818608E-02  0.1423734E+00
          2   -1    0    0  502    0  0.00000000000E+00  0.00000000000E+00  0.43706239514E+03  0.43706239514E+03  0.00000000000E+00 0. -1.
          1   -1    0    0  501    0 -0.00000000000E+00 -0.00000000000E+00 -0.41730687717E+03  0.41730687717E+03  0.00000000000E+00 0. -1.
         25    2    1    2    0    0  0.61142012939E+02 -0.12143233573E+03 -0.22213634425E+03  0.28888355718E+03  0.12499998506E+03 0.  0.
          2    1    1    2  501    0 -0.18805688631E+02 -0.10050506535E+02 -0.14920061519E+03  0.15071658893E+03  0.00000000000E+00 0. -1.
          1    1    1    2  502    0 -0.42336324308E+02  0.13148284226E+03  0.39109247741E+03  0.41476912620E+03  0.00000000000E+00 0. -1.
         22    1    3    3    0    0  0.77328798226E+02 -0.13304734584E+03 -0.22050549725E+03  0.26889405644E+03  0.00000000000E+00 0.  1.
         22    1    3    3    0    0 -0.16186785287E+02  0.11615010116E+02 -0.16308470025E+01  0.19989500741E+02  0.00000000000E+00 0.  1.
</event>
<event>
 7    1  0.6105960E-006  0.7443938E+02  0.7818608E-02  0.1364429E+00
          2   -1    0    0  502    0  0.00000000000E+00  0.00000000000E+00  0.12866688241E+04  0.12866688241E+04  0.00000000000E+00 0. -1.
          1   -1    0    0  501    0 -0.00000000000E+00 -0.00000000000E+00 -0.51652182023E+02  0.51652182023E+02  0.00000000000E+00 0. -1.
         25    2    1    2    0    0  0.24107940664E+01  0.57374882604E+02  0.61992485579E+03  0.63500405387E+03  0.12500253006E+03 0.  0.
          2    1    1    2  501    0  0.63475620877E+02 -0.54635459394E+00 -0.16638973703E+02  0.65622468674E+02  0.00000000000E+00 0. -1.
          1    1    1    2  502    0 -0.65886414943E+02 -0.56828528010E+02  0.63173075994E+03  0.63769448353E+03  0.00000000000E+00 0. -1.
         22    1    3    3    0    0 -0.28245286356E+01  0.38075630677E+02  0.42104044729E+02  0.56837331007E+02  0.00000000000E+00 0. -1.
         22    1    3    3    0    0  0.52353227020E+01  0.19299251927E+02  0.57782081106E+03  0.57816672286E+03  0.00000000000E+00 0. -1.
</event>
<event>
 7    1  0.6105960E-006  0.1094440E+03  0.7818608E-02  0.1312235E+00
          2   -1    0    0  502    0  0.00000000000E+00  0.00000000000E+00  0.35317981909E+04  0.35317981909E+04  0.00000000000E+00 0. -1.
          1   -1    0    0  501    0 -0.00000000000E+00 -0.00000000000E+00 -0.48944241255E+02  0.48944241255E+02  0.00000000000E+00 0. -1.
         25    2    1    2    0    0 -0.14212038215E+03  0.84811051972E+02  0.72927942154E+03  0.75819818634E+03  0.12499959007E+03 0.  0.
          2    1    1    2  501    0  0.67194011588E+02 -0.10087457999E+02  0.10181709524E+01  0.67954607454E+02  0.00000000000E+00 0. -1.
          1    1    1    2  502    0  0.74926370560E+02 -0.74723593973E+02  0.27525563572E+04  0.27545896384E+04  0.00000000000E+00 0. -1.
         22    1    3    3    0    0  0.22645192772E+02  0.13591766244E+02  0.12806423716E+03  0.13075928152E+03  0.00000000000E+00 0. -1.
         22    1    3    3    0    0 -0.16476557492E+03  0.71219285728E+02  0.60121518439E+03  0.62743890482E+03  0.00000000000E+00 0. -1.
</event>
<event>
 7    1  0.6105960E-006  0.4060903E+02  0.7818608E-02  0.1546345E+00
          2   -1    0    0  502    0  0.00000000000E+00  0.00000000000E+00  0.10968280322E+04  0.10968280322E+04  0.00000000000E+00 0. -1.
          1   -1    0    0  501    0 -0.00000000000E+00 -0.00000000000E+00 -0.30179164267E+02  0.30179164267E+02  0.00000000000E+00 0. -1.
         25    2    1    2    0    0 -0.33076141583E+02  0.34657218515E+02  0.43367168498E+03  0.45386181916E+03  0.12499706637E+03 0.  0.
          2    1    1    2  501    0  0.40451928512E+02 -0.49518027220E+01  0.13491653193E+01  0.40776207739E+02  0.00000000000E+00 0. -1.
          1    1    1    2  502    0 -0.73757869288E+01 -0.29705415793E+02  0.63162801762E+03  0.63236916955E+03  0.00000000000E+00 0. -1.
         22    1    3    3    0    0 -0.60014979706E+01  0.79313650295E+01 -0.66082931061E+01  0.11941275765E+02  0.00000000000E+00 0. -1.
         22    1    3    3    0    0 -0.27074643612E+02  0.26725853486E+02  0.44027997809E+03  0.44192054340E+03  0.00000000000E+00 0. -1.
</event>
<event>
 7    1  0.6105960E-006  0.2946919E+02  0.7818608E-02  0.1627696E+00
          2   -1    0    0  502    0  0.00000000000E+00  0.00000000000E+00  0.19046960772E+04  0.19046960772E+04  0.00000000000E+00 0. -1.
          1   -1    0    0  501    0 -0.00000000000E+00 -0.00000000000E+00 -0.84573861050E+01  0.84573861050E+01  0.00000000000E+00 0. -1.
         25    2    1    2    0    0 -0.29834376665E+02  0.11289503773E+02  0.10140633369E+04  0.10222357878E+04  0.12499604677E+03 0.  0.
          2    1    1    2  501    0  0.26352635773E+02  0.14104595471E+02  0.49335944967E+02  0.57683936164E+02  0.00000000000E+00 0. -1.
          1    1    1    2  502    0  0.34817408926E+01 -0.25394099244E+02  0.83283940927E+03  0.83323373938E+03  0.00000000000E+00 0. -1.
         22    1    3    3    0    0 -0.73945867913E+02 -0.87203047374E+00  0.42397739804E+03  0.43037842170E+03  0.00000000000E+00 0. -1.
         22    1    3    3    0    0  0.44111491247E+02  0.12161534246E+02  0.59008593884E+03  0.59185736608E+03  0.00000000000E+00 0. -1.
</event>
<event>
 7    1  0.6105960E-006  0.8816810E+02  0.7818608E-02  0.1314712E+00
          2   -1    0    0  502    0  0.00000000000E+00  0.00000000000E+00  0.94429595228E+03  0.94429595228E+03  0.00000000000E+00 0. -1.
          1   -1    0    0  501    0 -0.00000000000E+00 -0.00000000000E+00 -0.44077575588E+03  0.44077575588E+03  0.00000000000E+00 0. -1.
         25    2    1    2    0    0  0.24557302215E+02 -0.45665357170E+02 -0.41839764363E+02  0.14164562907E+03  0.12499812964E+03 0.  0.
          2    1    1    2  501    0  0.65100058022E+02  0.50643452654E+02 -0.34186237449E+03  0.35167123843E+03  0.00000000000E+00 0. -1.
          1    1    1    2  502    0 -0.89657360236E+02 -0.49780954837E+01  0.88722233525E+03  0.89175484066E+03  0.00000000000E+00 0. -1.
         22    1    3    3    0    0 -0.29539071764E+02  0.28370352601E+02 -0.24100315330E+00  0.40957194116E+02  0.00000000000E+00 0. -1.
         22    1    3    3    0    0  0.54096373978E+02 -0.74035709771E+02 -0.41598761210E+02  0.10068843495E+03  0.00000000000E+00 0. -1.
</event>
<event>
 7    1  0.6105960E-006  0.1064603E+03  0.7818608E-02  0.1374132E+00
          2   -1    0    0  502    0  0.00000000000E+00  0.00000000000E+00  0.10377646581E+04  0.10377646581E+04  0.00000000000E+00 0. -1.
          1   -1    0    0  501    0 -0.00000000000E+00 -0.00000000000E+00 -0.60990346989E+03  0.60990346989E+03  0.00000000000E+00 0. -1.
         25    2    1    2    0    0 -0.50772999027E+02 -0.72098910025E+02  0.14136498320E+03  0.20829796624E+03  0.12501133552E+03 0.  0.
          2    1    1    2  501    0  0.89533147937E+02  0.58868719087E+02 -0.57096437080E+03  0.58093202992E+03  0.00000000000E+00 0. -1.
          1    1    1    2  502    0 -0.38760148910E+02  0.13230190938E+02  0.85746057582E+03  0.85843813184E+03  0.00000000000E+00 0. -1.
         22    1    3    3    0    0 -0.42585968901E+02 -0.46151163862E+02  0.16226248973E+03  0.17399025906E+03  0.00000000000E+00 0. -1.
         22    1    3    3    0    0 -0.81870301260E+01 -0.25947746162E+02 -0.20897506529E+02  0.34307707186E+02  0.00000000000E+00 0. -1.
</event>
<event>
 7    1  0.6105960E-006  0.4251678E+02  0.7818608E-02  0.1597943E+00
          2   -1    0    0  502    0  0.00000000000E+00  0.00000000000E+00  0.18507035495E+04  0.18507035495E+04  0.00000000000E+00 0. -1.
          1   -1    0    0  501    0 -0.00000000000E+00 -0.00000000000E+00 -0.29772838926E+03  0.29772838926E+03  0.00000000000E+00 0. -1.
         25    2    1    2    0    0  0.43201839537E+02 -0.46535662300E+02  0.13931710924E+03  0.19765350556E+03  0.12500273808E+03 0.  0.
          2    1    1    2  501    0 -0.14872930229E+02  0.15088833993E+02 -0.26787562473E+03  0.26871216438E+03  0.00000000000E+00 0. -1.
          1    1    1    2  502    0 -0.28328909309E+02  0.31446828307E+02  0.16815336757E+04  0.16820662688E+04  0.00000000000E+00 0. -1.
         22    1    3    3    0    0 -0.43559765786E+02 -0.26144368172E+02  0.56626351573E+02  0.76075783761E+02  0.00000000000E+00 0. -1.
         22    1    3    3    0    0  0.86761605324E+02 -0.20391294128E+02  0.82690757669E+02  0.12157772180E+03  0.00000000000E+00 0. -1.
</event>
<event>
 7    1  0.6105960E-006  0.5440037E+02  0.7818608E-02  0.1487098E+00
          2   -1    0    0  502    0  0.00000000000E+00  0.00000000000E+00  0.15930610699E+04  0.15930610699E+04  0.00000000000E+00 0. -1.
          1   -1    0    0  501    0 -0.00000000000E+00 -0.00000000000E+00 -0.86002655001E+02  0.86002655001E+02  0.00000000000E+00 0. -1.
         25    2    1    2    0    0 -0.10131237399E+02  0.32732605205E+02  0.10483971403E+04  0.10563783037E+04  0.12499796517E+03 0.  0.
          2    1    1    2  501    0  0.44146462744E+02 -0.32187207050E+02 -0.72307871423E+02  0.90627560599E+02  0.00000000000E+00 0. -1.
          1    1    1    2  502    0 -0.34015225345E+02 -0.54539815517E+00  0.53096914599E+03  0.53205786058E+03  0.00000000000E+00 0. -1.
         22    1    3    3    0    0 -0.36916357697E+02  0.27946583947E+02  0.13772378036E+03  0.14529855022E+03  0.00000000000E+00 0.  1.
         22    1    3    3    0    0  0.26785120298E+02  0.47860212573E+01  0.91067335997E+03  0.91107975349E+03  0.00000000000E+00 0.  1.
</event>
<event>
 7    1  0.6105960E-006  0.1719633E+03  0.7818608E-02  0.1218480E+00
          2   -1    0    0  502    0  0.00000000000E+00  0.00000000000E+00  0.71822043229E+03  0.71822043229E+03  0.00000000000E+00 0. -1.
          1   -1    0    0  501    0 -0.00000000000E+00 -0.00000000000E+00 -0.26917089614E+03  0.26917089614E+03  0.00000000000E+00 0. -1.
         25    2    1    2    0    0 -0.86500206709E+02  0.20631669782E+03  0.85136989658E+02  0.27004269386E+03  0.12500353570E+03 0.  0.
          2    1    1    2  501    0  0.10051077290E+03 -0.39347345164E+02 -0.14545549307E+03  0.18112959312E+03  0.00000000000E+00 0. -1.
          1    1    1    2  502    0 -0.14010566188E+02 -0.16696935266E+03  0.50936803956E+03  0.53621904145E+03  0.00000000000E+00 0. -1.
         22    1    3    3    0    0  0.12947140182E+02  0.12607850626E+03  0.58142371298E+02  0.13944157745E+03  0.00000000000E+00 0.  1.
         22    1    3    3    0    0 -0.99447346891E+02  0.80238191560E+02  0.26994618360E+02  0.13060111642E+03  0.00000000000E+00 0.  1.
</event>
<event>
 7    1  0.6105960E-006  0.1018393E+03  0.7818608E-02  0.1309873E+00
          2   -1    0    0  502    0  0.00000000000E+00  0.00000000000E+00  0.27621200615E+03  0.27621200615E+03  0.00000000000E+00 0. -1.
          1   -1    0    0  501    0 -0.00000000000E+00 -0.00000000000E+00 -0.60140158582E+03  0.60140158582E+03  0.00000000000E+00 0. -1.
         25    2    1    2    0    0 -0.67216640722E+02  0.82332855920E+02 -0.24221641936E+02  0.16585836439E+03  0.12500213257E+03 0.  0.
          2    1    1    2  501    0 -0.43730107374E+01 -0.10331137443E+03 -0.49405400707E+03  0.50475907640E+03  0.00000000000E+00 0. -1.
          1    1    1    2  502    0  0.71589651459E+02  0.20978518509E+02  0.19308606933E+03  0.20699615118E+03  0.00000000000E+00 0. -1.
         22    1    3    3    0    0 -0.80964258809E+02  0.28882238404E+02  0.27466835001E+02  0.90243126745E+02  0.00000000000E+00 0. -1.
         22    1    3    3    0    0  0.13747618088E+02  0.53450617516E+02 -0.51688476937E+02  0.75615237644E+02  0.00000000000E+00 0. -1.
</event>
<event>
 7    1  0.6105960E-006  0.5941612E+02  0.7818608E-02  0.1410524E+00
          2   -1    0    0  502    0  0.00000000000E+00  0.00000000000E+00  0.13599839466E+04  0.13599839466E+04  0.00000000000E+00 0. -1.
          1   -1    0    0  501    0 -0.00000000000E+00 -0.00000000000E+00 -0.54745324109E+02  0.54745324109E+02  0.00000000000E+00 0. -1.
         25    2    1    2    0    0 -0.70476231520E+01  0.13133250810E+01  0.69956084851E+03  0.71067661142E+03  0.12499788578E+03 0.  0.
          2    1    1    2  501    0  0.45778051014E+02 -0.40124090866E+02 -0.28707023793E+02  0.67302792197E+02  0.00000000000E+00 0. -1.
          1    1    1    2  502    0 -0.38730427862E+02  0.38810765785E+02  0.63438479776E+03  0.63674986707E+03  0.00000000000E+00 0. -1.
         22    1    3    3    0    0  0.33599530505E+02  0.15664942056E+01  0.62374805048E+03  0.62465431467E+03  0.00000000000E+00 0.  1.
         22    1    3    3    0    0 -0.40647153657E+02 -0.25316912466E+00  0.75812798024E+02  0.86022296756E+02  0.00000000000E+00 0.  1.
</event>
<event>
 7    1  0.6105960E-006  0.1031142E+03  0.7818608E-02  0.1336031E+00
          2   -1    0    0  502    0  0.00000000000E+00  0.00000000000E+00  0.37697405329E+03  0.37697405329E+03  0.00000000000E+00 0. -1.
          1   -1    0    0  501    0 -0.00000000000E+00 -0.00000000000E+00 -0.67045328979E+03  0.67045328979E+03  0.00000000000E+00 0. -1.
         25    2    1    2    0    0  0.80717313481E+02 -0.62061482631E+02 -0.15266284065E+03  0.22202784719E+03  0.12499403863E+03 0.  0.
          2    1    1    2  501    0 -0.10527745498E+03  0.90934302670E+01 -0.47476658417E+03  0.48638394551E+03  0.00000000000E+00 0. -1.
          1    1    1    2  502    0  0.24560141501E+02  0.52968052364E+02  0.33395018832E+03  0.33901555038E+03  0.00000000000E+00 0. -1.
         22    1    3    3    0    0 -0.64978454104E+01  0.28974740509E+02 -0.55183839331E+02  0.62665889493E+02  0.00000000000E+00 0. -1.
         22    1    3    3    0    0  0.87215158891E+02 -0.91036223140E+02 -0.97479001315E+02  0.15936195770E+03  0.00000000000E+00 0. -1.
</event>
<event>
 7    1  0.6105960E-006  0.1061435E+03  0.7818608E-02  0.1371676E+00
          2   -1    0    0  502    0  0.00000000000E+00  0.00000000000E+00  0.27674671604E+04  0.27674671604E+04  0.00000000000E+00 0. -1.
          1   -1    0    0  501    0 -0.00000000000E+00 -0.00000000000E+00 -0.13963842391E+02  0.13963842391E+02  0.00000000000E+00 0. -1.
         25    2    1    2    0    0 -0.21929510040E+02  0.95088682543E+02  0.15560179839E+04  0.15640787881E+04  0.12501091190E+03 0.  0.
          2    1    1    2  501    0 -0.41912361428E+02  0.70704246016E+00  0.55359565054E+02  0.69439379263E+02  0.00000000000E+00 0. -1.
          1    1    1    2  502    0  0.63841871469E+02 -0.95795725003E+02  0.11421257690E+04  0.11479128355E+04  0.00000000000E+00 0. -1.
         22    1    3    3    0    0 -0.11910984413E+02  0.59920408971E+01  0.10561237625E+04  0.10562079236E+04  0.00000000000E+00 0.  1.
         22    1    3    3    0    0 -0.10018525627E+02  0.89096641646E+02  0.49989422139E+03  0.50787086448E+03  0.00000000000E+00 0.  1.
</event>
<event>
 7    1  0.6105960E-006  0.1159021E+03  0.7818608E-02  0.1329255E+00
          2   -1    0    0  502    0  0.00000000000E+00  0.00000000000E+00  0.26757509952E+03  0.26757509952E+03  0.00000000000E+00 0. -1.
          1   -1    0    0  501    0 -0.00000000000E+00 -0.00000000000E+00 -0.10816647715E+04  0.10816647715E+04  0.00000000000E+00 0. -1.
         25    2    1    2    0    0  0.98901535652E+02 -0.10085259730E+03 -0.15832281156E+03  0.24626547384E+03  0.12501124274E+03 0.  0.
          2    1    1    2  501    0 -0.10485951956E+03  0.46055437334E+02 -0.87217221408E+03  0.87965958937E+03  0.00000000000E+00 0. -1.
          1    1    1    2  502    0  0.59579839126E+01  0.54797159964E+02  0.21640535363E+03  0.22331480782E+03  0.00000000000E+00 0. -1.
         22    1    3    3    0    0  0.71322456086E+02 -0.11159040381E+03 -0.16908232105E+03  0.21477463132E+03  0.00000000000E+00 0. -1.
         22    1    3    3    0    0  0.27579079566E+02  0.10737806516E+02  0.10759509494E+02  0.31490842527E+02  0.00000000000E+00 0. -1.
</event>
<event>
 7    1  0.6105960E-006  0.1263827E+03  0.7818608E-02  0.1258432E+00
          2   -1    0    0  502    0  0.00000000000E+00  0.00000000000E+00  0.12466633011E+03  0.12466633011E+03  0.00000000000E+00 0. -1.
          1   -1    0    0  501    0 -0.00000000000E+00 -0.00000000000E+00 -0.15445560727E+04  0.15445560727E+04  0.00000000000E+00 0. -1.
         25    2    1    2    0    0 -0.92201292895E+02  0.11320857360E+03 -0.25039603426E+03  0.31565742962E+03  0.12499671738E+03 0.  0.
          2    1    1    2  501    0  0.96629500327E+02  0.14926369489E+02 -0.12139376103E+04  0.12178688675E+04  0.00000000000E+00 0. -1.
          1    1    1    2  502    0 -0.44282074319E+01 -0.12813494309E+03  0.44443901970E+02  0.13569610563E+03  0.00000000000E+00 0. -1.
         22    1    3    3    0    0 -0.17896275992E+02  0.11113520559E+03 -0.11334066465E+03  0.15974171929E+03  0.00000000000E+00 0.  1.
         22    1    3    3    0    0 -0.74305016903E+02  0.20733680074E+01 -0.13705536961E+03  0.15591571034E+03  0.00000000000E+00 0.  1.
</event>
<event>
 7    1  0.6105960E-006  0.5965605E+02  0.7818608E-02  0.1425254E+00
          2   -1    0    0  502    0  0.00000000000E+00  0.00000000000E+00  0.12145715810E+04  0.12145715810E+04  0.00000000000E+00 0. -1.
          1   -1    0    0  501    0 -0.00000000000E+00 -0.00000000000E+00 -0.28792789647E+03  0.28792789647E+03  0.00000000000E+00 0. -1.
         25    2    1    2    0    0  0.12248933391E+02 -0.51540762400E+01  0.56185489031E+03  0.57574581944E+03  0.12500291984E+03 0.  0.
          2    1    1    2  501    0 -0.36970992564E+02  0.47163205197E+02 -0.27685224905E+03  0.28326381699E+03  0.00000000000E+00 0. -1.
          1    1    1    2  502    0  0.24722059173E+02 -0.42009128957E+02  0.64164104329E+03  0.64348984107E+03  0.00000000000E+00 0. -1.
         22    1    3    3    0    0  0.48723124872E+02  0.41130696296E+02  0.22884143806E+03  0.23755858403E+03  0.00000000000E+00 0.  1.
         22    1    3    3    0    0 -0.36474191482E+02 -0.46284772536E+02  0.33301345225E+03  0.33818723540E+03  0.00000000000E+00 0.  1.
</event>
<event>
 7    1  0.6105960E-006  0.8646506E+02  0.7818608E-02  0.1371639E+00
          2   -1    0    0  502    0  0.00000000000E+00  0.00000000000E+00  0.25843647834E+04  0.25843647834E+04  0.00000000000E+00 0. -1.
          1   -1    0    0  501    0 -0.00000000000E+00 -0.00000000000E+00 -0.31241769022E+02  0.31241769022E+02  0.00000000000E+00 0. -1.
         25    2    1    2    0    0  0.57795440599E+02  0.10397093481E+03  0.62997249108E+03  0.65317716737E+03  0.12499921688E+03 0.  0.
          2    1    1    2  501    0  0.78976182843E+01 -0.50864715080E+02  0.16710384500E+02  0.54118652653E+02  0.00000000000E+00 0. -1.
          1    1    1    2  502    0 -0.65693058883E+02 -0.53106219730E+02  0.19064401388E+04  0.19083107324E+04  0.00000000000E+00 0. -1.
         22    1    3    3    0    0  0.40083930257E+02 -0.13383607937E+02  0.79269134731E+02  0.89830051471E+02  0.00000000000E+00 0.  1.
         22    1    3    3    0    0  0.17711510343E+02  0.11735454275E+03  0.55070335635E+03  0.56334711590E+03  0.00000000000E+00 0.  1.
</event>
<event>
 7    1  0.6105960E-006  0.1380914E+03  0.7818608E-02  0.1268096E+00
          2   -1    0    0  502    0  0.00000000000E+00  0.00000000000E+00  0.39195353488E+03  0.39195353488E+03  0.00000000000E+00 0. -1.
          1   -1    0    0  501    0 -0.00000000000E+00 -0.00000000000E+00 -0.11648494952E+04  0.11648494952E+04  0.00000000000E+00 0. -1.
         25    2    1    2    0    0  0.16583336181E+02  0.98051068957E+02 -0.67143358775E+02  0.17326981653E+03  0.12500071812E+03 0.  0.
          2    1    1    2  501    0  0.57923444245E+02 -0.13087909014E+03 -0.10347549392E+04  0.10446062635E+04  0.00000000000E+00 0. -1.
          1    1    1    2  502    0 -0.74506780426E+02  0.32828021183E+02  0.32900233762E+03  0.33892695004E+03  0.00000000000E+00 0. -1.
         22    1    3    3    0    0  0.47486070279E+01  0.10760068786E+03 -0.34228193417E+01  0.10775979301E+03  0.00000000000E+00 0. -1.
         22    1    3    3    0    0  0.11834729153E+02 -0.95496189076E+01 -0.63720539433E+02  0.65510023516E+02  0.00000000000E+00 0. -1.
</event>
<event>
 7    1  0.6105960E-006  0.1006524E+03  0.7818608E-02  0.1381773E+00
          2   -1    0    0  502    0  0.00000000000E+00  0.00000000000E+00  0.11247501593E+04  0.11247501593E+04  0.00000000000E+00 0. -1.
          1   -1    0    0  501    0 -0.00000000000E+00 -0.00000000000E+00 -0.18046884895E+03  0.18046884895E+03  0.00000000000E+00 0. -1.
         25    2    1    2    0    0 -0.32469511930E+02  0.67087094556E+02  0.27071066228E+03  0.30734877062E+03  0.12499622663E+03 0.  0.
          2    1    1    2  501    0 -0.39182484153E+02  0.10989645997E+02 -0.15617246318E+03  0.16138735279E+03  0.00000000000E+00 0. -1.
          1    1    1    2  502    0  0.71651996082E+02 -0.78076740552E+02  0.82974311128E+03  0.83648288487E+03  0.00000000000E+00 0. -1.
         22    1    3    3    0    0  0.33994197057E+02  0.24032381926E+02  0.23591199440E+02  0.47850867345E+02  0.00000000000E+00 0.  1.
         22    1    3    3    0    0 -0.66463708987E+02  0.43054712629E+02  0.24711946284E+03  0.25949790328E+03  0.00000000000E+00 0.  1.
</event>
<event>
 7    1  0.6105960E-006  0.6842224E+02  0.7818608E-02  0.1407092E+00
          2   -1    0    0  502    0  0.00000000000E+00  0.00000000000E+00  0.13573015117E+03  0.13573015117E+03  0.00000000000E+00 0. -1.
          1   -1    0    0  501    0 -0.00000000000E+00 -0.00000000000E+00 -0.68471089472E+03  0.68471089472E+03  0.00000000000E+00 0. -1.
         25    2    1    2    0    0 -0.45749394180E+02 -0.10600711606E+03 -0.23556582034E+03  0.29059705458E+03  0.12499950679E+03 0.  0.
          2    1    1    2  501    0  0.20284222620E+02  0.44502977251E+02 -0.40979880524E+03  0.41270694863E+03  0.00000000000E+00 0. -1.
          1    1    1    2  502    0  0.25465171560E+02  0.61504138808E+02  0.96383882025E+02  0.11713704268E+03  0.00000000000E+00 0. -1.
         22    1    3    3    0    0 -0.14696752651E+02  0.10962900223E+02 -0.12605933704E+03  0.12738577697E+03  0.00000000000E+00 0.  1.
         22    1    3    3    0    0 -0.31052641529E+02 -0.11697001628E+03 -0.10950648330E+03  0.16321127761E+03  0.00000000000E+00 0.  1.
</event>
<event>
 7    1  0.6105960E-006  0.4069480E+02  0.7818608E-02  0.1556911E+00
          2   -1    0    0  502    0  0.00000000000E+00  0.00000000000E+00  0.82125693750E+02  0.82125693750E+02  0.00000000000E+00 0. -1.
          1   -1    0    0  501    0 -0.00000000000E+00 -0.00000000000E+00 -0.55373131594E+03  0.55373131594E+03  0.00000000000E+00 0. -1.
         25    2    1    2    0    0 -0.42441279240E+02 -0.13254489567E+02 -0.22811446936E+03  0.26388775993E+03  0.12499438000E+03 0.  0.
          2    1    1    2  501    0  0.19684815270E+02 -0.20669257300E+02 -0.30049079771E+03  0.30184338598E+03  0.00000000000E+00 0. -1.
          1    1    1    2  502    0  0.22756463970E+02  0.33923746867E+02  0.56999644886E+02  0.70125863781E+02  0.00000000000E+00 0. -1.
         22    1    3    3    0    0  0.20715984234E+02  0.45746175906E+01  0.49292217853E+01  0.21780182651E+02  0.00000000000E+00 0. -1.
         22    1    3    3    0    0 -0.63157263475E+02 -0.17829107158E+02 -0.23304369115E+03  0.24210757728E+03  0.00000000000E+00 0. -1.
</event>
<event>
 7    1  0.6105960E-006  0.5569895E+02  0.7818608E-02  0.1465325E+00
          2   -1    0    0  502    0  0.00000000000E+00  0.00000000000E+00  0.28105475833E+02  0.28105475833E+02  0.00000000000E+00 0. -1.
          1   -1    0    0  501    0 -0.00000000000E+00 -0.00000000000E+00 -0.12892729023E+04  0.12892729023E+04  0.00000000000E+00 0. -1.
         25    2    1    2    0    0  0.74376460415E+02 -0.28695442332E+02 -0.87089725338E+03  0.88342747777E+03  0.12500718483E+03 0.  0.
          2    1    1    2  501    0 -0.19562860735E+02  0.33486705051E+02 -0.37479131218E+03  0.37679250606E+03  0.00000000000E+00 0. -1.
          1    1    1    2  502    0 -0.54813599680E+02 -0.47912627192E+01 -0.15478860949E+02  0.57158394349E+02  0.00000000000E+00 0. -1.
         22    1    3    3    0    0  0.53971045119E+02 -0.22682366090E+02 -0.85466782745E+03  0.85667056604E+03  0.00000000000E+00 0. -1.
         22    1    3    3    0    0  0.20405415295E+02 -0.60130762418E+01 -0.16229425931E+02  0.26756911730E+02  0.00000000000E+00 0. -1.
</event>
<event>
 7    1  0.6105960E-006  0.3228400E+02  0.7818608E-02  0.1627658E+00
          2   -1    0    0  502    0  0.00000000000E+00  0.00000000000E+00  0.26409100872E+03  0.26409100872E+03  0.00000000000E+00 0. -1.
          1   -1    0    0  501    0 -0.00000000000E+00 -0.00000000000E+00 -0.88699200073E+03  0.88699200073E+03  0.00000000000E+00 0. -1.
         25    2    1    2    0    0  0.34331003453E+02 -0.81070720314E+01 -0.10264612641E+03  0.16554388526E+03  0.12499683302E+03 0.  0.
          2    1    1    2  501    0 -0.19242185103E+02  0.25995164003E+02 -0.75195999572E+03  0.75265519689E+03  0.00000000000E+00 0. -1.
          1    1    1    2  502    0 -0.15088818350E+02 -0.17888091972E+02  0.23170513012E+03  0.23288392731E+03  0.00000000000E+00 0. -1.
         22    1    3    3    0    0  0.23402298091E+01  0.32883880419E+02  0.15524443341E+02  0.36439464980E+02  0.00000000000E+00 0. -1.
         22    1    3    3    0    0  0.31990773644E+02 -0.40990952450E+02 -0.11817056975E+03  0.12910442028E+03  0.00000000000E+00 0. -1.
</event>
<event>
 7    1  0.6105960E-006  0.4944943E+02  0.7818608E-02  0.1451058E+00
          2   -1    0    0  502    0  0.00000000000E+00  0.00000000000E+00  0.81226279903E+03  0.81226279903E+03  0.00000000000E+00 0. -1.
          1   -1    0    0  501    0 -0.00000000000E+00 -0.00000000000E+00 -0.10086193465E+03  0.10086193465E+03  0.00000000000E+00 0. -1.
         25    2    1    2    0    0 -0.22035708439E+01 -0.13775819955E+02  0.19718633883E+03  0.23388502923E+03  0.12500050293E+03 0.  0.
          2    1    1    2  501    0  0.50391830099E+02  0.85910544610E+01 -0.73500785833E+02  0.89529371022E+02  0.00000000000E+00 0. -1.
          1    1    1    2  502    0 -0.48188259255E+02  0.51847654938E+01  0.58771531138E+03  0.58971033343E+03  0.00000000000E+00 0. -1.
         22    1    3    3    0    0 -0.24494803742E+02  0.47130494373E+02  0.49587374706E+02  0.72664892764E+02  0.00000000000E+00 0.  1.
         22    1    3    3    0    0  0.22291232898E+02 -0.60906314327E+02  0.14759896413E+03  0.16122013646E+03  0.00000000000E+00 0.  1.
</event>
<event>
 7    1  0.6105960E-006  0.2848301E+02  0.7818608E-02  0.1618441E+00
          2   -1    0    0  502    0  0.00000000000E+00  0.00000000000E+00  0.61217299932E+01  0.61217299932E+01  0.00000000000E+00 0. -1.
          1   -1    0    0  501    0 -0.00000000000E+00 -0.00000000000E+00 -0.16527237555E+04  0.16527237555E+04  0.00000000000E+00 0. -1.
         25    2    1    2    0    0 -0.28214059281E+01 -0.34021086048E+02 -0.12097342287E+04  0.12166539894E+04  0.12499852447E+03 0.  0.
          2    1    1    2  501    0  0.24455819363E+02  0.15494511391E+02 -0.33979838979E+03  0.34102948947E+03  0.00000000000E+00 0. -1.
          1    1    1    2  502    0 -0.21634413435E+02  0.18526574657E+02 -0.97069407072E+02  0.10116200671E+03  0.00000000000E+00 0. -1.
         22    1    3    3    0    0  0.15992084346E+01 -0.78333900301E+02 -0.56827496592E+03  0.57365075987E+03  0.00000000000E+00 0.  1.
         22    1    3    3    0    0 -0.44206143628E+01  0.44312814253E+02 -0.64145926277E+03  0.64300322949E+03  0.00000000000E+00 0.  1.
</event>
<event>
 7    1  0.6105960E-006  0.1040665E+03  0.7818608E-02  0.1305117E+00
          2   -1    0    0  502    0  0.00000000000E+00  0.00000000000E+00  0.56079232054E+02  0.56079232054E+02  0.00000000000E+00 0. -1.
          1   -1    0    0  501    0 -0.00000000000E+00 -0.00000000000E+00 -0.20353649326E+04  0.20353649326E+04  0.00000000000E+00 0. -1.
         25    2    1    2    0    0 -0.87548267413E+02 -0.38969069393E+02 -0.59252939297E+03  0.61310643650E+03  0.12500053379E+03 0.  0.
          2    1    1    2  501    0  0.46467231206E+02 -0.60438560096E+02 -0.13668194531E+04  0.13689439143E+04  0.00000000000E+00 0. -1.
          1    1    1    2  502    0  0.41081036207E+02  0.99407629489E+02 -0.19936854437E+02  0.10939381382E+03  0.00000000000E+00 0. -1.
         22    1    3    3    0    0 -0.28816228262E+02  0.25647479990E+02 -0.39815223363E+03  0.40001671138E+03  0.00000000000E+00 0.  1.
         22    1    3    3    0    0 -0.58732039151E+02 -0.64616549384E+02 -0.19437715934E+03  0.21308972512E+03  0.00000000000E+00 0.  1.
</event>
<event>
 7    1  0.6105960E-006  0.1331065E+03  0.7818608E-02  0.1263100E+00
          2   -1    0    0  502    0  0.00000000000E+00  0.00000000000E+00  0.24182735374E+04  0.24182735374E+04  0.00000000000E+00 0. -1.
          1   -1    0    0  501    0 -0.00000000000E+00 -0.00000000000E+00 -0.76254793058E+02  0.76254793058E+02  0.00000000000E+00 0. -1.
         25    2    1    2    0    0 -0.52752036201E+01 -0.21382786075E+03  0.58884372243E+03  0.63883635504E+03  0.12499910910E+03 0.  0.
          2    1    1    2  501    0  0.10529425237E+02  0.88051655284E+02 -0.89013090278E+01  0.89124609937E+02  0.00000000000E+00 0. -1.
          1    1    1    2  502    0 -0.52542216174E+01  0.12577620547E+03  0.17620763310E+04  0.17665673655E+04  0.00000000000E+00 0. -1.
         22    1    3    3    0    0  0.50548481284E+02 -0.38883810983E+02  0.16661532062E+03  0.17840337660E+03  0.00000000000E+00 0.  1.
         22    1    3    3    0    0 -0.55823684904E+02 -0.17494404977E+03  0.42222840180E+03  0.46043297844E+03  0.00000000000E+00 0.  1.
</event>
<event>
 7    1  0.6105960E-006  0.1495178E+03  0.7818608E-02  0.1350617E+00
          2   -1    0    0  502    0  0.00000000000E+00  0.00000000000E+00  0.10817356967E+04  0.10817356967E+04  0.00000000000E+00 0. -1.
          1   -1    0    0  501    0 -0.00000000000E+00 -0.00000000000E+00 -0.44211975050E+03  0.44211975050E+03  0.00000000000E+00 0. -1.
         25    2    1    2    0    0 -0.16042117390E+03 -0.41329482757E+01 -0.55693517637E+02  0.21089896813E+03  0.12499829022E+03 0.  0.
          2    1    1    2  501    0  0.14504740005E+03 -0.27874692415E+02 -0.29082530903E+03  0.32618262846E+03  0.00000000000E+00 0. -1.
          1    1    1    2  502    0  0.15373773844E+02  0.32007640691E+02  0.98613477284E+03  0.98677385058E+03  0.00000000000E+00 0. -1.
         22    1    3    3    0    0 -0.50873928254E+02 -0.41119585415E+02 -0.68322897704E+02  0.94588557613E+02  0.00000000000E+00 0.  1.
         22    1    3    3    0    0 -0.10954724564E+03  0.36986637139E+02  0.12629380067E+02  0.11631041052E+03  0.00000000000E+00 0.  1.
</event>
<event>
 7    1  0.6105960E-006  0.1239314E+03  0.7818608E-02  0.1402726E+00
          2   -1    0    0  502    0  0.00000000000E+00  0.00000000000E+00  0.36595113026E+03  0.36595113026E+03  0.00000000000E+00 0. -1.
          1   -1    0    0  501    0 -0.00000000000E+00 -0.00000000000E+00 -0.51233058797E+03  0.51233058797E+03  0.00000000000E+00 0. -1.
         25    2    1    2    0    0 -0.89625616995E+02 -0.57831537957E+02  0.13673528577E+03  0.21377402067E+03  0.12500222212E+03 0.  0.
          2    1    1    2  501    0 -0.23795111587E+02 -0.14652362986E+02 -0.44957059421E+03  0.45043825132E+03  0.00000000000E+00 0. -1.
          1    1    1    2  502    0  0.11342072858E+03  0.72483900943E+02  0.16645585073E+03  0.21406944623E+03  0.00000000000E+00 0. -1.
         22    1    3    3    0    0 -0.10243471643E+03 -0.59698835918E+02  0.15263423590E+03  0.19327191236E+03  0.00000000000E+00 0.  1.
         22    1    3    3    0    0  0.12809099439E+02  0.18672979614E+01 -0.15898950124E+02  0.20502108310E+02  0.00000000000E+00 0.  1.
</event>
<event>
 7    1  0.6105960E-006  0.1957338E+03  0.7818608E-02  0.1334766E+00
          2   -1    0    0  502    0  0.00000000000E+00  0.00000000000E+00  0.73789363606E+03  0.73789363606E+03  0.00000000000E+00 0. -1.
          1   -1    0    0  501    0 -0.00000000000E+00 -0.00000000000E+00 -0.57614326532E+03  0.57614326532E+03  0.00000000000E+00 0. -1.
         25    2    1    2    0    0  0.28278372583E+02 -0.22021386964E+03  0.68858259945E+02  0.26393139322E+03  0.12499802250E+03 0.  0.
          2    1    1    2  501    0 -0.90093961575E+01  0.29765374631E+02 -0.46204044314E+03  0.46308586443E+03  0.00000000000E+00 0. -1.
          1    1    1    2  502    0 -0.19268976426E+02  0.19044849501E+03  0.55493255393E+03  0.58701964372E+03  0.00000000000E+00 0. -1.
         22    1    3    3    0    0  0.69218491976E+02 -0.67870448068E+02  0.22608327449E+02  0.99542623144E+02  0.00000000000E+00 0.  1.
         22    1    3    3    0    0 -0.40940119393E+02 -0.15234342157E+03  0.46249932496E+02  0.16438877008E+03  0.00000000000E+00 0.  1.
</event>
<event>
 7    1  0.6105960E-006  0.4322092E+02  0.7818608E-02  0.1520925E+00
          2   -1    0    0  502    0  0.00000000000E+00  0.00000000000E+00  0.32414073697E+04  0.32414073697E+04  0.00000000000E+00 0. -1.
          1   -1    0    0  501    0 -0.00000000000E+00 -0.00000000000E+00 -0.43795565437E+03  0.43795565437E+03  0.00000000000E+00 0. -1.
         25    2    1    2    0    0 -0.24550911006E+02 -0.24661374357E+02  0.82154023637E+03  0.83172367072E+03  0.12499989536E+03 0.  0.
          2    1    1    2  501    0  0.28022037662E+02 -0.19221175361E+02 -0.43199607231E+03  0.43333046819E+03  0.00000000000E+00 0. -1.
          1    1    1    2  502    0 -0.34711266562E+01  0.43882549717E+02  0.24139075513E+04  0.24143088852E+04  0.00000000000E+00 0. -1.
         22    1    3    3    0    0  0.32390345943E+02  0.33141734416E+02  0.22787541647E+03  0.23253970521E+03  0.00000000000E+00 0.  1.
         22    1    3    3    0    0 -0.56941256949E+02 -0.57803108773E+02  0.59366481991E+03  0.59918396551E+03  0.00000000000E+00 0.  1.
</event>
<event>
 7    1  0.6105960E-006  0.5521127E+02  0.7818608E-02  0.1464024E+00
          2   -1    0    0  502    0  0.00000000000E+00  0.00000000000E+00  0.75856534727E+03  0.75856534727E+03  0.00000000000E+00 0. -1.
          1   -1    0    0  501    0 -0.00000000000E+00 -0.00000000000E+00 -0.18315203636E+03  0.18315203636E+03  0.00000000000E+00 0. -1.
         25    2    1    2    0    0 -0.20737941764E+02  0.15523964165E+02  0.14584289465E+02  0.12845038344E+03  0.12496296978E+03 0.  0.
          2    1    1    2  501    0  0.74353971011E+01  0.38787583751E+02 -0.12195844640E+03  0.12819369887E+03  0.00000000000E+00 0. -1.
          1    1    1    2  502    0  0.13302544663E+02 -0.54311547916E+02  0.68278746784E+03  0.68507330131E+03  0.00000000000E+00 0. -1.
         22    1    3    3    0    0  0.32490288033E+02 -0.37183212968E+02 -0.84159551834E+01  0.50090302901E+02  0.00000000000E+00 0. -1.
         22    1    3    3    0    0 -0.53228229797E+02  0.52707177132E+02  0.23000244649E+02  0.78360080542E+02  0.00000000000E+00 0. -1.
</event>
<event>
 7    1  0.6105960E-006  0.4649669E+02  0.7818608E-02  0.1548495E+00
          2   -1    0    0  502    0  0.00000000000E+00  0.00000000000E+00  0.49248244599E+03  0.49248244599E+03  0.00000000000E+00 0. -1.
          1   -1    0    0  501    0 -0.00000000000E+00 -0.00000000000E+00 -0.17168776943E+03  0.17168776943E+03  0.00000000000E+00 0. -1.
         25    2    1    2    0    0  0.25187002349E+02 -0.23987078310E+02  0.21963197010E+02  0.13159549785E+03  0.12500091207E+03 0.  0.
          2    1    1    2  501    0 -0.14854175006E+02 -0.21780867248E+02 -0.11403898209E+03  0.11704675190E+03  0.00000000000E+00 0. -1.
          1    1    1    2  502    0 -0.10332827343E+02  0.45767945559E+02  0.41287046164E+03  0.41552796567E+03  0.00000000000E+00 0. -1.
         22    1    3    3    0    0  0.50406734163E+02 -0.17425618424E+02 -0.38485155390E+02  0.65769280153E+02  0.00000000000E+00 0. -1.
         22    1    3    3    0    0 -0.25219731814E+02 -0.65614598862E+01  0.60448352400E+02  0.65826217698E+02  0.00000000000E+00 0. -1.
</event>
<event>
 7    1  0.6105960E-006  0.7754615E+02  0.7818608E-02  0.1468696E+00
          2   -1    0    0  502    0  0.00000000000E+00  0.00000000000E+00  0.10104162414E+04  0.10104162414E+04  0.00000000000E+00 0. -1.
          1   -1    0    0  501    0 -0.00000000000E+00 -0.00000000000E+00 -0.49934631370E+03  0.49934631370E+03  0.00000000000E+00 0. -1.
         25    2    1    2    0    0  0.12033578038E+02  0.53029747354E+02 -0.17327069754E+03  0.22046406284E+03  0.12499882908E+03 0.  0.
          2    1    1    2  501    0 -0.11356717386E+02  0.24703365958E+02 -0.30033299106E+03  0.30156116600E+03  0.00000000000E+00 0. -1.
          1    1    1    2  502    0 -0.67686065232E+00 -0.77733113311E+02  0.98467361629E+03  0.98773732624E+03  0.00000000000E+00 0. -1.
         22    1    3    3    0    0 -0.10982021365E+01  0.28453355255E+02  0.13580027607E+02  0.31547054110E+02  0.00000000000E+00 0.  1.
         22    1    3    3    0    0  0.13131780175E+02  0.24576392099E+02 -0.18685072514E+03  0.18891700873E+03  0.00000000000E+00 0.  1.
</event>
<event>
 7    1  0.6105960E-006  0.4923692E+02  0.7818608E-02  0.1535791E+00
          2   -1    0    0  502    0  0.00000000000E+00  0.00000000000E+00  0.81775433597E+03  0.81775433597E+03  0.00000000000E+00 0. -1.
          1   -1    0    0  501    0 -0.00000000000E+00 -0.00000000000E+00 -0.19926157952E+02  0.19926157952E+02  0.00000000000E+00 0. -1.
         25    2    1    2    0    0  0.39434418018E+02 -0.16256405398E+00  0.63637068748E+03  0.64972905061E+03  0.12500035029E+03 0.  0.
          2    1    1    2  501    0 -0.42954394645E+02 -0.26643844791E+02  0.42740104637E+02  0.66194342877E+02  0.00000000000E+00 0. -1.
          1    1    1    2  502    0  0.35199766273E+01  0.26806408845E+02  0.11871738590E+03  0.12175710043E+03  0.00000000000E+00 0. -1.
         22    1    3    3    0    0  0.33800383378E+02  0.59861190613E+02  0.39538243346E+03  0.40131421199E+03  0.00000000000E+00 0. -1.
         22    1    3    3    0    0  0.56340346397E+01 -0.60023754667E+02  0.24098825402E+03  0.24841483862E+03  0.00000000000E+00 0. -1.
</event>
<event>
 7    1  0.6105960E-006  0.7026840E+02  0.7818608E-02  0.1395834E+00
          2   -1    0    0  502    0  0.00000000000E+00  0.00000000000E+00  0.24619841555E+04  0.24619841555E+04  0.00000000000E+00 0. -1.
          1   -1    0    0  501    0 -0.00000000000E+00 -0.00000000000E+00 -0.10976245194E+03  0.10976245194E+03  0.00000000000E+00 0. -1.
         25    2    1    2    0    0  0.84573609454E+02 -0.11912182754E+02  0.18949967801E+03  0.24254907924E+03  0.12500132944E+03 0.  0.
          2    1    1    2  501    0 -0.23364748366E+02  0.46514404461E+02 -0.74493236628E+02  0.90877629766E+02  0.00000000000E+00 0. -1.
          1    1    1    2  502    0 -0.61208861088E+02 -0.34602221707E+02  0.22372152621E+04  0.22383198984E+04  0.00000000000E+00 0. -1.
         22    1    3    3    0    0 -0.21437630482E+02  0.12160950946E+02  0.96150888060E+02  0.99259528526E+02  0.00000000000E+00 0.  1.
         22    1    3    3    0    0  0.10601123994E+03 -0.24073133700E+02  0.93348789954E+02  0.14328955072E+03  0.00000000000E+00 0.  1.
</event>
<event>
 7    1  0.6105960E-006  0.1310094E+03  0.7818608E-02  0.1321001E+00
          2   -1    0    0  502    0  0.00000000000E+00  0.00000000000E+00  0.66353365400E+03  0.66353365400E+03  0.00000000000E+00 0. -1.
          1   -1    0    0  501    0 -0.00000000000E+00 -0.00000000000E+00 -0.19635850597E+04  0.19635850597E+04  0.00000000000E+00 0. -1.
         25    2    1    2    0    0  0.17864171313E+03  0.27689357892E+01 -0.31256474217E+03  0.38112457129E+03  0.12505475648E+03 0.  0.
          2    1    1    2  501    0 -0.12729496098E+03  0.80068460353E+01 -0.16131251280E+04  0.16181596940E+04  0.00000000000E+00 0. -1.
          1    1    1    2  502    0 -0.51346752151E+02 -0.10775781825E+02  0.62563846446E+03  0.62783444844E+03  0.00000000000E+00 0. -1.
         22    1    3    3    0    0  0.12926232002E+03 -0.45796472668E+02 -0.26080286087E+03  0.29465945857E+03  0.00000000000E+00 0. -1.
         22    1    3    3    0    0  0.49379393111E+02  0.48565408457E+02 -0.51761881298E+02  0.86465112722E+02  0.00000000000E+00 0. -1.
</event>
<event>
 7    1  0.6105960E-006  0.1464461E+03  0.7818608E-02  0.1222907E+00
          2   -1    0    0  502    0  0.00000000000E+00  0.00000000000E+00  0.40351006323E+04  0.40351006323E+04  0.00000000000E+00 0. -1.
          1   -1    0    0  501    0 -0.00000000000E+00 -0.00000000000E+00 -0.14489792262E+03  0.14489792262E+03  0.00000000000E+00 0. -1.
         25    2    1    2    0    0  0.19127856316E+03  0.91767631277E+02  0.11459282793E+04  0.11720860447E+04  0.12500115154E+03 0.  0.
          2    1    1    2  501    0 -0.50951155464E+02 -0.10974414143E+03 -0.10192206511E+03  0.15820209915E+03  0.00000000000E+00 0. -1.
          1    1    1    2  502    0 -0.14032740770E+03  0.17976510149E+02  0.28461964955E+04  0.28497104111E+04  0.00000000000E+00 0. -1.
         22    1    3    3    0    0 -0.18185478572E+02  0.21238519644E+01  0.93941105335E+02  0.95708691609E+02  0.00000000000E+00 0. -1.
         22    1    3    3    0    0  0.20946404173E+03  0.89643779313E+02  0.10519871740E+04  0.10763773531E+04  0.00000000000E+00 0. -1.
</event>
<event>
 7    1  0.6105960E-006  0.3090302E+03  0.7818608E-02  0.1289211E+00
          2   -1    0    0  502    0  0.00000000000E+00  0.00000000000E+00  0.27113664837E+04  0.27113664837E+04  0.00000000000E+00 0. -1.
          1   -1    0    0  501    0 -0.00000000000E+00 -0.00000000000E+00 -0.26695986206E+03  0.26695986206E+03  0.00000000000E+00 0. -1.
         25    2    1    2    0    0 -0.56519597292E+02  0.32885982695E+03  0.21824700282E+04  0.22113668743E+04  0.12499911210E+03 0.  0.
          2    1    1    2  501    0  0.66302294452E+02 -0.30076792419E+03 -0.15787511886E+03  0.34609520602E+03  0.00000000000E+00 0. -1.
          1    1    1    2  502    0 -0.97826971601E+01 -0.28091902755E+02  0.41981171235E+03  0.42086426552E+03  0.00000000000E+00 0. -1.
         22    1    3    3    0    0 -0.45668954119E+02  0.15866937248E+03  0.70444293941E+03  0.72353401995E+03  0.00000000000E+00 0.  1.
         22    1    3    3    0    0 -0.10850643173E+02  0.17019045447E+03  0.14780270888E+04  0.14878328543E+04  0.00000000000E+00 0.  1.
</event>
<event>
 7    1  0.6105960E-006  0.3694023E+02  0.7818608E-02  0.1532116E+00
          2   -1    0    0  502    0  0.00000000000E+00  0.00000000000E+00  0.24650150138E+04  0.24650150138E+04  0.00000000000E+00 0. -1.
          1   -1    0    0  501    0 -0.00000000000E+00 -0.00000000000E+00 -0.53825604542E+03  0.53825604542E+03  0.00000000000E+00 0. -1.
         25    2    1    2    0    0 -0.52005792643E+01  0.17613498412E+02  0.18116885001E+03  0.22086036219E+03  0.12497946239E+03 0.  0.
          2    1    1    2  501    0  0.36896927473E+02  0.17881271196E+01 -0.51759948654E+03  0.51891599428E+03  0.00000000000E+00 0. -1.
          1    1    1    2  502    0 -0.31696348209E+02 -0.19401625532E+02  0.22631896049E+04  0.22634947027E+04  0.00000000000E+00 0. -1.
         22    1    3    3    0    0 -0.57378534660E+02  0.32222775699E+02  0.13287295362E+03  0.14827617920E+03  0.00000000000E+00 0.  1.
         22    1    3    3    0    0  0.52177955396E+02 -0.14609277287E+02  0.48295896387E+02  0.72584182987E+02  0.00000000000E+00 0.  1.
</event>
<event>
 7    1  0.6105960E-006  0.1151578E+03  0.7818608E-02  0.1331184E+00
          2   -1    0    0  502    0  0.00000000000E+00  0.00000000000E+00  0.93646473561E+03  0.93646473561E+03  0.00000000000E+00 0. -1.
          1   -1    0    0  501    0 -0.00000000000E+00 -0.00000000000E+00 -0.12426461098E+04  0.12426461098E+04  0.00000000000E+00 0. -1.
         25    2    1    2    0    0 -0.82516207451E+02  0.92710429723E+02 -0.21094267696E+03  0.27482002350E+03  0.12500033633E+03 0.  0.
          2    1    1    2  501    0  0.10675281805E+03 -0.43848089472E+02 -0.99560624099E+03  0.10022727205E+04  0.00000000000E+00 0. -1.
          1    1    1    2  502    0 -0.24236610596E+02 -0.48862340251E+02  0.90036754372E+03  0.90201810147E+03  0.00000000000E+00 0. -1.
         22    1    3    3    0    0  0.25240960252E+02 -0.47073903069E+01 -0.60341833574E+02  0.65577454029E+02  0.00000000000E+00 0. -1.
         22    1    3    3    0    0 -0.10775716770E+03  0.97417820030E+02 -0.15060084339E+03  0.20924256948E+03  0.00000000000E+00 0. -1.
</event>
<event>
 7    1  0.6105960E-006  0.5272618E+02  0.7818608E-02  0.1528041E+00
          2   -1    0    0  502    0  0.00000000000E+00  0.00000000000E+00  0.19940001727E+02  0.19940001727E+02  0.00000000000E+00 0. -1.
          1   -1    0    0  501    0 -0.00000000000E+00 -0.00000000000E+00 -0.17894521318E+04  0.17894521318E+04  0.00000000000E+00 0. -1.
         25    2    1    2    0    0  0.63862912557E+02 -0.25306219733E+02 -0.85894793547E+03  0.87070944158E+03  0.12499799778E+03 0.  0.
          2    1    1    2  501    0 -0.11844276761E+02  0.23781888601E+02 -0.87556368349E+03  0.87596668257E+03  0.00000000000E+00 0. -1.
          1    1    1    2  502    0 -0.52018635796E+02  0.15243311325E+01 -0.35000511125E+02  0.62716009396E+02  0.00000000000E+00 0. -1.
         22    1    3    3    0    0 -0.79611988724E+01  0.30572480592E+02 -0.73425569039E+02  0.79933543933E+02  0.00000000000E+00 0. -1.
         22    1    3    3    0    0  0.71824111430E+02 -0.55878700325E+02 -0.78552236643E+03  0.79077589764E+03  0.00000000000E+00 0. -1.
</event>
<event>
 7    1  0.6105960E-006  0.3945782E+02  0.7818608E-02  0.1524960E+00
          2   -1    0    0  502    0  0.00000000000E+00  0.00000000000E+00  0.17150409287E+04  0.17150409287E+04  0.00000000000E+00 0. -1.
          1   -1    0    0  501    0 -0.00000000000E+00 -0.00000000000E+00 -0.97664177165E+01  0.97664177165E+01  0.00000000000E+00 0. -1.
         25    2    1    2    0    0 -0.51061268396E+02  0.21824540244E+02  0.10616033320E+04  0.10703787347E+04  0.12500175002E+03 0.  0.
          2    1    1    2  501    0  0.17351602291E+02 -0.35113745795E+02  0.75062638995E+02  0.84666717302E+02  0.00000000000E+00 0. -1.
          1    1    1    2  502    0  0.33709666105E+02  0.13289205551E+02  0.56860853997E+03  0.56976189439E+03  0.00000000000E+00 0. -1.
         22    1    3    3    0    0  0.34921569658E+02 -0.10170142129E+02  0.50096181491E+03  0.50228048719E+03  0.00000000000E+00 0.  1.
         22    1    3    3    0    0 -0.85982838054E+02  0.31994682373E+02  0.56064151710E+03  0.56809824752E+03  0.00000000000E+00 0.  1.
</event>
<event>
 7    1  0.6105960E-006  0.4343619E+02  0.7818608E-02  0.1495233E+00
          2   -1    0    0  502    0  0.00000000000E+00  0.00000000000E+00  0.65739088088E+03  0.65739088088E+03  0.00000000000E+00 0. -1.
          1   -1    0    0  501    0 -0.00000000000E+00 -0.00000000000E+00 -0.89382621350E+02  0.89382621350E+02  0.00000000000E+00 0. -1.
         25    2    1    2    0    0 -0.62207055309E+02 -0.49370481430E+02  0.20279277161E+03  0.25111178573E+03  0.12500023418E+03 0.  0.
          2    1    1    2  501    0  0.37058667303E+02  0.15740927834E+02 -0.57869301566E+02  0.70498068733E+02  0.00000000000E+00 0. -1.
          1    1    1    2  502    0  0.25148388006E+02  0.33629553597E+02  0.42308478948E+03  0.42516364777E+03  0.00000000000E+00 0. -1.
         22    1    3    3    0    0 -0.25686414373E+02  0.18756848394E+02 -0.23464596322E+01  0.31892273639E+02  0.00000000000E+00 0.  1.
         22    1    3    3    0    0 -0.36520640936E+02 -0.68127329825E+02  0.20513923125E+03  0.21921951209E+03  0.00000000000E+00 0.  1.
</event>
<event>
 7    1  0.6105960E-006  0.8075361E+02  0.7818608E-02  0.1396298E+00
          2   -1    0    0  502    0  0.00000000000E+00  0.00000000000E+00  0.88213366182E+03  0.88213366182E+03  0.00000000000E+00 0. -1.
          1   -1    0    0  501    0 -0.00000000000E+00 -0.00000000000E+00 -0.33483730394E+03  0.33483730394E+03  0.00000000000E+00 0. -1.
         25    2    1    2    0    0  0.50846355981E+02 -0.10238056193E+03  0.17290841799E+03  0.24205215025E+03  0.12499916421E+03 0.  0.
          2    1    1    2  501    0 -0.37797215711E+02  0.24654408583E+02 -0.29624911634E+03  0.29966649514E+03  0.00000000000E+00 0. -1.
          1    1    1    2  502    0 -0.13049140271E+02  0.77726153348E+02  0.67063705623E+03  0.67525232037E+03  0.00000000000E+00 0. -1.
         22    1    3    3    0    0  0.17974939456E+02  0.12606698330E+02 -0.95096493987E+01  0.23926151444E+02  0.00000000000E+00 0. -1.
         22    1    3    3    0    0  0.32871416526E+02 -0.11498726026E+03  0.18241806739E+03  0.21812599881E+03  0.00000000000E+00 0. -1.
</event>
<event>
 7    1  0.6105960E-006  0.6782305E+02  0.7818608E-02  0.1514550E+00
          2   -1    0    0  502    0  0.00000000000E+00  0.00000000000E+00  0.19795048922E+03  0.19795048922E+03  0.00000000000E+00 0. -1.
          1   -1    0    0  501    0 -0.00000000000E+00 -0.00000000000E+00 -0.62491468246E+03  0.62491468246E+03  0.00000000000E+00 0. -1.
         25    2    1    2    0    0 -0.35689968426E+02  0.73790646428E+02  0.75592246451E+02  0.16750526589E+03  0.12499997212E+03 0.  0.
          2    1    1    2  501    0  0.19177078927E+02 -0.11959194343E+02 -0.56529044576E+03  0.56574205320E+03  0.00000000000E+00 0. -1.
          1    1    1    2  502    0  0.16512889499E+02 -0.61831452085E+02  0.62734006070E+02  0.89617852597E+02  0.00000000000E+00 0. -1.
         22    1    3    3    0    0 -0.49772933116E+02  0.29686687790E+02 -0.19986709605E+02  0.61303449036E+02  0.00000000000E+00 0. -1.
         22    1    3    3    0    0  0.14082964690E+02  0.44103958638E+02  0.95578956056E+02  0.10620181685E+03  0.00000000000E+00 0. -1.
</event>
<event>
 7    1  0.6105960E-006  0.5944862E+02  0.7818608E-02  0.1433260E+00
          2   -1    0    0  502    0  0.00000000000E+00  0.00000000000E+00  0.38491765697E+03  0.38491765697E+03  0.00000000000E+00 0. -1.
          1   -1    0    0  501    0 -0.00000000000E+00 -0.00000000000E+00 -0.74504762481E+03  0.74504762481E+03  0.00000000000E+00 0. -1.
         25    2    1    2    0    0  0.74503247299E+02  0.13399344796E+02 -0.26195304338E+03  0.29995833038E+03  0.12500130690E+03 0.  0.
          2    1    1    2  501    0 -0.34453689642E+02  0.30525013879E+02 -0.46052294309E+03  0.46281769015E+03  0.00000000000E+00 0. -1.
          1    1    1    2  502    0 -0.40049557657E+02 -0.43924358675E+02  0.36234601863E+03  0.36718926125E+03  0.00000000000E+00 0. -1.
         22    1    3    3    0    0 -0.34928312234E+02  0.11191006517E+02 -0.64741246557E+02  0.74408699949E+02  0.00000000000E+00 0. -1.
         22    1    3    3    0    0  0.10943155953E+03  0.22083382791E+01 -0.19721179682E+03  0.22554963043E+03  0.00000000000E+00 0. -1.
</event>
<event>
 7    1  0.6105960E-006  0.1470591E+03  0.7818608E-02  0.1375284E+00
          2   -1    0    0  502    0  0.00000000000E+00  0.00000000000E+00  0.87255171439E+03  0.87255171439E+03  0.00000000000E+00 0. -1.
          1   -1    0    0  501    0 -0.00000000000E+00 -0.00000000000E+00 -0.41330601551E+03  0.41330601551E+03  0.00000000000E+00 0. -1.
         25    2    1    2    0    0 -0.16093387956E+03 -0.19488843430E+02  0.41105911130E+03  0.45921067722E+03  0.12500129791E+03 0.  0.
          2    1    1    2  501    0  0.14651912111E+03 -0.61001266417E+01 -0.37489048837E+03  0.40255178880E+03  0.00000000000E+00 0. -1.
          1    1    1    2  502    0  0.14414758452E+02  0.25588970071E+02  0.42307707595E+03  0.42409526388E+03  0.00000000000E+00 0. -1.
         22    1    3    3    0    0  0.29057072089E-01 -0.81742425364E+01 -0.72076265596E+01  0.10898117543E+02  0.00000000000E+00 0. -1.
         22    1    3    3    0    0 -0.16096293663E+03 -0.11314600893E+02  0.41826673786E+03  0.44831255967E+03  0.00000000000E+00 0. -1.
</event>
<event>
 7    1  0.6105960E-006  0.5529246E+02  0.7818608E-02  0.1447895E+00
          2   -1    0    0  502    0  0.00000000000E+00  0.00000000000E+00  0.59808175391E+03  0.59808175391E+03  0.00000000000E+00 0. -1.
          1   -1    0    0  501    0 -0.00000000000E+00 -0.00000000000E+00 -0.19230841107E+04  0.19230841107E+04  0.00000000000E+00 0. -1.
         25    2    1    2    0    0  0.68317870685E+02  0.33592362879E+02  0.21487202186E+03  0.25998694747E+03  0.12500979473E+03 0.  0.
          2    1    1    2  501    0 -0.14447829626E+02 -0.41949194613E+02 -0.18982059169E+04  0.18987243554E+04  0.00000000000E+00 0. -1.
          1    1    1    2  502    0 -0.53870041059E+02  0.83568317344E+01  0.35833153831E+03  0.36245456171E+03  0.00000000000E+00 0. -1.
         22    1    3    3    0    0  0.23816004335E+02  0.70694389937E+02  0.17330753751E+03  0.18868068632E+03  0.00000000000E+00 0.  1.
         22    1    3    3    0    0  0.44501866350E+02 -0.37102027058E+02  0.41564484350E+02  0.71306261154E+02  0.00000000000E+00 0.  1.
</event>
<event>
 7    1  0.6105960E-006  0.9866750E+02  0.7818608E-02  0.1347169E+00
          2   -1    0    0  502    0  0.00000000000E+00  0.00000000000E+00  0.14632452598E+04  0.14632452598E+04  0.00000000000E+00 0. -1.
          1   -1    0    0  501    0 -0.00000000000E+00 -0.00000000000E+00 -0.13952051150E+03  0.13952051150E+03  0.00000000000E+00 0. -1.
         25    2    1    2    0    0  0.10828096031E+03  0.60938034015E+01  0.71233562775E+03  0.73130646982E+03  0.12500082170E+03 0.  0.
          2    1    1    2  501    0 -0.87755514045E+02  0.45382446991E+02 -0.11005250470E+03  0.14789236130E+03  0.00000000000E+00 0. -1.
          1    1    1    2  502    0 -0.20525446266E+02 -0.51476250393E+02  0.72144162529E+03  0.72356694024E+03  0.00000000000E+00 0. -1.
         22    1    3    3    0    0  0.11081836329E+03 -0.39271998696E+02  0.56587436124E+03  0.57795916139E+03  0.00000000000E+00 0.  1.
         22    1    3    3    0    0 -0.25374029782E+01  0.45365802098E+02  0.14646126651E+03  0.15334730843E+03  0.00000000000E+00 0.  1.
</event>
<event>
 7    1  0.6105960E-006  0.3848074E+02  0.7818608E-02  0.1525714E+00
          2   -1    0    0  502    0  0.00000000000E+00  0.00000000000E+00  0.17259874589E+04  0.17259874589E+04  0.00000000000E+00 0. -1.
          1   -1    0    0  501    0 -0.00000000000E+00 -0.00000000000E+00 -0.12802673083E+04  0.12802673083E+04  0.00000000000E+00 0. -1.
         25    2    1    2    0    0 -0.17949717220E+01  0.16668280788E+01  0.38017722466E+03  0.40020687201E+03  0.12499927207E+03 0.  0.
          2    1    1    2  501    0  0.38240886557E+02  0.45307077740E+01 -0.12697047334E+04  0.12702885510E+04  0.00000000000E+00 0. -1.
          1    1    1    2  502    0 -0.36445914835E+02 -0.61975358528E+01  0.13352476592E+04  0.13357593442E+04  0.00000000000E+00 0. -1.
         22    1    3    3    0    0  0.21329891746E+02 -0.47013676257E+02  0.29448413036E+03  0.29897517133E+03  0.00000000000E+00 0.  1.
         22    1    3    3    0    0 -0.23124863468E+02  0.48680504336E+02  0.85693094298E+02  0.10123170068E+03  0.00000000000E+00 0.  1.
</event>
<event>
 7    1  0.6105960E-006  0.8313863E+02  0.7818608E-02  0.1393945E+00
          2   -1    0    0  502    0  0.00000000000E+00  0.00000000000E+00  0.99069271729E+03  0.99069271729E+03  0.00000000000E+00 0. -1.
          1   -1    0    0  501    0 -0.00000000000E+00 -0.00000000000E+00 -0.35513779394E+02  0.35513779394E+02  0.00000000000E+00 0. -1.
         25    2    1    2    0    0 -0.11232821153E+03 -0.42023954221E+02  0.29495698667E+03  0.34206701589E+03  0.12500631800E+03 0.  0.
          2    1    1    2  501    0  0.44659495713E+02  0.54371130438E+00  0.43550406617E+02  0.62381119707E+02  0.00000000000E+00 0. -1.
          1    1    1    2  502    0  0.67668715817E+02  0.41480242917E+02  0.61667154461E+03  0.62175836109E+03  0.00000000000E+00 0. -1.
         22    1    3    3    0    0 -0.79421255957E+02 -0.86730744154E+02  0.19431028689E+03  0.22712649662E+03  0.00000000000E+00 0.  1.
         22    1    3    3    0    0 -0.32906955574E+02  0.44706789933E+02  0.10064669978E+03  0.11494051926E+03  0.00000000000E+00 0.  1.
</event>
<event>
 7    1  0.6105960E-006  0.2078198E+03  0.7818608E-02  0.1250439E+00
          2   -1    0    0  502    0  0.00000000000E+00  0.00000000000E+00  0.41706802879E+04  0.41706802879E+04  0.00000000000E+00 0. -1.
          1   -1    0    0  501    0 -0.00000000000E+00 -0.00000000000E+00 -0.13118957435E+04  0.13118957435E+04  0.00000000000E+00 0. -1.
         25    2    1    2    0    0 -0.16487986470E+03 -0.18700797263E+01 -0.12430324382E+03  0.24137976431E+03  0.12499610879E+03 0.  0.
          2    1    1    2  501    0 -0.36234507139E+02 -0.53198000213E+02 -0.11254907818E+04  0.11273297950E+04  0.00000000000E+00 0. -1.
          1    1    1    2  502    0  0.20111437184E+03  0.55068079940E+02  0.41085785701E+04  0.41138664721E+04  0.00000000000E+00 0. -1.
         22    1    3    3    0    0 -0.68315720325E+02 -0.37752435481E+02 -0.11357129534E+03  0.13780683275E+03  0.00000000000E+00 0.  1.
         22    1    3    3    0    0 -0.96564144372E+02  0.35882355755E+02 -0.10731948483E+02  0.10357293156E+03  0.00000000000E+00 0.  1.
</event>
<event>
 7    1  0.6105960E-006  0.4806736E+02  0.7818608E-02  0.1492848E+00
          2   -1    0    0  502    0  0.00000000000E+00  0.00000000000E+00  0.16784850840E+04  0.16784850840E+04  0.00000000000E+00 0. -1.
          1   -1    0    0  501    0 -0.00000000000E+00 -0.00000000000E+00 -0.50813904898E+03  0.50813904898E+03  0.00000000000E+00 0. -1.
         25    2    1    2    0    0 -0.45361312670E+02 -0.41491814245E+01 -0.93885921156E+02  0.16282321628E+03  0.12498787611E+03 0.  0.
          2    1    1    2  501    0  0.36945605658E+02 -0.31870783606E+02 -0.37800819978E+03  0.38114422956E+03  0.00000000000E+00 0. -1.
          1    1    1    2  502    0  0.84157070112E+01  0.36019965031E+02  0.16422401559E+04  0.16426566871E+04  0.00000000000E+00 0. -1.
         22    1    3    3    0    0 -0.49323550122E+02  0.13833537167E+02  0.14217176009E+02  0.53163027010E+02  0.00000000000E+00 0. -1.
         22    1    3    3    0    0  0.39622374527E+01 -0.17982718591E+02 -0.10810309717E+03  0.10966018927E+03  0.00000000000E+00 0. -1.
</event>
<event>
 7    1  0.6105960E-006  0.1411730E+03  0.7818608E-02  0.1379262E+00
          2   -1    0    0  502    0  0.00000000000E+00  0.00000000000E+00  0.71121329640E+03  0.71121329640E+03  0.00000000000E+00 0. -1.
          1   -1    0    0  501    0 -0.00000000000E+00 -0.00000000000E+00 -0.19240133845E+04  0.19240133845E+04  0.00000000000E+00 0. -1.
         25    2    1    2    0    0 -0.43218712839E+02 -0.11752867301E+03 -0.17316687512E+01  0.17694435824E+03  0.12500184446E+03 0.  0.
          2    1    1    2  501    0 -0.29075667745E+02 -0.56206464057E+01 -0.18263786463E+04  0.18266187193E+04  0.00000000000E+00 0. -1.
          1    1    1    2  502    0  0.72294380584E+02  0.12314931941E+03  0.61531022697E+03  0.63166360332E+03  0.00000000000E+00 0. -1.
         22    1    3    3    0    0 -0.84246616842E+02 -0.93933737090E+02  0.14271802522E+02  0.12698316329E+03  0.00000000000E+00 0.  1.
         22    1    3    3    0    0  0.41027904003E+02 -0.23594935917E+02 -0.16003471273E+02  0.49961194948E+02  0.00000000000E+00 0.  1.
</event>
<event>
 7    1  0.6105960E-006  0.7350749E+02  0.7818608E-02  0.1390354E+00
          2   -1    0    0  502    0  0.00000000000E+00  0.00000000000E+00  0.94309151989E+03  0.94309151989E+03  0.00000000000E+00 0. -1.
          1   -1    0    0  501    0 -0.00000000000E+00 -0.00000000000E+00 -0.25106814106E+03  0.25106814106E+03  0.00000000000E+00 0. -1.
         25    2    1    2    0    0 -0.53850824236E+02 -0.95280403978E+02  0.50189035866E+03  0.52867704273E+03  0.12500886662E+03 0.  0.
          2    1    1    2  501    0  0.43338147986E+02  0.28716534072E+02 -0.23212772374E+03  0.23787836078E+03  0.00000000000E+00 0. -1.
          1    1    1    2  502    0  0.10512676249E+02  0.66563869906E+02  0.42226074391E+03  0.42760425744E+03  0.00000000000E+00 0. -1.
         22    1    3    3    0    0  0.92210690597E+01 -0.43018792969E+02  0.37547907383E+03  0.37804785351E+03  0.00000000000E+00 0. -1.
         22    1    3    3    0    0 -0.63071893295E+02 -0.52261611009E+02  0.12641128484E+03  0.15062918921E+03  0.00000000000E+00 0. -1.
</event>
<event>
 7    1  0.6105960E-006  0.1207584E+03  0.7818608E-02  0.1280584E+00
          2   -1    0    0  502    0  0.00000000000E+00  0.00000000000E+00  0.47668752028E+03  0.47668752028E+03  0.00000000000E+00 0. -1.
          1   -1    0    0  501    0 -0.00000000000E+00 -0.00000000000E+00 -0.76221957119E+03  0.76221957119E+03  0.00000000000E+00 0. -1.
         25    2    1    2    0    0  0.80869591502E+02 -0.78921343286E+02 -0.19323793264E+03  0.25639226278E+03  0.12501049776E+03 0.  0.
          2    1    1    2  501    0 -0.13822341590E+02  0.12713688413E+03 -0.52584297245E+03  0.54117065341E+03  0.00000000000E+00 0. -1.
          1    1    1    2  502    0 -0.67047249912E+02 -0.48215540844E+02  0.43354885417E+03  0.44134417528E+03  0.00000000000E+00 0. -1.
         22    1    3    3    0    0  0.11373684714E+03 -0.56871929901E+02 -0.13047795877E+03  0.18219490809E+03  0.00000000000E+00 0.  1.
         22    1    3    3    0    0 -0.32867255643E+02 -0.22049413384E+02 -0.62759973864E+02  0.74197354693E+02  0.00000000000E+00 0.  1.
</event>
<event>
 7    1  0.6105960E-006  0.6759405E+02  0.7818608E-02  0.1424375E+00
          2   -1    0    0  502    0  0.00000000000E+00  0.00000000000E+00  0.16810403096E+02  0.16810403096E+02  0.00000000000E+00 0. -1.
          1   -1    0    0  501    0 -0.00000000000E+00 -0.00000000000E+00 -0.36235209899E+04  0.36235209899E+04  0.00000000000E+00 0. -1.
         25    2    1    2    0    0  0.28016852185E+02  0.62176274468E+02 -0.41304110680E+03  0.43689675564E+03  0.12499994429E+03 0.  0.
          2    1    1    2  501    0  0.34742241936E+02 -0.25858592202E+02 -0.29200306819E+04  0.29203518407E+04  0.00000000000E+00 0. -1.
          1    1    1    2  502    0 -0.62759094122E+02 -0.36317682266E+02 -0.27363879807E+03  0.28308279663E+03  0.00000000000E+00 0. -1.
         22    1    3    3    0    0  0.71782387460E+02  0.67074272965E+02 -0.27708124452E+03  0.29398245748E+03  0.00000000000E+00 0.  1.
         22    1    3    3    0    0 -0.43765535275E+02 -0.48979984971E+01 -0.13595986228E+03  0.14291429816E+03  0.00000000000E+00 0.  1.
</event>
<event>
 7    1  0.6105960E-006  0.8322663E+02  0.7818608E-02  0.1362060E+00
          2   -1    0    0  502    0  0.00000000000E+00  0.00000000000E+00  0.11595879865E+04  0.11595879865E+04  0.00000000000E+00 0. -1.
          1   -1    0    0  501    0 -0.00000000000E+00 -0.00000000000E+00 -0.27015834758E+03  0.27015834758E+03  0.00000000000E+00 0. -1.
         25    2    1    2    0    0  0.91617391409E+02  0.16099230250E+02  0.25567541952E+03  0.29941245425E+03  0.12499986397E+03 0.  0.
          2    1    1    2  501    0 -0.73789295265E+02  0.38999940533E+02 -0.24029060861E+03  0.25437262440E+03  0.00000000000E+00 0. -1.
          1    1    1    2  502    0 -0.17828096144E+02 -0.55099170783E+02  0.87404482801E+03  0.87596125542E+03  0.00000000000E+00 0. -1.
         22    1    3    3    0    0  0.92815011478E+02  0.56680047636E+02  0.14306815932E+03  0.17971018993E+03  0.00000000000E+00 0.  1.
         22    1    3    3    0    0 -0.11976200687E+01 -0.40580817386E+02  0.11260726020E+03  0.11970226432E+03  0.00000000000E+00 0.  1.
</event>
<event>
 7    1  0.6105960E-006  0.8766335E+02  0.7818608E-02  0.1481007E+00
          2   -1    0    0  502    0  0.00000000000E+00  0.00000000000E+00  0.13932273935E+03  0.13932273935E+03  0.00000000000E+00 0. -1.
          1   -1    0    0  501    0 -0.00000000000E+00 -0.00000000000E+00 -0.96852990624E+03  0.96852990624E+03  0.00000000000E+00 0. -1.
         25    2    1    2    0    0  0.90018376931E+02  0.19088951943E+02 -0.34748172486E+03  0.38057253498E+03  0.12499683595E+03 0.  0.
          2    1    1    2  501    0 -0.87210777518E+02  0.27654098596E+01 -0.60033424197E+03  0.60664204378E+03  0.00000000000E+00 0. -1.
          1    1    1    2  502    0 -0.28075994132E+01 -0.21854361803E+02  0.11860879994E+03  0.12063806683E+03  0.00000000000E+00 0. -1.
         22    1    3    3    0    0  0.57543636176E+02  0.30716497306E+01 -0.33835906355E+03  0.34323106063E+03  0.00000000000E+00 0. -1.
         22    1    3    3    0    0  0.32474740756E+02  0.16017302212E+02 -0.91226613134E+01  0.37341474352E+02  0.00000000000E+00 0. -1.
</event>
<event>
 7    1  0.6105960E-006  0.4374865E+02  0.7818608E-02  0.1568191E+00
          2   -1    0    0  502    0  0.00000000000E+00  0.00000000000E+00  0.98905290424E+03  0.98905290424E+03  0.00000000000E+00 0. -1.
          1   -1    0    0  501    0 -0.00000000000E+00 -0.00000000000E+00 -0.62406518776E+03  0.62406518776E+03  0.00000000000E+00 0. -1.
         25    2    1    2    0    0  0.22884331241E+02  0.32318455088E+00  0.39224958695E+01  0.12713964612E+03  0.12500122631E+03 0.  0.
          2    1    1    2  501    0  0.17135494434E+02  0.17823431007E+02 -0.56166179967E+03  0.56220572487E+03  0.00000000000E+00 0. -1.
          1    1    1    2  502    0 -0.40019825675E+02 -0.18146615558E+02  0.92272702028E+03  0.92377272100E+03  0.00000000000E+00 0. -1.
         22    1    3    3    0    0  0.33177689938E+02  0.36723972235E+01 -0.56571158203E+02  0.65685169951E+02  0.00000000000E+00 0.  1.
         22    1    3    3    0    0 -0.10293358697E+02 -0.33492126726E+01  0.60493654073E+02  0.61454476174E+02  0.00000000000E+00 0.  1.
</event>
<event>
 7    1  0.6105960E-006  0.1274487E+03  0.7818608E-02  0.1355446E+00
          2   -1    0    0  502    0  0.00000000000E+00  0.00000000000E+00  0.16678942642E+04  0.16678942642E+04  0.00000000000E+00 0. -1.
          1   -1    0    0  501    0 -0.00000000000E+00 -0.00000000000E+00 -0.24652323688E+04  0.24652323688E+04  0.00000000000E+00 0. -1.
         25    2    1    2    0    0  0.13820879893E+03 -0.66489140998E+02  0.47589145403E+03  0.51538215332E+03  0.12499443974E+03 0.  0.
          2    1    1    2  501    0 -0.39266909152E+02 -0.75336814752E+01 -0.24420666209E+04  0.24423939133E+04  0.00000000000E+00 0. -1.
          1    1    1    2  502    0 -0.98941889777E+02  0.74022822473E+02  0.11688370623E+04  0.11753505664E+04  0.00000000000E+00 0. -1.
         22    1    3    3    0    0  0.14256587073E+03 -0.60606103748E+02  0.28525521077E+03  0.32460539518E+03  0.00000000000E+00 0.  1.
         22    1    3    3    0    0 -0.43570717963E+01 -0.58830372503E+01  0.19063624325E+03  0.19077675813E+03  0.00000000000E+00 0.  1.
</event>
<event>
 7    1  0.6105960E-006  0.5302766E+02  0.7818608E-02  0.1526788E+00
          2   -1    0    0  502    0  0.00000000000E+00  0.00000000000E+00  0.67959452384E+03  0.67959452384E+03  0.00000000000E+00 0. -1.
          1   -1    0    0  501    0 -0.00000000000E+00 -0.00000000000E+00 -0.50609585921E+03  0.50609585921E+03  0.00000000000E+00 0. -1.
         25    2    1    2    0    0 -0.15745513086E+02 -0.23235822413E+02  0.18081530342E+03  0.22159744693E+03  0.12499371949E+03 0.  0.
          2    1    1    2  501    0  0.39032416420E+02  0.36168824118E+02 -0.48387420991E+03  0.48679149991E+03  0.00000000000E+00 0. -1.
          1    1    1    2  502    0 -0.23286903334E+02 -0.12933001706E+02  0.47655757112E+03  0.47730143620E+03  0.00000000000E+00 0. -1.
         22    1    3    3    0    0 -0.31374806443E+02 -0.67946561610E+02  0.76435521506E+02  0.10697430842E+03  0.00000000000E+00 0.  1.
         22    1    3    3    0    0  0.15629293357E+02  0.44710739198E+02  0.10437978191E+03  0.11462313851E+03  0.00000000000E+00 0.  1.
</event>
<event>
 7    1  0.6105960E-006  0.4388711E+02  0.7818608E-02  0.1542439E+00
          2   -1    0    0  502    0  0.00000000000E+00  0.00000000000E+00  0.73671696388E+03  0.73671696388E+03  0.00000000000E+00 0. -1.
          1   -1    0    0  501    0 -0.00000000000E+00 -0.00000000000E+00 -0.32390049874E+02  0.32390049874E+02  0.00000000000E+00 0. -1.
         25    2    1    2    0    0 -0.19796071094E+02  0.71465468151E+01  0.31762112912E+03  0.34198285811E+03  0.12500454399E+03 0.  0.
          2    1    1    2  501    0 -0.13210312671E+02  0.25868384254E+02 -0.76323280306E+01  0.30032284228E+02  0.00000000000E+00 0. -1.
          1    1    1    2  502    0  0.33006383765E+02 -0.33014931069E+02  0.39433811292E+03  0.39709187141E+03  0.00000000000E+00 0. -1.
         22    1    3    3    0    0 -0.53316100282E+02 -0.34062128992E+02  0.10294756187E+03  0.12083474532E+03  0.00000000000E+00 0.  1.
         22    1    3    3    0    0  0.33520029188E+02  0.41208675808E+02  0.21467356725E+03  0.22114811280E+03  0.00000000000E+00 0.  1.
</event>
<event>
 7    1  0.6105960E-006  0.9679848E+02  0.7818608E-02  0.1316571E+00
          2   -1    0    0  502    0  0.00000000000E+00  0.00000000000E+00  0.10962328498E+04  0.10962328498E+04  0.00000000000E+00 0. -1.
          1   -1    0    0  501    0 -0.00000000000E+00 -0.00000000000E+00 -0.36404775427E+03  0.36404775427E+03  0.00000000000E+00 0. -1.
         25    2    1    2    0    0 -0.26605264874E+02 -0.15368743239E+02  0.86769482465E+02  0.15523121053E+03  0.12499498889E+03 0.  0.
          2    1    1    2  501    0 -0.39637507395E+02 -0.62346071720E+02 -0.32296105520E+03  0.33130349806E+03  0.00000000000E+00 0. -1.
          1    1    1    2  502    0  0.66242772269E+02  0.77714814959E+02  0.96837666825E+03  0.97374589547E+03  0.00000000000E+00 0. -1.
         22    1    3    3    0    0 -0.69055946762E+02  0.23076597152E+01  0.84553391451E+02  0.10919397915E+03  0.00000000000E+00 0.  1.
         22    1    3    3    0    0  0.42450681888E+02 -0.17676402954E+02  0.22160910140E+01  0.46037231384E+02  0.00000000000E+00 0.  1.
</event>
<event>
 7    1  0.6105960E-006  0.4191133E+02  0.7818608E-02  0.1509041E+00
          2   -1    0    0  502    0  0.00000000000E+00  0.00000000000E+00  0.99140763316E+03  0.99140763316E+03  0.00000000000E+00 0. -1.
          1   -1    0    0  501    0 -0.00000000000E+00 -0.00000000000E+00 -0.44322335715E+02  0.44322335715E+02  0.00000000000E+00 0. -1.
         25    2    1    2    0    0 -0.11580449512E+02  0.10846563148E+02  0.54158472003E+03  0.55604873478E+03  0.12499772692E+03 0.  0.
          2    1    1    2  501    0  0.10330266691E+02  0.36528851091E+02 -0.25726585935E+02  0.45857699417E+02  0.00000000000E+00 0. -1.
          1    1    1    2  502    0  0.12501828208E+01 -0.47375414239E+02  0.43122716335E+03  0.43382353468E+03  0.00000000000E+00 0. -1.
         22    1    3    3    0    0 -0.62395051497E+02 -0.93491888200E+01  0.18908516740E+03  0.19933326444E+03  0.00000000000E+00 0.  1.
         22    1    3    3    0    0  0.50814601985E+02  0.20195751968E+02  0.35249955263E+03  0.35671547034E+03  0.00000000000E+00 0.  1.
</event>
<event>
 7    1  0.6105960E-006  0.8242447E+02  0.7818608E-02  0.1490986E+00
          2   -1    0    0  502    0  0.00000000000E+00  0.00000000000E+00  0.22378397134E+04  0.22378397134E+04  0.00000000000E+00 0. -1.
          1   -1    0    0  501    0 -0.00000000000E+00 -0.00000000000E+00 -0.42746963659E+03  0.42746963659E+03  0.00000000000E+00 0. -1.
         25    2    1    2    0    0 -0.42278769595E+02 -0.47328812912E+02  0.19154606679E+04  0.19205836483E+04  0.12499787594E+03 0.  0.
          2    1    1    2  501    0  0.63474403516E+02  0.52645651980E+02 -0.42052537511E+03  0.42853489436E+03  0.00000000000E+00 0. -1.
          1    1    1    2  502    0 -0.21195633922E+02 -0.53168390676E+01  0.31543478404E+03  0.31619080736E+03  0.00000000000E+00 0. -1.
         22    1    3    3    0    0  0.53920186632E+01 -0.31204032262E+02  0.11119085289E+03  0.11561215879E+03  0.00000000000E+00 0. -1.
         22    1    3    3    0    0 -0.47670788258E+02 -0.16124780651E+02  0.18042698150E+04  0.18049714895E+04  0.00000000000E+00 0. -1.
</event>
<event>
 7    1  0.6105960E-006  0.6989489E+02  0.7818608E-02  0.1392373E+00
          2   -1    0    0  502    0  0.00000000000E+00  0.00000000000E+00  0.20951658635E+04  0.20951658635E+04  0.00000000000E+00 0. -1.
          1   -1    0    0  501    0 -0.00000000000E+00 -0.00000000000E+00 -0.20439768046E+03  0.20439768046E+03  0.00000000000E+00 0. -1.
         25    2    1    2    0    0 -0.14805491637E+02 -0.26652602572E+02  0.23333728661E+03  0.26646122635E+03  0.12500292804E+03 0.  0.
          2    1    1    2  501    0 -0.53608229710E+02  0.45118584419E+01 -0.18326722527E+03  0.19100019638E+03  0.00000000000E+00 0. -1.
          1    1    1    2  502    0  0.68413721347E+02  0.22140744130E+02  0.18406981217E+04  0.18421021212E+04  0.00000000000E+00 0. -1.
         22    1    3    3    0    0  0.31283080074E+02 -0.55823446719E+02  0.72879323448E+02  0.96985999447E+02  0.00000000000E+00 0.  1.
         22    1    3    3    0    0 -0.46088571711E+02  0.29170844148E+02  0.16045796316E+03  0.16947522690E+03  0.00000000000E+00 0.  1.
</event>
<event>
 7    1  0.6105960E-006  0.7173516E+02  0.7818608E-02  0.1454660E+00
          2   -1    0    0  502    0  0.00000000000E+00  0.00000000000E+00  0.13736424895E+04  0.13736424895E+04  0.00000000000E+00 0. -1.
          1   -1    0    0  501    0 -0.00000000000E+00 -0.00000000000E+00 -0.23060754975E+03  0.23060754975E+03  0.00000000000E+00 0. -1.
         25    2    1    2    0    0 -0.63294422335E+02 -0.44148978432E+02  0.42057013762E+02  0.15280494800E+03  0.12500097412E+03 0.  0.
          2    1    1    2  501    0  0.36138618998E+02  0.62073852887E+02 -0.16765579835E+03  0.18239416031E+03  0.00000000000E+00 0. -1.
          1    1    1    2  502    0  0.27155803337E+02 -0.17924874454E+02  0.12686337243E+04  0.12690509309E+04  0.00000000000E+00 0. -1.
         22    1    3    3    0    0  0.20384759983E+02 -0.39512797640E+02 -0.19770946195E+02  0.48658914191E+02  0.00000000000E+00 0.  1.
         22    1    3    3    0    0 -0.83679182318E+02 -0.46361807929E+01  0.61827959957E+02  0.10414603381E+03  0.00000000000E+00 0.  1.
</event>
<event>
 7    1  0.6105960E-006  0.6420632E+02  0.7818608E-02  0.1451378E+00
          2   -1    0    0  502    0  0.00000000000E+00  0.00000000000E+00  0.27415438669E+04  0.27415438669E+04  0.00000000000E+00 0. -1.
          1   -1    0    0  501    0 -0.00000000000E+00 -0.00000000000E+00 -0.35301087053E+03  0.35301087053E+03  0.00000000000E+00 0. -1.
         25    2    1    2    0    0 -0.79170416447E+02  0.61953491959E+02  0.20422976268E+03  0.25969249578E+03  0.12499682552E+03 0.  0.
          2    1    1    2  501    0  0.31768404630E+02 -0.19430356185E+02 -0.32380820818E+03  0.32594251941E+03  0.00000000000E+00 0. -1.
          1    1    1    2  502    0  0.47402011817E+02 -0.42523135774E+02  0.25081114419E+04  0.25089197223E+04  0.00000000000E+00 0. -1.
         22    1    3    3    0    0 -0.95830136716E+02  0.31170709788E+02  0.20061747943E+03  0.22450479128E+03  0.00000000000E+00 0.  1.
         22    1    3    3    0    0  0.16659720269E+02  0.30782782171E+02  0.36122832483E+01  0.35187704499E+02  0.00000000000E+00 0.  1.
</event>
<event>
 7    1  0.6105960E-006  0.9869288E+02  0.7818608E-02  0.1343901E+00
          2   -1    0    0  502    0  0.00000000000E+00  0.00000000000E+00  0.20776555883E+04  0.20776555883E+04  0.00000000000E+00 0. -1.
          1   -1    0    0  501    0 -0.00000000000E+00 -0.00000000000E+00 -0.72998966911E+03  0.72998966911E+03  0.00000000000E+00 0. -1.
         25    2    1    2    0    0 -0.15100219796E+02  0.51111517267E+02  0.60650672293E+02  0.14880807298E+03  0.12499973880E+03 0.  0.
          2    1    1    2  501    0 -0.15326228626E+02 -0.99288158068E+02 -0.68181787789E+03  0.68917969371E+03  0.00000000000E+00 0. -1.
          1    1    1    2  502    0  0.30426448422E+02  0.48176640801E+02  0.19688331248E+04  0.19696574907E+04  0.00000000000E+00 0. -1.
         22    1    3    3    0    0 -0.53717433302E+02  0.73138332139E+02  0.47613526478E+02  0.10247841808E+03  0.00000000000E+00 0.  1.
         22    1    3    3    0    0  0.38617213506E+02 -0.22026814872E+02  0.13037145815E+02  0.46329654903E+02  0.00000000000E+00 0.  1.
</event>
<event>
 7    1  0.6105961E-006  0.7965796E+02  0.7818608E-02  0.1469002E+00
          2   -1    0    0  502    0  0.00000000000E+00  0.00000000000E+00  0.10893301211E+04  0.10893301211E+04  0.00000000000E+00 0. -1.
          1   -1    0    0  501    0 -0.00000000000E+00 -0.00000000000E+00 -0.13127190143E+04  0.13127190143E+04  0.00000000000E+00 0. -1.
         25    2    1    2    0    0  0.48006865926E+02 -0.31531046190E+02 -0.24125488526E+03  0.27772087665E+03  0.12500439839E+03 0.  0.
          2    1    1    2  501    0  0.26296208151E+02  0.24472670832E+01 -0.10515790628E+04  0.10519106450E+04  0.00000000000E+00 0. -1.
          1    1    1    2  502    0 -0.74303074077E+02  0.29083779107E+02  0.10694450549E+04  0.10724176138E+04  0.00000000000E+00 0. -1.
         22    1    3    3    0    0  0.37799109546E+01 -0.75222626816E+02 -0.12739108221E+03  0.14799060490E+03  0.00000000000E+00 0.  1.
         22    1    3    3    0    0  0.44226954971E+02  0.43691580625E+02 -0.11386380305E+03  0.12973027175E+03  0.00000000000E+00 0.  1.
</event>
<event>
 7    1  0.6105960E-006  0.1937962E+03  0.7818608E-02  0.1284754E+00
          2   -1    0    0  502    0  0.00000000000E+00  0.00000000000E+00  0.32063994025E+04  0.32063994025E+04  0.00000000000E+00 0. -1.
          1   -1    0    0  501    0 -0.00000000000E+00 -0.00000000000E+00 -0.36763788531E+03  0.36763788531E+03  0.00000000000E+00 0. -1.
         25    2    1    2    0    0 -0.54341494717E+02  0.14058460629E+03  0.87667955018E+03  0.89828055615E+03  0.12499557706E+03 0.  0.
          2    1    1    2  501    0  0.46700444019E+02 -0.18945675687E+03 -0.32987537929E+03  0.38326565207E+03  0.00000000000E+00 0. -1.
          1    1    1    2  502    0  0.76410506982E+01  0.48872150579E+02  0.22919573463E+04  0.22924910796E+04  0.00000000000E+00 0. -1.
         22    1    3    3    0    0  0.20926661533E+02  0.39655883276E+02  0.79958664260E+02  0.91672799845E+02  0.00000000000E+00 0.  1.
         22    1    3    3    0    0 -0.75268156250E+02  0.10092872302E+03  0.79672088592E+03  0.80660775631E+03  0.00000000000E+00 0.  1.
</event>
<event>
 7    1  0.6105960E-006  0.1214535E+03  0.7818608E-02  0.1375654E+00
          2   -1    0    0  502    0  0.00000000000E+00  0.00000000000E+00  0.82330386329E+03  0.82330386329E+03  0.00000000000E+00 0. -1.
          1   -1    0    0  501    0 -0.00000000000E+00 -0.00000000000E+00 -0.49929509149E+03  0.49929509149E+03  0.00000000000E+00 0. -1.
         25    2    1    2    0    0 -0.29030435084E+02  0.10299880821E+03 -0.21985972740E+02  0.16601125247E+03  0.12499932917E+03 0.  0.
          2    1    1    2  501    0 -0.35437246987E+02  0.10855047703E+01 -0.39951829167E+03  0.40108832216E+03  0.00000000000E+00 0. -1.
          1    1    1    2  502    0  0.64467682071E+02 -0.10408431298E+03  0.74551303622E+03  0.75549938015E+03  0.00000000000E+00 0. -1.
         22    1    3    3    0    0  0.41894067109E+02  0.48329034882E+01 -0.14792822441E+02  0.44691133470E+02  0.00000000000E+00 0.  1.
         22    1    3    3    0    0 -0.70924502193E+02  0.98165904726E+02 -0.71931502991E+01  0.12132011900E+03  0.00000000000E+00 0.  1.
</event>
<event>
 7    1  0.6105960E-006  0.5929383E+02  0.7818608E-02  0.1523347E+00
          2   -1    0    0  502    0  0.00000000000E+00  0.00000000000E+00  0.13596325016E+04  0.13596325016E+04  0.00000000000E+00 0. -1.
          1   -1    0    0  501    0 -0.00000000000E+00 -0.00000000000E+00 -0.60570807611E+02  0.60570807611E+02  0.00000000000E+00 0. -1.
         25    2    1    2    0    0 -0.49310263528E+02 -0.57204190710E+02  0.22696247506E+03  0.26989127900E+03  0.12500206345E+03 0.  0.
          2    1    1    2  501    0  0.53788176013E+00  0.24366814608E+02 -0.34451051767E+02  0.42200781257E+02  0.00000000000E+00 0. -1.
          1    1    1    2  502    0  0.48772381767E+02  0.32837376103E+02  0.11065502707E+04  0.11081112490E+04  0.00000000000E+00 0. -1.
         22    1    3    3    0    0 -0.20892152940E+02 -0.79607047580E+02  0.67700026647E+02  0.10656949698E+03  0.00000000000E+00 0. -1.
         22    1    3    3    0    0 -0.28418110588E+02  0.22402856870E+02  0.15926244841E+03  0.16332178201E+03  0.00000000000E+00 0. -1.
</event>
<event>
 7    1  0.6105960E-006  0.4242198E+02  0.7818608E-02  0.1529679E+00
          2   -1    0    0  502    0  0.00000000000E+00  0.00000000000E+00  0.81197353958E+03  0.81197353958E+03  0.00000000000E+00 0. -1.
          1   -1    0    0  501    0 -0.00000000000E+00 -0.00000000000E+00 -0.80958998485E+03  0.80958998485E+03  0.00000000000E+00 0. -1.
         25    2    1    2    0    0 -0.33795858999E+02 -0.20192870695E+02  0.19635474749E+03  0.23607221986E+03  0.12499997606E+03 0.  0.
          2    1    1    2  501    0 -0.76246578456E+01  0.31763853588E+02 -0.78861654855E+03  0.78929280907E+03  0.00000000000E+00 0. -1.
          1    1    1    2  502    0  0.41420516845E+02 -0.11570982893E+02  0.59464535580E+03  0.59619849550E+03  0.00000000000E+00 0. -1.
         22    1    3    3    0    0 -0.52850070432E+02 -0.46378264409E+02  0.50256718506E+02  0.86428068990E+02  0.00000000000E+00 0. -1.
         22    1    3    3    0    0  0.19054211433E+02  0.26185393714E+02  0.14609802898E+03  0.14964415087E+03  0.00000000000E+00 0. -1.
</event>
<event>
 7    1  0.6105960E-006  0.7201255E+02  0.7818608E-02  0.1520068E+00
          2   -1    0    0  502    0  0.00000000000E+00  0.00000000000E+00  0.16073638902E+04  0.16073638902E+04  0.00000000000E+00 0. -1.
          1   -1    0    0  501    0 -0.00000000000E+00 -0.00000000000E+00 -0.42833709254E+02  0.42833709254E+02  0.00000000000E+00 0. -1.
         25    2    1    2    0    0 -0.66545266379E+02 -0.23698242050E+02  0.14048459559E+03  0.20087390975E+03  0.12499810746E+03 0.  0.
          2    1    1    2  501    0 -0.54864756200E+01  0.19764533781E+02 -0.27589749417E+01  0.20696621778E+02  0.00000000000E+00 0. -1.
          1    1    1    2  502    0  0.72031741999E+02  0.39337082694E+01  0.14268045603E+04  0.14286270679E+04  0.00000000000E+00 0. -1.
         22    1    3    3    0    0  0.35994844573E+02 -0.19198820469E+02  0.44068203791E+02  0.60051895295E+02  0.00000000000E+00 0.  1.
         22    1    3    3    0    0 -0.10254011095E+03 -0.44994215807E+01  0.96416391799E+02  0.14082201446E+03  0.00000000000E+00 0.  1.
</event>
<event>
 7    1  0.6105960E-006  0.1296101E+03  0.7818608E-02  0.1288496E+00
          2   -1    0    0  502    0  0.00000000000E+00  0.00000000000E+00  0.64307497248E+02  0.64307497248E+02  0.00000000000E+00 0. -1.
          1   -1    0    0  501    0 -0.00000000000E+00 -0.00000000000E+00 -0.59731153238E+03  0.59731153238E+03  0.00000000000E+00 0. -1.
         25    2    1    2    0    0  0.33723320186E+02 -0.95531087203E+02 -0.29172854772E+03  0.33316456150E+03  0.12501851277E+03 0.  0.
          2    1    1    2  501    0 -0.48119487967E+02 -0.52752514616E+02 -0.10201992400E+03  0.12452460726E+03  0.00000000000E+00 0. -1.
          1    1    1    2  502    0  0.14396167781E+02  0.14828360182E+03 -0.13925556342E+03  0.20392986088E+03  0.00000000000E+00 0. -1.
         22    1    3    3    0    0  0.51739061358E+02 -0.11444881406E+03 -0.18727387639E+03  0.22549271893E+03  0.00000000000E+00 0. -1.
         22    1    3    3    0    0 -0.18015741172E+02  0.18917726861E+02 -0.10445467133E+03  0.10767184257E+03  0.00000000000E+00 0. -1.
</event>
<event>
 7    1  0.6105960E-006  0.3206598E+02  0.7818608E-02  0.1644248E+00
          2   -1    0    0  502    0  0.00000000000E+00  0.00000000000E+00  0.10245991768E+04  0.10245991768E+04  0.00000000000E+00 0. -1.
          1   -1    0    0  501    0 -0.00000000000E+00 -0.00000000000E+00 -0.19022109053E+03  0.19022109053E+03  0.00000000000E+00 0. -1.
         25    2    1    2    0    0  0.40538745346E+02 -0.26551621319E+02  0.15930108663E+03  0.20820538209E+03  0.12499706581E+03 0.  0.
          2    1    1    2  501    0 -0.31101880930E+02  0.73242125408E+01 -0.16409127716E+03  0.16717331822E+03  0.00000000000E+00 0. -1.
          1    1    1    2  502    0 -0.94368644158E+01  0.19227408778E+02  0.83916827681E+03  0.83944156703E+03  0.00000000000E+00 0. -1.
         22    1    3    3    0    0 -0.13339249650E+02 -0.44267750021E+02  0.14134570140E+03  0.14871508524E+03  0.00000000000E+00 0.  1.
         22    1    3    3    0    0  0.53877994996E+02  0.17716128702E+02  0.17955385234E+02  0.59490296855E+02  0.00000000000E+00 0.  1.
</event>
<event>
 7    1  0.6105960E-006  0.7980356E+02  0.7818608E-02  0.1334968E+00
          2   -1    0    0  502    0  0.00000000000E+00  0.00000000000E+00  0.17054524899E+04  0.17054524899E+04  0.00000000000E+00 0. -1.
          1   -1    0    0  501    0 -0.00000000000E+00 -0.00000000000E+00 -0.99617839126E+03  0.99617839126E+03  0.00000000000E+00 0. -1.
         25    2    1    2    0    0 -0.18166976167E+02 -0.10512032825E+03  0.50404878041E+03  0.53016136453E+03  0.12500230791E+03 0.  0.
          2    1    1    2  501    0 -0.46479343852E+02  0.64889808251E+02 -0.98027863313E+03  0.98352285952E+03  0.00000000000E+00 0. -1.
          1    1    1    2  502    0  0.64646320019E+02  0.40230519996E+02  0.11855039514E+04  0.11879466571E+04  0.00000000000E+00 0. -1.
         22    1    3    3    0    0 -0.92971277551E+01  0.23579473902E+02  0.32109204386E+02  0.40907568741E+02  0.00000000000E+00 0.  1.
         22    1    3    3    0    0 -0.88698484122E+01 -0.12869980215E+03  0.47193957602E+03  0.48925379579E+03  0.00000000000E+00 0.  1.
</event>
<event>
 7    1  0.6105960E-006  0.7397251E+02  0.7818608E-02  0.1501205E+00
          2   -1    0    0  502    0  0.00000000000E+00  0.00000000000E+00  0.13537094926E+03  0.13537094926E+03  0.00000000000E+00 0. -1.
          1   -1    0    0  501    0 -0.00000000000E+00 -0.00000000000E+00 -0.12461030143E+04  0.12461030143E+04  0.00000000000E+00 0. -1.
         25    2    1    2    0    0  0.56132447215E+02 -0.74207948887E+02 -0.17576199442E+03  0.23489329118E+03  0.12499963301E+03 0.  0.
          2    1    1    2  501    0 -0.51484991730E+02  0.51999604924E+02 -0.10382562337E+04  0.10408317203E+04  0.00000000000E+00 0. -1.
          1    1    1    2  502    0 -0.46474554844E+01  0.22208343963E+02  0.10328616304E+03  0.10574895205E+03  0.00000000000E+00 0. -1.
         22    1    3    3    0    0  0.61920120814E+02 -0.60590105772E+02 -0.35129405395E+02  0.93484423315E+02  0.00000000000E+00 0.  1.
         22    1    3    3    0    0 -0.57876735992E+01 -0.13617843114E+02 -0.14063258902E+03  0.14140886787E+03  0.00000000000E+00 0.  1.
</event>
<event>
 7    1  0.6105960E-006  0.5141706E+02  0.7818608E-02  0.1526200E+00
          2   -1    0    0  502    0  0.00000000000E+00  0.00000000000E+00  0.22702245859E+04  0.22702245859E+04  0.00000000000E+00 0. -1.
          1   -1    0    0  501    0 -0.00000000000E+00 -0.00000000000E+00 -0.77283547696E+02  0.77283547696E+02  0.00000000000E+00 0. -1.
         25    2    1    2    0    0  0.98512476763E+01 -0.26572147400E+02  0.10298404446E+04  0.10377858740E+04  0.12500021127E+03 0.  0.
          2    1    1    2  501    0  0.17954991192E+02 -0.20933497530E+02 -0.70081247831E+02  0.75312511079E+02  0.00000000000E+00 0. -1.
          1    1    1    2  502    0 -0.27806238868E+02  0.47505644930E+02  0.12331818414E+04  0.12344097485E+04  0.00000000000E+00 0. -1.
         22    1    3    3    0    0 -0.49559515169E+02 -0.31562893962E+02  0.71066624350E+03  0.71309106815E+03  0.00000000000E+00 0.  1.
         22    1    3    3    0    0  0.59410762845E+02  0.49907465623E+01  0.31917420114E+03  0.32469480588E+03  0.00000000000E+00 0.  1.
</event>
<event>
 7    1  0.6105960E-006  0.1007260E+03  0.7818608E-02  0.1359769E+00
          2   -1    0    0  502    0  0.00000000000E+00  0.00000000000E+00  0.69737077867E+03  0.69737077867E+03  0.00000000000E+00 0. -1.
          1   -1    0    0  501    0 -0.00000000000E+00 -0.00000000000E+00 -0.21158895639E+04  0.21158895639E+04  0.00000000000E+00 0. -1.
         25    2    1    2    0    0 -0.62107754139E+02 -0.12237440633E+03  0.30446798854E+02  0.18810779614E+03  0.12499866784E+03 0.  0.
          2    1    1    2  501    0  0.19605915425E+02  0.98435954266E+02 -0.20348084604E+04  0.20372823809E+04  0.00000000000E+00 0. -1.
          1    1    1    2  502    0  0.42501838714E+02  0.23938452064E+02  0.58584287631E+03  0.58787016552E+03  0.00000000000E+00 0. -1.
         22    1    3    3    0    0 -0.35060720680E+02 -0.99071910471E+02  0.76391058143E+02  0.12992340568E+03  0.00000000000E+00 0. -1.
         22    1    3    3    0    0 -0.27047033459E+02 -0.23302495859E+02 -0.45944259288E+02  0.58184390465E+02  0.00000000000E+00 0. -1.
</event>
<event>
 7    1  0.6105960E-006  0.1114835E+03  0.7818608E-02  0.1397629E+00
          2   -1    0    0  502    0  0.00000000000E+00  0.00000000000E+00  0.71617597962E+03  0.71617597962E+03  0.00000000000E+00 0. -1.
          1   -1    0    0  501    0 -0.00000000000E+00 -0.00000000000E+00 -0.23437704522E+03  0.23437704522E+03  0.00000000000E+00 0. -1.
         25    2    1    2    0    0 -0.41945181077E+02 -0.83696976898E+02  0.51417156058E+02  0.16441892282E+03  0.12500110435E+03 0.  0.
          2    1    1    2  501    0  0.74006261409E+02  0.87964359321E+02 -0.15881335887E+03  0.19605187628E+03  0.00000000000E+00 0. -1.
          1    1    1    2  502    0 -0.32061080332E+02 -0.42673824236E+01  0.58919513720E+03  0.59008222573E+03  0.00000000000E+00 0. -1.
         22    1    3    3    0    0  0.21875345670E+01  0.71196178935E+01 -0.32366726514E+02  0.33212636927E+02  0.00000000000E+00 0. -1.
         22    1    3    3    0    0 -0.44132715644E+02 -0.90816594791E+02  0.83783882572E+02  0.13120628590E+03  0.00000000000E+00 0. -1.
</event>
<event>
 7    1  0.6105960E-006  0.4556764E+02  0.7818608E-02  0.1537045E+00
          2   -1    0    0  502    0  0.00000000000E+00  0.00000000000E+00  0.20646640890E+04  0.20646640890E+04  0.00000000000E+00 0. -1.
          1   -1    0    0  501    0 -0.00000000000E+00 -0.00000000000E+00 -0.22474136578E+03  0.22474136578E+03  0.00000000000E+00 0. -1.
         25    2    1    2    0    0 -0.26278157827E+02  0.15578130062E+02  0.37099198810E+03  0.39267214445E+03  0.12499255207E+03 0.  0.
          2    1    1    2  501    0  0.16193379342E+02 -0.42741509173E+02 -0.21133333722E+03  0.21621942920E+03  0.00000000000E+00 0. -1.
          1    1    1    2  502    0  0.10084778486E+02  0.27163379111E+02  0.16802640723E+04  0.16805138811E+04  0.00000000000E+00 0. -1.
         22    1    3    3    0    0 -0.49497460215E+02 -0.41771802375E+02  0.22434696818E+03  0.23350898092E+03  0.00000000000E+00 0. -1.
         22    1    3    3    0    0  0.23219302387E+02  0.57349932436E+02  0.14664501993E+03  0.15916316352E+03  0.00000000000E+00 0. -1.
</event>
<event>
 7    1  0.6105960E-006  0.4633696E+02  0.7818608E-02  0.1513632E+00
          2   -1    0    0  502    0  0.00000000000E+00  0.00000000000E+00  0.18085497680E+03  0.18085497680E+03  0.00000000000E+00 0. -1.
          1   -1    0    0  501    0 -0.00000000000E+00 -0.00000000000E+00 -0.98253680960E+03  0.98253680960E+03  0.00000000000E+00 0. -1.
         25    2    1    2    0    0  0.13688318706E+02 -0.11319695348E+02 -0.42797272462E+03  0.44620821193E+03  0.12500243918E+03 0.  0.
          2    1    1    2  501    0 -0.28410476639E+02  0.41172377480E+02 -0.54267230781E+03  0.54497298421E+03  0.00000000000E+00 0. -1.
          1    1    1    2  502    0  0.14722157933E+02 -0.29852682132E+02  0.16896319963E+03  0.17221059025E+03  0.00000000000E+00 0. -1.
         22    1    3    3    0    0 -0.35080470538E+02  0.35952350029E+02 -0.10805128679E+03  0.11915658380E+03  0.00000000000E+00 0. -1.
         22    1    3    3    0    0  0.48768789245E+02 -0.47272045377E+02 -0.31992143783E+03  0.32705162813E+03  0.00000000000E+00 0. -1.
</event>
<event>
 7    1  0.6105960E-006  0.6851531E+02  0.7818608E-02  0.1466697E+00
          2   -1    0    0  502    0  0.00000000000E+00  0.00000000000E+00  0.17977565977E+03  0.17977565977E+03  0.00000000000E+00 0. -1.
          1   -1    0    0  501    0 -0.00000000000E+00 -0.00000000000E+00 -0.28527657861E+03  0.28527657861E+03  0.00000000000E+00 0. -1.
         25    2    1    2    0    0 -0.69906350806E+02 -0.15453643993E+02 -0.28442888209E+02  0.14683363758E+03  0.12500162495E+03 0.  0.
          2    1    1    2  501    0  0.15664765893E+02 -0.27002971636E+02 -0.18639596410E+03  0.18899206544E+03  0.00000000000E+00 0. -1.
          1    1    1    2  502    0  0.54241584914E+02  0.42456615628E+02  0.10933793346E+03  0.12922653535E+03  0.00000000000E+00 0. -1.
         22    1    3    3    0    0 -0.29929801252E+02  0.47906859308E+02  0.17272351120E+02  0.59069402274E+02  0.00000000000E+00 0.  1.
         22    1    3    3    0    0 -0.39976549554E+02 -0.63360503301E+02 -0.45715239328E+02  0.87764235310E+02  0.00000000000E+00 0.  1.
</event>
<event>
 7    1  0.6105960E-006  0.8194445E+02  0.7818608E-02  0.1449043E+00
          2   -1    0    0  502    0  0.00000000000E+00  0.00000000000E+00  0.55164013703E+03  0.55164013703E+03  0.00000000000E+00 0. -1.
          1   -1    0    0  501    0 -0.00000000000E+00 -0.00000000000E+00 -0.45131414970E+03  0.45131414970E+03  0.00000000000E+00 0. -1.
         25    2    1    2    0    0  0.77693546218E+02  0.79181218651E+02  0.19289503037E+03  0.25522476231E+03  0.12500093616E+03 0.  0.
          2    1    1    2  501    0 -0.59031509273E+02 -0.56096559452E+02 -0.41551623656E+03  0.42342093231E+03  0.00000000000E+00 0. -1.
          1    1    1    2  502    0 -0.18662036944E+02 -0.23084659198E+02  0.32294719352E+03  0.32430859211E+03  0.00000000000E+00 0. -1.
         22    1    3    3    0    0  0.30881996145E+02  0.10610139138E+03  0.10735488704E+03  0.15406581292E+03  0.00000000000E+00 0.  1.
         22    1    3    3    0    0  0.46811550073E+02 -0.26920172729E+02  0.85540143336E+02  0.10115894939E+03  0.00000000000E+00 0.  1.
</event>
<event>
 7    1  0.6105960E-006  0.4843282E+02  0.7818608E-02  0.1464622E+00
          2   -1    0    0  502    0  0.00000000000E+00  0.00000000000E+00  0.68443668790E+03  0.68443668790E+03  0.00000000000E+00 0. -1.
          1   -1    0    0  501    0 -0.00000000000E+00 -0.00000000000E+00 -0.90030386418E+03  0.90030386418E+03  0.00000000000E+00 0. -1.
         25    2    1    2    0    0 -0.46783091217E+02  0.28773006774E+02 -0.11837862241E+03  0.18071079943E+03  0.12500540486E+03 0.  0.
          2    1    1    2  501    0  0.64523593275E+01 -0.48341418623E+02 -0.74919635389E+03  0.75078206051E+03  0.00000000000E+00 0. -1.
          1    1    1    2  502    0  0.40330731890E+02  0.19568411849E+02  0.65170780002E+03  0.65324769214E+03  0.00000000000E+00 0. -1.
         22    1    3    3    0    0 -0.35589595760E+02  0.58327447724E+02 -0.11539473061E+02  0.69295525995E+02  0.00000000000E+00 0. -1.
         22    1    3    3    0    0 -0.11193495457E+02 -0.29554440950E+02 -0.10683914935E+03  0.11141527343E+03  0.00000000000E+00 0. -1.
</event>
<event>
 7    1  0.6105960E-006  0.4178704E+02  0.7818608E-02  0.1542331E+00
          2   -1    0    0  502    0  0.00000000000E+00  0.00000000000E+00  0.19784237045E+04  0.19784237045E+04  0.00000000000E+00 0. -1.
          1   -1    0    0  501    0 -0.00000000000E+00 -0.00000000000E+00 -0.28910824511E+02  0.28910824511E+02  0.00000000000E+00 0. -1.
         25    2    1    2    0    0 -0.95463348935E+01 -0.56909842015E+02  0.36897984200E+03  0.39382841142E+03  0.12499932484E+03 0.  0.
          2    1    1    2  501    0  0.26518525016E+02  0.31535423176E+02  0.96393809809E+01  0.42315868769E+02  0.00000000000E+00 0. -1.
          1    1    1    2  502    0 -0.16972190123E+02  0.25374418838E+02  0.15708936570E+04  0.15711902488E+04  0.00000000000E+00 0. -1.
         22    1    3    3    0    0  0.76308347270E+01 -0.81535118175E+02  0.13475280687E+03  0.15768488860E+03  0.00000000000E+00 0. -1.
         22    1    3    3    0    0 -0.17177169620E+02  0.24625276160E+02  0.23422703513E+03  0.23614352282E+03  0.00000000000E+00 0. -1.
</event>
<event>
 7    1  0.6105960E-006  0.5433572E+02  0.7818608E-02  0.1447938E+00
          2   -1    0    0  502    0  0.00000000000E+00  0.00000000000E+00  0.22181569008E+03  0.22181569008E+03  0.00000000000E+00 0. -1.
          1   -1    0    0  501    0 -0.00000000000E+00 -0.00000000000E+00 -0.14003679991E+03  0.14003679991E+03  0.00000000000E+00 0. -1.
         25    2    1    2    0    0 -0.25219303482E+02  0.40158146311E+02 -0.71191407029E+02  0.15146612524E+03  0.12500032271E+03 0.  0.
          2    1    1    2  501    0  0.69514293979E+02 -0.48821636531E+02  0.13942394973E+03  0.16326306079E+03  0.00000000000E+00 0. -1.
          1    1    1    2  502    0 -0.44294990498E+02  0.86634902203E+01  0.13546347475E+02  0.47123303958E+02  0.00000000000E+00 0. -1.
         22    1    3    3    0    0 -0.51146718595E+02  0.65552305825E+02 -0.14869359904E+02  0.84464131357E+02  0.00000000000E+00 0. -1.
         22    1    3    3    0    0  0.25927415113E+02 -0.25394159514E+02 -0.56322047125E+02  0.67001993882E+02  0.00000000000E+00 0. -1.
</event>
<event>
 7    1  0.6105960E-006  0.8930443E+02  0.7818608E-02  0.1308147E+00
          2   -1    0    0  502    0  0.00000000000E+00  0.00000000000E+00  0.14598410613E+03  0.14598410613E+03  0.00000000000E+00 0. -1.
          1   -1    0    0  501    0 -0.00000000000E+00 -0.00000000000E+00 -0.29512616608E+03  0.29512616608E+03  0.00000000000E+00 0. -1.
         25    2    1    2    0    0  0.34036356266E+01 -0.66049666546E+02 -0.71674370062E+02  0.15854422486E+03  0.12499965090E+03 0.  0.
          2    1    1    2  501    0  0.82927146034E+02  0.69901842258E+02 -0.13912695397E+03  0.17640716658E+03  0.00000000000E+00 0. -1.
          1    1    1    2  502    0 -0.86330781661E+02 -0.38521757117E+01  0.61659264083E+02  0.10615888077E+03  0.00000000000E+00 0. -1.
         22    1    3    3    0    0  0.58594978842E+02 -0.58967260605E+02 -0.57640149742E+02  0.10115777890E+03  0.00000000000E+00 0.  1.
         22    1    3    3    0    0 -0.55191343216E+02 -0.70824059406E+01 -0.14034220320E+02  0.57386445960E+02  0.00000000000E+00 0.  1.
</event>
<event>
 7    1  0.6105960E-006  0.1259654E+03  0.7818608E-02  0.1250414E+00
          2   -1    0    0  502    0  0.00000000000E+00  0.00000000000E+00  0.15251088103E+03  0.15251088103E+03  0.00000000000E+00 0. -1.
          1   -1    0    0  501    0 -0.00000000000E+00 -0.00000000000E+00 -0.88746054448E+03  0.88746054448E+03  0.00000000000E+00 0. -1.
         25    2    1    2    0    0 -0.12936974121E+03  0.13130864867E+03 -0.25674368265E+03  0.33988144550E+03  0.12499434890E+03 0.  0.
          2    1    1    2  501    0  0.10559401444E+03 -0.11498207491E+02 -0.54881768146E+03  0.55900192499E+03  0.00000000000E+00 0. -1.
          1    1    1    2  502    0  0.23775726770E+02 -0.11981044118E+03  0.70611700662E+02  0.14108805502E+03  0.00000000000E+00 0. -1.
         22    1    3    3    0    0 -0.72844532259E+02  0.62837987424E+02 -0.22650004981E+03  0.24608374816E+03  0.00000000000E+00 0. -1.
         22    1    3    3    0    0 -0.56525208955E+02  0.68470661251E+02 -0.30243632840E+02  0.93797697344E+02  0.00000000000E+00 0. -1.
</event>
<event>
 7    1  0.6105960E-006  0.1193227E+03  0.7818608E-02  0.1427678E+00
          2   -1    0    0  502    0  0.00000000000E+00  0.00000000000E+00  0.79005662822E+02  0.79005662822E+02  0.00000000000E+00 0. -1.
          1   -1    0    0  501    0 -0.00000000000E+00 -0.00000000000E+00 -0.93649928522E+03  0.93649928522E+03  0.00000000000E+00 0. -1.
         25    2    1    2    0    0 -0.81624480481E+02  0.10863859903E+03 -0.47928325134E+03  0.51361738602E+03  0.12500193276E+03 0.  0.
          2    1    1    2  501    0  0.13253146918E+00 -0.23923376175E+02 -0.38347583821E+03  0.38422137367E+03  0.00000000000E+00 0. -1.
          1    1    1    2  502    0  0.81491949012E+02 -0.84715222855E+02  0.52654671533E+01  0.11766618835E+03  0.00000000000E+00 0. -1.
         22    1    3    3    0    0 -0.13936875753E+02  0.10319630260E+03 -0.19203533801E+03  0.21845201858E+03  0.00000000000E+00 0. -1.
         22    1    3    3    0    0 -0.67687604728E+02  0.54422964270E+01 -0.28724791333E+03  0.29516536744E+03  0.00000000000E+00 0. -1.
</event>
<event>
 7    1  0.6105960E-006  0.1176248E+03  0.7818608E-02  0.1369641E+00
          2   -1    0    0  502    0  0.00000000000E+00  0.00000000000E+00  0.29756777541E+03  0.29756777541E+03  0.00000000000E+00 0. -1.
          1   -1    0    0  501    0 -0.00000000000E+00 -0.00000000000E+00 -0.36277737099E+03  0.36277737099E+03  0.00000000000E+00 0. -1.
         25    2    1    2    0    0 -0.83610498718E+02 -0.40502904883E+02 -0.97269680375E+02  0.18362416248E+03  0.12500096610E+03 0.  0.
          2    1    1    2  501    0  0.12207900838E+03  0.40471769712E+02 -0.20202844952E+03  0.23949267806E+03  0.00000000000E+00 0. -1.
          1    1    1    2  502    0 -0.38468509664E+02  0.31135170207E-01  0.23408853431E+03  0.23722830586E+03  0.00000000000E+00 0. -1.
         22    1    3    3    0    0 -0.96370077749E+02 -0.69293819976E+02 -0.54756336083E+02  0.13071756467E+03  0.00000000000E+00 0. -1.
         22    1    3    3    0    0  0.12759579031E+02  0.28790915093E+02 -0.42513344292E+02  0.52906597810E+02  0.00000000000E+00 0. -1.
</event>
<event>
 7    1  0.6105960E-006  0.4787330E+02  0.7818608E-02  0.1518871E+00
          2   -1    0    0  502    0  0.00000000000E+00  0.00000000000E+00  0.22784660310E+03  0.22784660310E+03  0.00000000000E+00 0. -1.
          1   -1    0    0  501    0 -0.00000000000E+00 -0.00000000000E+00 -0.16871392225E+04  0.16871392225E+04  0.00000000000E+00 0. -1.
         25    2    1    2    0    0  0.64496216491E+02 -0.30583474026E+02 -0.45190301480E+03  0.47427657325E+03  0.12500728908E+03 0.  0.
          2    1    1    2  501    0 -0.46807956596E+02  0.50000224785E+01 -0.12224778310E+04  0.12233838450E+04  0.00000000000E+00 0. -1.
          1    1    1    2  502    0 -0.17688259895E+02  0.25583451548E+02  0.21508822640E+03  0.21732540732E+03  0.00000000000E+00 0. -1.
         22    1    3    3    0    0 -0.28633882136E+01  0.38864527612E+02 -0.68047805749E+02  0.78416543955E+02  0.00000000000E+00 0.  1.
         22    1    3    3    0    0  0.67359604705E+02 -0.69448001638E+02 -0.38385520906E+03  0.39586002930E+03  0.00000000000E+00 0.  1.
</event>
<event>
 7    1  0.6105960E-006  0.7234136E+02  0.7818608E-02  0.1455303E+00
          2   -1    0    0  502    0  0.00000000000E+00  0.00000000000E+00  0.25259909758E+03  0.25259909758E+03  0.00000000000E+00 0. -1.
          1   -1    0    0  501    0 -0.00000000000E+00 -0.00000000000E+00 -0.15638456211E+03  0.15638456211E+03  0.00000000000E+00 0. -1.
         25    2    1    2    0    0 -0.51134228368E+02  0.39042511294E+02  0.17005466846E+03  0.22064026335E+03  0.12499803417E+03 0.  0.
          2    1    1    2  501    0  0.32749401152E+02 -0.65373307655E+02 -0.11491507768E+03  0.13620450693E+03  0.00000000000E+00 0. -1.
          1    1    1    2  502    0  0.18384827216E+02  0.26330796361E+02  0.41074944682E+02  0.52138889415E+02  0.00000000000E+00 0. -1.
         22    1    3    3    0    0  0.57207965053E+01  0.15201451460E+02  0.15672495591E+03  0.15756434700E+03  0.00000000000E+00 0.  1.
         22    1    3    3    0    0 -0.56855024873E+02  0.23841059834E+02  0.13329712552E+02  0.63075916355E+02  0.00000000000E+00 0.  1.
</event>
<event>
 7    1  0.6105960E-006  0.4614892E+02  0.7818608E-02  0.1503351E+00
          2   -1    0    0  502    0  0.00000000000E+00  0.00000000000E+00  0.64263155074E+03  0.64263155074E+03  0.00000000000E+00 0. -1.
          1   -1    0    0  501    0 -0.00000000000E+00 -0.00000000000E+00 -0.54985697018E+03  0.54985697018E+03  0.00000000000E+00 0. -1.
         25    2    1    2    0    0 -0.92704239881E+01  0.35651405317E+02  0.27584780015E+03  0.30507912453E+03  0.12499719961E+03 0.  0.
          2    1    1    2  501    0  0.35468698744E+02  0.51346055468E+01 -0.53296853111E+03  0.53417211451E+03  0.00000000000E+00 0. -1.
          1    1    1    2  502    0 -0.26198274756E+02 -0.40786010864E+02  0.34989531152E+03  0.35323728188E+03  0.00000000000E+00 0. -1.
         22    1    3    3    0    0 -0.12527849233E+02 -0.14484533518E+02  0.24578519450E+03  0.24653014126E+03  0.00000000000E+00 0.  1.
         22    1    3    3    0    0  0.32574252454E+01  0.50135938835E+02  0.30062605656E+02  0.58548983261E+02  0.00000000000E+00 0.  1.
</event>
<event>
 7    1  0.6105960E-006  0.7342040E+02  0.7818608E-02  0.1355369E+00
          2   -1    0    0  502    0  0.00000000000E+00  0.00000000000E+00  0.84202626647E+03  0.84202626647E+03  0.00000000000E+00 0. -1.
          1   -1    0    0  501    0 -0.00000000000E+00 -0.00000000000E+00 -0.64865381766E+02  0.64865381766E+02  0.00000000000E+00 0. -1.
         25    2    1    2    0    0 -0.37498658883E+02  0.12213292249E+03  0.86807415989E+02  0.19870318303E+03  0.12499930921E+03 0.  0.
          2    1    1    2  501    0  0.46847040509E+02 -0.51271680699E+02  0.18139791999E+03  0.19423860539E+03  0.00000000000E+00 0. -1.
          1    1    1    2  502    0 -0.93483816259E+01 -0.70861241792E+02  0.50895554872E+03  0.51394985982E+03  0.00000000000E+00 0. -1.
         22    1    3    3    0    0 -0.74349087390E+02  0.53759961356E+02  0.78205470044E+02  0.12055710591E+03  0.00000000000E+00 0.  1.
         22    1    3    3    0    0  0.36850428508E+02  0.68372961135E+02  0.86019459454E+01  0.78146077122E+02  0.00000000000E+00 0.  1.
</event>
<event>
 7    1  0.6105960E-006  0.7606014E+02  0.7818608E-02  0.1469711E+00
          2   -1    0    0  502    0  0.00000000000E+00  0.00000000000E+00  0.14829578882E+03  0.14829578882E+03  0.00000000000E+00 0. -1.
          1   -1    0    0  501    0 -0.00000000000E+00 -0.00000000000E+00 -0.11074712724E+04  0.11074712724E+04  0.00000000000E+00 0. -1.
         25    2    1    2    0    0  0.77704787234E+02  0.35297652697E+02 -0.40134447606E+02  0.15658786090E+03  0.12500010421E+03 0.  0.
          2    1    1    2  501    0 -0.29586662492E+01 -0.27359391397E+02 -0.99320388023E+03  0.99358504302E+03  0.00000000000E+00 0. -1.
          1    1    1    2  502    0 -0.74746120984E+02 -0.79382613001E+01  0.74162844241E+02  0.10559415732E+03  0.00000000000E+00 0. -1.
         22    1    3    3    0    0  0.92682914529E+02 -0.73266567072E+01  0.44971183349E+01  0.93080753206E+02  0.00000000000E+00 0. -1.
         22    1    3    3    0    0 -0.14978127295E+02  0.42624309404E+02 -0.44631565941E+02  0.63507107695E+02  0.00000000000E+00 0. -1.
</event>
<event>
 7    1  0.6105960E-006  0.1131461E+03  0.7818608E-02  0.1351823E+00
          2   -1    0    0  502    0  0.00000000000E+00  0.00000000000E+00  0.71575674551E+03  0.71575674551E+03  0.00000000000E+00 0. -1.
          1   -1    0    0  501    0 -0.00000000000E+00 -0.00000000000E+00 -0.74565729132E+03  0.74565729132E+03  0.00000000000E+00 0. -1.
         25    2    1    2    0    0 -0.89776714003E+02 -0.11710243483E+02  0.13546902130E+03  0.20536251409E+03  0.12499967313E+03 0.  0.
          2    1    1    2  501    0  0.10987446880E+03 -0.30159211612E+02 -0.70514040068E+03  0.71428633027E+03  0.00000000000E+00 0. -1.
          1    1    1    2  502    0 -0.20097754797E+02  0.41869455096E+02  0.53977083356E+03  0.54176519247E+03  0.00000000000E+00 0. -1.
         22    1    3    3    0    0 -0.58971771140E+02  0.45489412979E+02  0.11543559137E+03  0.13737660732E+03  0.00000000000E+00 0. -1.
         22    1    3    3    0    0 -0.30804942863E+02 -0.57199656462E+02  0.20033429930E+02  0.67985906767E+02  0.00000000000E+00 0. -1.
</event>
<event>
 7    1  0.6105960E-006  0.4821742E+02  0.7818608E-02  0.1504963E+00
          2   -1    0    0  502    0  0.00000000000E+00  0.00000000000E+00  0.23475234716E+04  0.23475234716E+04  0.00000000000E+00 0. -1.
          1   -1    0    0  501    0 -0.00000000000E+00 -0.00000000000E+00 -0.35205355749E+02  0.35205355749E+02  0.00000000000E+00 0. -1.
         25    2    1    2    0    0 -0.33385915710E+02 -0.69915514988E+02  0.85050028359E+03  0.86312149697E+03  0.12500075017E+03 0.  0.
          2    1    1    2  501    0  0.40335825275E+01  0.33684650419E+02 -0.18441577605E+02  0.38613692474E+02  0.00000000000E+00 0. -1.
          1    1    1    2  502    0  0.29352333183E+02  0.36230864568E+02  0.14802594099E+04  0.14809936379E+04  0.00000000000E+00 0. -1.
         22    1    3    3    0    0 -0.70447381750E+02 -0.81542713258E+02  0.65412309891E+03  0.66293972291E+03  0.00000000000E+00 0.  1.
         22    1    3    3    0    0  0.37061466040E+02  0.11627198271E+02  0.19637718468E+03  0.20018177406E+03  0.00000000000E+00 0.  1.
</event>
<event>
 7    1  0.6105960E-006  0.2936191E+02  0.7818608E-02  0.1611797E+00
          2   -1    0    0  502    0  0.00000000000E+00  0.00000000000E+00  0.64414232455E+03  0.64414232455E+03  0.00000000000E+00 0. -1.
          1   -1    0    0  501    0 -0.00000000000E+00 -0.00000000000E+00 -0.15878391278E+02  0.15878391278E+02  0.00000000000E+00 0. -1.
         25    2    1    2    0    0 -0.13909128141E+02 -0.13632223059E+02  0.53166143654E+03  0.54650564738E+03  0.12500095266E+03 0.  0.
          2    1    1    2  501    0 -0.91239919373E+01  0.29971754551E+02  0.48664488765E+02  0.57877333788E+02  0.00000000000E+00 0. -1.
          1    1    1    2  502    0  0.23033120078E+02 -0.16339531492E+02  0.47938007965E+02  0.55637734655E+02  0.00000000000E+00 0. -1.
         22    1    3    3    0    0 -0.25344937945E+02 -0.58395049874E+02  0.16347871306E+03  0.17543556467E+03  0.00000000000E+00 0.  1.
         22    1    3    3    0    0  0.11435809804E+02  0.44762826815E+02  0.36818272348E+03  0.37107008271E+03  0.00000000000E+00 0.  1.
</event>
<event>
 7    1  0.6105960E-006  0.4466328E+02  0.7818608E-02  0.1513094E+00
          2   -1    0    0  502    0  0.00000000000E+00  0.00000000000E+00  0.37429609977E+03  0.37429609977E+03  0.00000000000E+00 0. -1.
          1   -1    0    0  501    0 -0.00000000000E+00 -0.00000000000E+00 -0.72871161727E+03  0.72871161727E+03  0.00000000000E+00 0. -1.
         25    2    1    2    0    0 -0.37899389086E+02 -0.27045534447E+02  0.94200728890E+02  0.16329565057E+03  0.12499547010E+03 0.  0.
          2    1    1    2  501    0  0.77039371773E+01  0.44058876375E+02 -0.69221579340E+03  0.69365931110E+03  0.00000000000E+00 0. -1.
          1    1    1    2  502    0  0.30195451908E+02 -0.17013341928E+02  0.24359954702E+03  0.24605275537E+03  0.00000000000E+00 0. -1.
         22    1    3    3    0    0 -0.72604096582E+02  0.19636346469E+02  0.53747071328E+02  0.92442893830E+02  0.00000000000E+00 0. -1.
         22    1    3    3    0    0  0.34704707497E+02 -0.46681880916E+02  0.40453657561E+02  0.70852756745E+02  0.00000000000E+00 0. -1.
</event>
<event>
 7    1  0.6105960E-006  0.1278580E+03  0.7818608E-02  0.1427026E+00
          2   -1    0    0  502    0  0.00000000000E+00  0.00000000000E+00  0.12451509560E+04  0.12451509560E+04  0.00000000000E+00 0. -1.
          1   -1    0    0  501    0 -0.00000000000E+00 -0.00000000000E+00 -0.37937422009E+03  0.37937422009E+03  0.00000000000E+00 0. -1.
         25    2    1    2    0    0  0.91237724665E+02 -0.56603212495E+02  0.13667836519E+02  0.16534879132E+03  0.12500066788E+03 0.  0.
          2    1    1    2  501    0  0.14302196977E+02 -0.17288732390E+02 -0.29952201936E+03  0.30036127112E+03  0.00000000000E+00 0. -1.
          1    1    1    2  502    0 -0.10553992164E+03  0.73891944885E+02  0.11516309188E+04  0.11588151136E+04  0.00000000000E+00 0. -1.
         22    1    3    3    0    0  0.78886321299E+02  0.24576837433E+02  0.87333467638E+01  0.83086364537E+02  0.00000000000E+00 0. -1.
         22    1    3    3    0    0  0.12351403366E+02 -0.81180049928E+02  0.49344897552E+01  0.82262426785E+02  0.00000000000E+00 0. -1.
</event>
<event>
 7    1  0.6105960E-006  0.1412998E+03  0.7818608E-02  0.1257723E+00
          2   -1    0    0  502    0  0.00000000000E+00  0.00000000000E+00  0.11340959424E+04  0.11340959424E+04  0.00000000000E+00 0. -1.
          1   -1    0    0  501    0 -0.00000000000E+00 -0.00000000000E+00 -0.70224439476E+02  0.70224439476E+02  0.00000000000E+00 0. -1.
         25    2    1    2    0    0 -0.64061710074E+02  0.35658025018E+02  0.14801793208E+03  0.20713078020E+03  0.12497381503E+03 0.  0.
          2    1    1    2  501    0 -0.87828332754E+02  0.64693052162E+01  0.23673599360E+02  0.91192692969E+02  0.00000000000E+00 0. -1.
          1    1    1    2  502    0  0.15189004283E+03 -0.42127330234E+02  0.89217997145E+03  0.90599690867E+03  0.00000000000E+00 0. -1.
         22    1    3    3    0    0 -0.29488149776E+02  0.74201343088E+02  0.44557227963E+02  0.91437065007E+02  0.00000000000E+00 0. -1.
         22    1    3    3    0    0 -0.34573560298E+02 -0.38543318070E+02  0.10346070411E+03  0.11569371519E+03  0.00000000000E+00 0. -1.
</event>
<event>
 7    1  0.6105960E-006  0.9398565E+02  0.7818608E-02  0.1395266E+00
          2   -1    0    0  502    0  0.00000000000E+00  0.00000000000E+00  0.55208379156E+02  0.55208379156E+02  0.00000000000E+00 0. -1.
          1   -1    0    0  501    0 -0.00000000000E+00 -0.00000000000E+00 -0.98951278133E+03  0.98951278133E+03  0.00000000000E+00 0. -1.
         25    2    1    2    0    0 -0.42154119103E+02 -0.58516525881E+02 -0.37156208826E+03  0.39860259855E+03  0.12499797028E+03 0.  0.
          2    1    1    2  501    0 -0.38924918619E+02  0.36307280237E+01 -0.54526108872E+03  0.54666075984E+03  0.00000000000E+00 0. -1.
          1    1    1    2  502    0  0.81079037722E+02  0.54885797857E+02 -0.17481225191E+02  0.99457802100E+02  0.00000000000E+00 0. -1.
         22    1    3    3    0    0 -0.36586454725E+02 -0.91405519339E+02 -0.33473621950E+03  0.34891528239E+03  0.00000000000E+00 0. -1.
         22    1    3    3    0    0 -0.55676643779E+01  0.32888993458E+02 -0.36825868757E+02  0.49687316158E+02  0.00000000000E+00 0. -1.
</event>
<event>
 7    1  0.6105960E-006  0.5761408E+02  0.7818608E-02  0.1537726E+00
          2   -1    0    0  502    0  0.00000000000E+00  0.00000000000E+00  0.12024349376E+04  0.12024349376E+04  0.00000000000E+00 0. -1.
          1   -1    0    0  501    0 -0.00000000000E+00 -0.00000000000E+00 -0.55247611631E+02  0.55247611631E+02  0.00000000000E+00 0. -1.
         25    2    1    2    0    0 -0.33642204198E+02 -0.53185204301E+02  0.97231387552E+02  0.17040882071E+03  0.12499903835E+03 0.  0.
          2    1    1    2  501    0  0.10981753605E+02  0.55835564650E+02  0.25152256257E+02  0.62216116778E+02  0.00000000000E+00 0. -1.
          1    1    1    2  502    0  0.22660450593E+02 -0.26503603491E+01  0.10248036821E+04  0.10250576117E+04  0.00000000000E+00 0. -1.
         22    1    3    3    0    0 -0.84939619586E+01  0.56143610460E+01  0.10544176064E+03  0.10593221100E+03  0.00000000000E+00 0. -1.
         22    1    3    3    0    0 -0.25148242240E+02 -0.58799565347E+02 -0.82103730922E+01  0.64476609705E+02  0.00000000000E+00 0. -1.
</event>
<event>
 7    1  0.6105960E-006  0.5956020E+02  0.7818608E-02  0.1431385E+00
          2   -1    0    0  502    0  0.00000000000E+00  0.00000000000E+00  0.16688343679E+04  0.16688343679E+04  0.00000000000E+00 0. -1.
          1   -1    0    0  501    0 -0.00000000000E+00 -0.00000000000E+00 -0.49628103417E+03  0.49628103417E+03  0.00000000000E+00 0. -1.
         25    2    1    2    0    0  0.38572838745E+02  0.13625314405E+02  0.32887854027E+03  0.35420355197E+03  0.12500219559E+03 0.  0.
          2    1    1    2  501    0 -0.19913908864E+02 -0.56326400265E+02 -0.48136231495E+03  0.48505556938E+03  0.00000000000E+00 0. -1.
          1    1    1    2  502    0 -0.18658929882E+02  0.42701085861E+02  0.13250371085E+04  0.13258562807E+04  0.00000000000E+00 0. -1.
         22    1    3    3    0    0  0.13680267686E+02  0.43818144797E+02  0.34983932462E+02  0.57715293190E+02  0.00000000000E+00 0. -1.
         22    1    3    3    0    0  0.24892571059E+02 -0.30192830393E+02  0.29389460780E+03  0.29648825878E+03  0.00000000000E+00 0. -1.
</event>
<event>
 7    1  0.6105960E-006  0.5871496E+02  0.7818608E-02  0.1406571E+00
          2   -1    0    0  502    0  0.00000000000E+00  0.00000000000E+00  0.12117331007E+04  0.12117331007E+04  0.00000000000E+00 0. -1.
          1   -1    0    0  501    0 -0.00000000000E+00 -0.00000000000E+00 -0.17269512067E+03  0.17269512067E+03  0.00000000000E+00 0. -1.
         25    2    1    2    0    0  0.92319756550E+01  0.16664111327E+02 -0.35679408324E+02  0.13137629063E+03  0.12499515023E+03 0.  0.
          2    1    1    2  501    0 -0.51654749326E+02  0.24630754289E+02 -0.79147693884E+02  0.97669056676E+02  0.00000000000E+00 0. -1.
          1    1    1    2  502    0  0.42422773671E+02 -0.41294865616E+02  0.11538650823E+04  0.11553828741E+04  0.00000000000E+00 0. -1.
         22    1    3    3    0    0  0.21381906809E+02  0.24528630250E+02 -0.79140310241E+02  0.85568851493E+02  0.00000000000E+00 0. -1.
         22    1    3    3    0    0 -0.12149931154E+02 -0.78645189230E+01  0.43460901917E+02  0.45807439138E+02  0.00000000000E+00 0. -1.
</event>
<event>
 7    1  0.6105960E-006  0.1411217E+03  0.7818608E-02  0.1419115E+00
          2   -1    0    0  502    0  0.00000000000E+00  0.00000000000E+00  0.45356442712E+03  0.45356442712E+03  0.00000000000E+00 0. -1.
          1   -1    0    0  501    0 -0.00000000000E+00 -0.00000000000E+00 -0.95233913561E+03  0.95233913561E+03  0.00000000000E+00 0. -1.
         25    2    1    2    0    0  0.42418178971E+02 -0.13226305305E+03  0.32452946945E+03  0.37448289938E+03  0.12500099311E+03 0.  0.
          2    1    1    2  501    0 -0.63166052924E+02  0.12626175362E+03 -0.92080041784E+03  0.93156072812E+03  0.00000000000E+00 0. -1.
          1    1    1    2  502    0  0.20747873953E+02  0.60012994292E+01  0.97496239903E+02  0.99859935228E+02  0.00000000000E+00 0. -1.
         22    1    3    3    0    0  0.20463781890E+02  0.21476006897E+02  0.34560934560E+02  0.45546058437E+02  0.00000000000E+00 0. -1.
         22    1    3    3    0    0  0.21954397081E+02 -0.15373905994E+03  0.28996853489E+03  0.32893684094E+03  0.00000000000E+00 0. -1.
</event>
<event>
 7    1  0.6105960E-006  0.1107503E+03  0.7818608E-02  0.1461809E+00
          2   -1    0    0  502    0  0.00000000000E+00  0.00000000000E+00  0.21773932258E+03  0.21773932258E+03  0.00000000000E+00 0. -1.
          1   -1    0    0  501    0 -0.00000000000E+00 -0.00000000000E+00 -0.19376297480E+04  0.19376297480E+04  0.00000000000E+00 0. -1.
         25    2    1    2    0    0 -0.10423726303E+03  0.62783441551E+02 -0.21911290914E+03  0.28007581278E+03  0.12499930567E+03 0.  0.
          2    1    1    2  501    0  0.85420424372E+02 -0.69579737997E+02 -0.16856976066E+04  0.16892940566E+04  0.00000000000E+00 0. -1.
          1    1    1    2  502    0  0.18816838662E+02  0.67962964455E+01  0.18492009028E+03  0.18599920121E+03  0.00000000000E+00 0. -1.
         22    1    3    3    0    0  0.25235758987E+02  0.32195668276E+02 -0.42837593556E+02  0.59232288569E+02  0.00000000000E+00 0.  1.
         22    1    3    3    0    0 -0.12947302202E+03  0.30587773275E+02 -0.17627531558E+03  0.22084352422E+03  0.00000000000E+00 0.  1.
</event>
<event>
 7    1  0.6105960E-006  0.5762722E+02  0.7818608E-02  0.1434605E+00
          2   -1    0    0  502    0  0.00000000000E+00  0.00000000000E+00  0.75893453780E+02  0.75893453780E+02  0.00000000000E+00 0. -1.
          1   -1    0    0  501    0 -0.00000000000E+00 -0.00000000000E+00 -0.30527037541E+03  0.30527037541E+03  0.00000000000E+00 0. -1.
         25    2    1    2    0    0 -0.19186918935E+02 -0.39852643579E+02 -0.59672983689E+02  0.14540391879E+03  0.12500025424E+03 0.  0.
          2    1    1    2  501    0  0.59088658374E+02  0.15004048343E+02 -0.17788969381E+03  0.18804609589E+03  0.00000000000E+00 0. -1.
          1    1    1    2  502    0 -0.39901739439E+02  0.24848595235E+02  0.81857558727E+01  0.47713814505E+02  0.00000000000E+00 0. -1.
         22    1    3    3    0    0 -0.63535386079E+02  0.97882881710E+01 -0.17578290226E+02  0.66644970980E+02  0.00000000000E+00 0.  1.
         22    1    3    3    0    0  0.44348467145E+02 -0.49640931750E+02 -0.42094693463E+02  0.78758947814E+02  0.00000000000E+00 0.  1.
</event>
<event>
 7    1  0.6105960E-006  0.1245948E+03  0.7818608E-02  0.1281597E+00
          2   -1    0    0  502    0  0.00000000000E+00  0.00000000000E+00  0.27301302768E+04  0.27301302768E+04  0.00000000000E+00 0. -1.
          1   -1    0    0  501    0 -0.00000000000E+00 -0.00000000000E+00 -0.41186999650E+02  0.41186999650E+02  0.00000000000E+00 0. -1.
         25    2    1    2    0    0 -0.76912342710E+02  0.15610546942E+03  0.60590119202E+03  0.64266279563E+03  0.12495914671E+03 0.  0.
          2    1    1    2  501    0  0.70999246679E+02 -0.35262536903E+02  0.53793387072E+02  0.95802233953E+02  0.00000000000E+00 0. -1.
          1    1    1    2  502    0  0.59130960311E+01 -0.12084293251E+03  0.20292486981E+04  0.20328522469E+04  0.00000000000E+00 0. -1.
         22    1    3    3    0    0  0.16307554692E+02  0.41902937911E+02  0.29704032210E+03  0.30042427581E+03  0.00000000000E+00 0. -1.
         22    1    3    3    0    0 -0.93219897401E+02  0.11420253151E+03  0.30886086993E+03  0.34223851982E+03  0.00000000000E+00 0. -1.
</event>
<event>
 7    1  0.6105960E-006  0.4168027E+02  0.7818608E-02  0.1569512E+00
          2   -1    0    0  502    0  0.00000000000E+00  0.00000000000E+00  0.12383550744E+04  0.12383550744E+04  0.00000000000E+00 0. -1.
          1   -1    0    0  501    0 -0.00000000000E+00 -0.00000000000E+00 -0.13517114919E+04  0.13517114919E+04  0.00000000000E+00 0. -1.
         25    2    1    2    0    0  0.36749828498E+01 -0.49921324632E+02 -0.11350329973E+04  0.11429906459E+04  0.12498826946E+03 0.  0.
          2    1    1    2  501    0  0.20297341709E+02  0.15825284598E+02 -0.21156772873E+03  0.21312748662E+03  0.00000000000E+00 0. -1.
          1    1    1    2  502    0 -0.23972324559E+02  0.34096040034E+02  0.12332443087E+04  0.12339484337E+04  0.00000000000E+00 0. -1.
         22    1    3    3    0    0  0.14106650616E+02 -0.17417126659E+02 -0.30088540451E+02  0.37518983983E+02  0.00000000000E+00 0.  1.
         22    1    3    3    0    0 -0.10431667767E+02 -0.32504197973E+02 -0.11049444569E+04  0.11054716620E+04  0.00000000000E+00 0.  1.
</event>
<event>
 7    1  0.6105960E-006  0.5198580E+02  0.7818608E-02  0.1560943E+00
          2   -1    0    0  502    0  0.00000000000E+00  0.00000000000E+00  0.73354322490E+03  0.73354322490E+03  0.00000000000E+00 0. -1.
          1   -1    0    0  501    0 -0.00000000000E+00 -0.00000000000E+00 -0.41483086652E+03  0.41483086652E+03  0.00000000000E+00 0. -1.
         25    2    1    2    0    0 -0.54943445611E+02 -0.24592891370E+02 -0.16345190710E+03  0.21439641151E+03  0.12500281121E+03 0.  0.
          2    1    1    2  501    0  0.51340182093E+02  0.31138971729E+01 -0.22280869911E+03  0.22866837790E+03  0.00000000000E+00 0. -1.
          1    1    1    2  502    0  0.36032635181E+01  0.21478994198E+02  0.70497296459E+03  0.70530930201E+03  0.00000000000E+00 0. -1.
         22    1    3    3    0    0  0.23487343328E+02  0.22702008410E+02 -0.74622681901E+01  0.33507042976E+02  0.00000000000E+00 0. -1.
         22    1    3    3    0    0 -0.78430788939E+02 -0.47294899780E+02 -0.15598963891E+03  0.18088936853E+03  0.00000000000E+00 0. -1.
</event>
<event>
 7    1  0.6105960E-006  0.6771208E+02  0.7818608E-02  0.1396287E+00
          2   -1    0    0  502    0  0.00000000000E+00  0.00000000000E+00  0.25905161890E+04  0.25905161890E+04  0.00000000000E+00 0. -1.
          1   -1    0    0  501    0 -0.00000000000E+00 -0.00000000000E+00 -0.85886026681E+03  0.85886026681E+03  0.00000000000E+00 0. -1.
         25    2    1    2    0    0  0.26044062577E+02  0.52509042027E+02  0.93618639440E+02  0.16681160916E+03  0.12500468235E+03 0.  0.
          2    1    1    2  501    0  0.40015572458E+02 -0.35995810338E+02 -0.82091118713E+03  0.82267376375E+03  0.00000000000E+00 0. -1.
          1    1    1    2  502    0 -0.66059635035E+02 -0.16513231689E+02  0.24589484699E+04  0.24598910829E+04  0.00000000000E+00 0. -1.
         22    1    3    3    0    0  0.24385101072E+02  0.64644110100E+02 -0.32546752900E+01  0.69167095039E+02  0.00000000000E+00 0. -1.
         22    1    3    3    0    0  0.16589615051E+01 -0.12135068073E+02  0.96873314730E+02  0.97644514117E+02  0.00000000000E+00 0. -1.
</event>
<event>
 7    1  0.6105960E-006  0.3602986E+02  0.7818608E-02  0.1565174E+00
          2   -1    0    0  502    0  0.00000000000E+00  0.00000000000E+00  0.66297857313E+03  0.66297857313E+03  0.00000000000E+00 0. -1.
          1   -1    0    0  501    0 -0.00000000000E+00 -0.00000000000E+00 -0.52343089199E+03  0.52343089199E+03  0.00000000000E+00 0. -1.
         25    2    1    2    0    0  0.12569648222E+02  0.25844488349E+02 -0.21915257413E+02  0.13011792682E+03  0.12499785093E+03 0.  0.
          2    1    1    2  501    0  0.23127205965E+02 -0.20030880106E+02 -0.44635306504E+03  0.44740044980E+03  0.00000000000E+00 0. -1.
          1    1    1    2  502    0 -0.35696854187E+02 -0.58136082428E+01  0.60781600359E+03  0.60889108850E+03  0.00000000000E+00 0. -1.
         22    1    3    3    0    0  0.16568716815E+02  0.20924229719E+02 -0.73473660243E+02  0.78171123286E+02  0.00000000000E+00 0.  1.
         22    1    3    3    0    0 -0.39990685928E+01  0.49202586293E+01  0.51558402830E+02  0.51946803530E+02  0.00000000000E+00 0.  1.
</event>
<event>
 7    1  0.6105960E-006  0.4850531E+02  0.7818608E-02  0.1514552E+00
          2   -1    0    0  502    0  0.00000000000E+00  0.00000000000E+00  0.30992617082E+03  0.30992617082E+03  0.00000000000E+00 0. -1.
          1   -1    0    0  501    0 -0.00000000000E+00 -0.00000000000E+00 -0.96088658425E+03  0.96088658425E+03  0.00000000000E+00 0. -1.
         25    2    1    2    0    0  0.67685765983E+02  0.37943089138E+02  0.12478835866E+03  0.19290170359E+03  0.12497156420E+03 0.  0.
          2    1    1    2  501    0 -0.36751101844E+02 -0.31487596001E+02 -0.92453760601E+03  0.92580337930E+03  0.00000000000E+00 0. -1.
          1    1    1    2  502    0 -0.30934664139E+02 -0.64554931369E+01  0.14878883392E+03  0.15210767219E+03  0.00000000000E+00 0. -1.
         22    1    3    3    0    0  0.24586769403E+02  0.65896711583E+02  0.12277215159E+03  0.14149165005E+03  0.00000000000E+00 0. -1.
         22    1    3    3    0    0  0.43098996580E+02 -0.27953622445E+02  0.20162070708E+01  0.51410053539E+02  0.00000000000E+00 0. -1.
</event>
<event>
 7    1  0.6105960E-006  0.6379552E+02  0.7818608E-02  0.1451162E+00
          2   -1    0    0  502    0  0.00000000000E+00  0.00000000000E+00  0.30890050186E+03  0.30890050186E+03  0.00000000000E+00 0. -1.
          1   -1    0    0  501    0 -0.00000000000E+00 -0.00000000000E+00 -0.79683822216E+03  0.79683822216E+03  0.00000000000E+00 0. -1.
         25    2    1    2    0    0 -0.34488920309E+01  0.43942425482E+02 -0.17517233769E+03  0.21966627244E+03  0.12500036697E+03 0.  0.
          2    1    1    2  501    0 -0.31345865473E+02 -0.58030954122E+02 -0.59636402319E+03  0.60000016923E+03  0.00000000000E+00 0. -1.
          1    1    1    2  502    0  0.34794757504E+02  0.14088528641E+02  0.28359864058E+03  0.28607228235E+03  0.00000000000E+00 0. -1.
         22    1    3    3    0    0  0.45966475291E+02  0.54355426230E+02 -0.57132406747E+02  0.91277275989E+02  0.00000000000E+00 0. -1.
         22    1    3    3    0    0 -0.49415367322E+02 -0.10413000748E+02 -0.11803993094E+03  0.12838899645E+03  0.00000000000E+00 0. -1.
</event>
<event>
 7    1  0.6105960E-006  0.1133853E+03  0.7818608E-02  0.1395376E+00
          2   -1    0    0  502    0  0.00000000000E+00  0.00000000000E+00  0.95432776832E+03  0.95432776832E+03  0.00000000000E+00 0. -1.
          1   -1    0    0  501    0 -0.00000000000E+00 -0.00000000000E+00 -0.12764821227E+03  0.12764821227E+03  0.00000000000E+00 0. -1.
         25    2    1    2    0    0 -0.13235331915E+03  0.39737278216E+02  0.54819357760E+02  0.19423291394E+03  0.12499924202E+03 0.  0.
          2    1    1    2  501    0  0.31206735496E+02  0.86249426365E+01 -0.49291153287E+02  0.58973449689E+02  0.00000000000E+00 0. -1.
          1    1    1    2  502    0  0.10114658365E+03 -0.48362220853E+02  0.82115135158E+03  0.82876961695E+03  0.00000000000E+00 0. -1.
         22    1    3    3    0    0 -0.11466206842E+03  0.81588313589E+02  0.45008377856E+02  0.14774910127E+03  0.00000000000E+00 0. -1.
         22    1    3    3    0    0 -0.17691250727E+02 -0.41851035372E+02  0.98109799041E+01  0.46483812674E+02  0.00000000000E+00 0. -1.
</event>
<event>
 7    1  0.6105960E-006  0.4085515E+02  0.7818608E-02  0.1535103E+00
          2   -1    0    0  502    0  0.00000000000E+00  0.00000000000E+00  0.14583183650E+04  0.14583183650E+04  0.00000000000E+00 0. -1.
          1   -1    0    0  501    0 -0.00000000000E+00 -0.00000000000E+00 -0.69420749720E+03  0.69420749720E+03  0.00000000000E+00 0. -1.
         25    2    1    2    0    0 -0.63692994773E+02  0.30885064074E+02 -0.23416789613E+03  0.27470679744E+03  0.12497414220E+03 0.  0.
          2    1    1    2  501    0  0.31782473417E+02 -0.23605009289E+02 -0.43869242928E+03  0.44047516342E+03  0.00000000000E+00 0. -1.
          1    1    1    2  502    0  0.31910521357E+02 -0.72800547847E+01  0.14369711932E+04  0.14373439013E+04  0.00000000000E+00 0. -1.
         22    1    3    3    0    0 -0.89592236636E+02  0.23511652729E+02 -0.93971793420E+02  0.13194796186E+03  0.00000000000E+00 0. -1.
         22    1    3    3    0    0  0.25899241863E+02  0.73734113447E+01 -0.14019610271E+03  0.14275883559E+03  0.00000000000E+00 0. -1.
</event>
<event>
 7    1  0.6105960E-006  0.1004329E+03  0.7818608E-02  0.1379375E+00
          2   -1    0    0  502    0  0.00000000000E+00  0.00000000000E+00  0.17966114438E+04  0.17966114438E+04  0.00000000000E+00 0. -1.
          1   -1    0    0  501    0 -0.00000000000E+00 -0.00000000000E+00 -0.35736865256E+03  0.35736865256E+03  0.00000000000E+00 0. -1.
         25    2    1    2    0    0  0.10292980886E+03  0.61913021906E+02  0.26564472385E+02  0.17538007508E+03  0.12499892683E+03 0.  0.
          2    1    1    2  501    0 -0.49034773698E+01 -0.41298113493E+02 -0.27994396044E+03  0.28301625264E+03  0.00000000000E+00 0. -1.
          1    1    1    2  502    0 -0.98026331486E+02 -0.20614908413E+02  0.16926222793E+04  0.16955837686E+04  0.00000000000E+00 0. -1.
         22    1    3    3    0    0 -0.17745858632E+00  0.55236618838E+02 -0.24145492171E+02  0.60283665652E+02  0.00000000000E+00 0.  1.
         22    1    3    3    0    0  0.10310726744E+03  0.66764030676E+01  0.50709964556E+02  0.11509640943E+03  0.00000000000E+00 0.  1.
</event>
<event>
 7    1  0.6105960E-006  0.4547394E+02  0.7818608E-02  0.1594231E+00
          2   -1    0    0  502    0  0.00000000000E+00  0.00000000000E+00  0.87728528378E+03  0.87728528378E+03  0.00000000000E+00 0. -1.
          1   -1    0    0  501    0 -0.00000000000E+00 -0.00000000000E+00 -0.77014986121E+02  0.77014986121E+02  0.00000000000E+00 0. -1.
         25    2    1    2    0    0 -0.30756742061E+02 -0.26982254372E+01  0.55977886714E+03  0.57439548192E+03  0.12499812777E+03 0.  0.
          2    1    1    2  501    0 -0.16826260905E+02 -0.11282152744E+02 -0.66199454120E+02  0.69229890599E+02  0.00000000000E+00 0. -1.
          1    1    1    2  502    0  0.47583002966E+02  0.13980378182E+02  0.30669088464E+03  0.31067489739E+03  0.00000000000E+00 0. -1.
         22    1    3    3    0    0  0.20792325210E+02 -0.30150618116E+02  0.53956558288E+02  0.65212657842E+02  0.00000000000E+00 0. -1.
         22    1    3    3    0    0 -0.51549067272E+02  0.27452392679E+02  0.50582230885E+03  0.50918282407E+03  0.00000000000E+00 0. -1.
</event>
<event>
 7    1  0.6105960E-006  0.8561084E+02  0.7818608E-02  0.1357289E+00
          2   -1    0    0  502    0  0.00000000000E+00  0.00000000000E+00  0.23296395097E+04  0.23296395097E+04  0.00000000000E+00 0. -1.
          1   -1    0    0  501    0 -0.00000000000E+00 -0.00000000000E+00 -0.61522824345E+02  0.61522824345E+02  0.00000000000E+00 0. -1.
         25    2    1    2    0    0 -0.30224774503E+02 -0.68915920253E+02  0.19112254805E+03  0.24044629424E+03  0.12499460381E+03 0.  0.
          2    1    1    2  501    0 -0.24888393780E+02  0.88837130694E+02  0.21945267872E+02  0.94831760064E+02  0.00000000000E+00 0. -1.
          1    1    1    2  502    0  0.55113168283E+02 -0.19921210441E+02  0.20550488694E+04  0.20558842797E+04  0.00000000000E+00 0. -1.
         22    1    3    3    0    0 -0.14229995965E+01 -0.64159375363E+02  0.20537213807E+02  0.67381210480E+02  0.00000000000E+00 0. -1.
         22    1    3    3    0    0 -0.28801774906E+02 -0.47565448899E+01  0.17058533425E+03  0.17306508376E+03  0.00000000000E+00 0. -1.
</event>
<event>
 7    1  0.6105960E-006  0.4777389E+02  0.7818608E-02  0.1571332E+00
          2   -1    0    0  502    0  0.00000000000E+00  0.00000000000E+00  0.15275009065E+04  0.15275009065E+04  0.00000000000E+00 0. -1.
          1   -1    0    0  501    0 -0.00000000000E+00 -0.00000000000E+00 -0.28578840740E+04  0.28578840740E+04  0.00000000000E+00 0. -1.
         25    2    1    2    0    0  0.20377468068E+02 -0.64403739504E+02 -0.55186045303E+03  0.56985832303E+03  0.12500186337E+03 0.  0.
          2    1    1    2  501    0 -0.21240923715E+02  0.42219852854E+02 -0.22967004130E+04  0.22971866445E+04  0.00000000000E+00 0. -1.
          1    1    1    2  502    0  0.86345564688E+00  0.22183886649E+02  0.15181776986E+04  0.15183400129E+04  0.00000000000E+00 0. -1.
         22    1    3    3    0    0 -0.29629338127E+01 -0.61964153836E+02 -0.10197897588E+03  0.11936518278E+03  0.00000000000E+00 0. -1.
         22    1    3    3    0    0  0.23340401881E+02 -0.24395856673E+01 -0.44988147715E+03  0.45049314025E+03  0.00000000000E+00 0. -1.
</event>
<event>
 7    1  0.6105960E-006  0.5982853E+02  0.7818608E-02  0.1535613E+00
          2   -1    0    0  502    0  0.00000000000E+00  0.00000000000E+00  0.78618293058E+03  0.78618293058E+03  0.00000000000E+00 0. -1.
          1   -1    0    0  501    0 -0.00000000000E+00 -0.00000000000E+00 -0.91105581140E+02  0.91105581140E+02  0.00000000000E+00 0. -1.
         25    2    1    2    0    0  0.26798946919E+02  0.57235120507E+02  0.72726260617E+02  0.15782230074E+03  0.12499890821E+03 0.  0.
          2    1    1    2  501    0 -0.22143197813E+02  0.24295299460E+01 -0.44590408757E+02  0.49845043668E+02  0.00000000000E+00 0. -1.
          1    1    1    2  502    0 -0.46557491069E+01 -0.59664650453E+02  0.66694149758E+03  0.66962116731E+03  0.00000000000E+00 0. -1.
         22    1    3    3    0    0  0.19088683671E+02  0.78534479376E+02 -0.86295160952E+00  0.80825657935E+02  0.00000000000E+00 0. -1.
         22    1    3    3    0    0  0.77102632483E+01 -0.21299358869E+02  0.73589212226E+02  0.76996642808E+02  0.00000000000E+00 0. -1.
</event>
<event>
 7    1  0.8492943E-006  0.4356171E+02  0.7818608E-02  0.1509166E+00
          2   -1    0    0  502    0  0.00000000000E+00  0.00000000000E+00  0.26348375501E+04  0.26348375501E+04  0.00000000000E+00 0. -1.
          1   -1    0    0  501    0 -0.00000000000E+00 -0.00000000000E+00 -0.10873337720E+04  0.10873337720E+04  0.00000000000E+00 0. -1.
         25    2    1    2    0    0  0.16111947592E+02  0.10282787119E+02 -0.23770915499E+03  0.26924930308E+03  0.12499685708E+03 0.  0.
          2    1    1    2  501    0 -0.37544273937E+01 -0.44618888308E+02 -0.83312620223E+03  0.83432859819E+03  0.00000000000E+00 0. -1.
          1    1    1    2  502    0 -0.12357520198E+02  0.34336101188E+02  0.26183391353E+04  0.26185934208E+04  0.00000000000E+00 0. -1.
         22    1    3    3    0    0  0.59719881410E+02  0.40573250454E+02 -0.15459394831E+03  0.17062221937E+03  0.00000000000E+00 0.  1.
         22    1    3    3    0    0 -0.43607933818E+02 -0.30290463335E+02 -0.83115206680E+02  0.98627083716E+02  0.00000000000E+00 0.  1.
</event>
<event>
 7    1  0.6105960E-006  0.5842995E+02  0.7818608E-02  0.1464587E+00
          2   -1    0    0  502    0  0.00000000000E+00  0.00000000000E+00  0.23203491599E+03  0.23203491599E+03  0.00000000000E+00 0. -1.
          1   -1    0    0  501    0 -0.00000000000E+00 -0.00000000000E+00 -0.12101993532E+04  0.12101993532E+04  0.00000000000E+00 0. -1.
         25    2    1    2    0    0  0.33314477585E+02 -0.22994668298E+02 -0.40861488514E+02  0.13759790163E+03  0.12499964841E+03 0.  0.
          2    1    1    2  501    0 -0.58711768104E+02 -0.41410575357E+01 -0.11183075365E+04  0.11198553327E+04  0.00000000000E+00 0. -1.
          1    1    1    2  502    0  0.25397290519E+02  0.27135725834E+02  0.18100458786E+03  0.18478103476E+03  0.00000000000E+00 0. -1.
         22    1    3    3    0    0  0.57442104595E+02 -0.62383441523E+02 -0.21300701947E+02  0.87435742463E+02  0.00000000000E+00 0.  1.
         22    1    3    3    0    0 -0.24127627010E+02  0.39388773225E+02 -0.19560786567E+02  0.50162159169E+02  0.00000000000E+00 0.  1.
</event>
<event>
 7    1  0.6105960E-006  0.5914878E+02  0.7818608E-02  0.1430369E+00
          2   -1    0    0  502    0  0.00000000000E+00  0.00000000000E+00  0.13218628421E+02  0.13218628421E+02  0.00000000000E+00 0. -1.
          1   -1    0    0  501    0 -0.00000000000E+00 -0.00000000000E+00 -0.20363310592E+04  0.20363310592E+04  0.00000000000E+00 0. -1.
         25    2    1    2    0    0  0.95090722960E+02  0.40343291045E+02 -0.14687615480E+04  0.14776860603E+04  0.12500312480E+03 0.  0.
          2    1    1    2  501    0 -0.43931780803E+02 -0.17492878862E+02 -0.45777778608E+03  0.46021354131E+03  0.00000000000E+00 0. -1.
          1    1    1    2  502    0 -0.51158942157E+02 -0.22850412182E+02 -0.96573096703E+02  0.11165008601E+03  0.00000000000E+00 0. -1.
         22    1    3    3    0    0  0.45824199595E+02 -0.25102024711E+02 -0.21524479057E+03  0.22149557283E+03  0.00000000000E+00 0.  1.
         22    1    3    3    0    0  0.49266523365E+02  0.65445315756E+02 -0.12535167574E+04  0.12561904874E+04  0.00000000000E+00 0.  1.
</event>
<event>
 7    1  0.6105960E-006  0.6774364E+02  0.7818608E-02  0.1473898E+00
          2   -1    0    0  502    0  0.00000000000E+00  0.00000000000E+00  0.13567395325E+04  0.13567395325E+04  0.00000000000E+00 0. -1.
          1   -1    0    0  501    0 -0.00000000000E+00 -0.00000000000E+00 -0.21547645160E+03  0.21547645160E+03  0.00000000000E+00 0. -1.
         25    2    1    2    0    0  0.35918244915E+02  0.25826708408E+02  0.58038748608E+02  0.14475892097E+03  0.12501803741E+03 0.  0.
          2    1    1    2  501    0 -0.42324888222E+02 -0.55121101066E+02 -0.16491372105E+03  0.17895884258E+03  0.00000000000E+00 0. -1.
          1    1    1    2  502    0  0.64066433069E+01  0.29294392658E+02  0.12481380534E+04  0.12484982206E+04  0.00000000000E+00 0. -1.
         22    1    3    3    0    0  0.23153812143E+02 -0.25608073473E+02 -0.27497696972E+02  0.44136105204E+02  0.00000000000E+00 0. -1.
         22    1    3    3    0    0  0.12764432772E+02  0.51434781881E+02  0.85536445580E+02  0.10062281577E+03  0.00000000000E+00 0. -1.
</event>
<event>
 7    1  0.6105960E-006  0.1322610E+03  0.7818608E-02  0.1307152E+00
          2   -1    0    0  502    0  0.00000000000E+00  0.00000000000E+00  0.66272333764E+03  0.66272333764E+03  0.00000000000E+00 0. -1.
          1   -1    0    0  501    0 -0.00000000000E+00 -0.00000000000E+00 -0.19311154228E+03  0.19311154228E+03  0.00000000000E+00 0. -1.
         25    2    1    2    0    0  0.25839987811E+02  0.83477342672E+02  0.40245443591E+03  0.43038269583E+03  0.12499408057E+03 0.  0.
          2    1    1    2  501    0 -0.78160714505E+02 -0.11048636945E+03 -0.14907602360E+03  0.20134546416E+03  0.00000000000E+00 0. -1.
          1    1    1    2  502    0  0.52320726695E+02  0.27009026777E+02  0.21623338305E+03  0.22410671993E+03  0.00000000000E+00 0. -1.
         22    1    3    3    0    0  0.62148814535E+02  0.86525999956E+02  0.22138817938E+03  0.24568669029E+03  0.00000000000E+00 0.  1.
         22    1    3    3    0    0 -0.36308826724E+02 -0.30486572836E+01  0.18106625653E+03  0.18469600554E+03  0.00000000000E+00 0.  1.
</event>
<event>
 7    1  0.6105960E-006  0.1580014E+03  0.7818608E-02  0.1257264E+00
          2   -1    0    0  502    0  0.00000000000E+00  0.00000000000E+00  0.98701304877E+02  0.98701304877E+02  0.00000000000E+00 0. -1.
          1   -1    0    0  501    0 -0.00000000000E+00 -0.00000000000E+00 -0.13221711339E+04  0.13221711339E+04  0.00000000000E+00 0. -1.
         25    2    1    2    0    0  0.11962942924E+03  0.40864466218E+02 -0.42753952123E+03  0.46303179587E+03  0.12500918701E+03 0.  0.
          2    1    1    2  501    0 -0.17796122742E+03  0.12582750268E+02 -0.84573959560E+03  0.86435177308E+03  0.00000000000E+00 0. -1.
          1    1    1    2  502    0  0.58331798179E+02 -0.53447216486E+02  0.49809287805E+02  0.93488869822E+02  0.00000000000E+00 0. -1.
         22    1    3    3    0    0  0.46713815016E+02  0.59438179635E+02 -0.91592122233E+02  0.11876108187E+03  0.00000000000E+00 0.  1.
         22    1    3    3    0    0  0.72915614220E+02 -0.18573713418E+02 -0.33594739899E+03  0.34427071400E+03  0.00000000000E+00 0.  1.
</event>
<event>
 7    1  0.6105960E-006  0.5954175E+02  0.7818608E-02  0.1474544E+00
          2   -1    0    0  502    0  0.00000000000E+00  0.00000000000E+00  0.32073915690E+03  0.32073915690E+03  0.00000000000E+00 0. -1.
          1   -1    0    0  501    0 -0.00000000000E+00 -0.00000000000E+00 -0.38254855714E+04  0.38254855714E+04  0.00000000000E+00 0. -1.
         25    2    1    2    0    0  0.73249951144E+02 -0.47647467786E+02 -0.81607106527E+03  0.83020005734E+03  0.12499726039E+03 0.  0.
          2    1    1    2  501    0 -0.55443955055E+02  0.18728935651E+02 -0.30011446962E+04  0.30017152251E+04  0.00000000000E+00 0. -1.
          1    1    1    2  502    0 -0.17805996089E+02  0.28918532135E+02  0.31246934694E+03  0.31430944588E+03  0.00000000000E+00 0. -1.
         22    1    3    3    0    0  0.10380863889E+03 -0.48737860277E+02 -0.72786778540E+03  0.73684674495E+03  0.00000000000E+00 0.  1.
         22    1    3    3    0    0 -0.30558687746E+02  0.10903924914E+01 -0.88203279879E+02  0.93353312389E+02  0.00000000000E+00 0.  1.
</event>
<event>
 7    1  0.6105960E-006  0.6150932E+02  0.7818608E-02  0.1422714E+00
          2   -1    0    0  502    0  0.00000000000E+00  0.00000000000E+00  0.11021947451E+04  0.11021947451E+04  0.00000000000E+00 0. -1.
          1   -1    0    0  501    0 -0.00000000000E+00 -0.00000000000E+00 -0.66142504935E+03  0.66142504935E+03  0.00000000000E+00 0. -1.
         25    2    1    2    0    0  0.21023732598E+02  0.27192372797E+02  0.70819196067E+01  0.12983220457E+03  0.12499930115E+03 0.  0.
          2    1    1    2  501    0 -0.34776805250E+02  0.33377108531E+02 -0.59814651952E+03  0.60008559087E+03  0.00000000000E+00 0. -1.
          1    1    1    2  502    0  0.13753072651E+02 -0.60569481328E+02  0.10318342957E+04  0.10337019990E+04  0.00000000000E+00 0. -1.
         22    1    3    3    0    0 -0.33665717010E+02 -0.10515703587E+02 -0.36204613098E+02  0.50544381817E+02  0.00000000000E+00 0.  1.
         22    1    3    3    0    0  0.54689449609E+02  0.37708076384E+02  0.43286532704E+02  0.79287822751E+02  0.00000000000E+00 0.  1.
</event>
<event>
 7    1  0.6105960E-006  0.9827636E+02  0.7818608E-02  0.1314263E+00
          2   -1    0    0  502    0  0.00000000000E+00  0.00000000000E+00  0.70324584588E+03  0.70324584588E+03  0.00000000000E+00 0. -1.
          1   -1    0    0  501    0 -0.00000000000E+00 -0.00000000000E+00 -0.57848237659E+03  0.57848237659E+03  0.00000000000E+00 0. -1.
         25    2    1    2    0    0  0.84081507593E+02  0.74317826840E+02  0.25230064287E+03  0.30310747871E+03  0.12500275979E+03 0.  0.
          2    1    1    2  501    0 -0.13510532330E+02 -0.97546862403E+02 -0.54539243159E+03  0.55421189926E+03  0.00000000000E+00 0. -1.
          1    1    1    2  502    0 -0.70570975264E+02  0.23229035562E+02  0.41785525801E+03  0.42440884449E+03  0.00000000000E+00 0. -1.
         22    1    3    3    0    0  0.22394034352E+02  0.99029957240E+02  0.15261452197E+03  0.18330198450E+03  0.00000000000E+00 0.  1.
         22    1    3    3    0    0  0.61687473242E+02 -0.24712130399E+02  0.99686120895E+02  0.11980549421E+03  0.00000000000E+00 0.  1.
</event>
<event>
 7    1  0.6105960E-006  0.1426643E+03  0.7818608E-02  0.1279789E+00
          2   -1    0    0  502    0  0.00000000000E+00  0.00000000000E+00  0.53752349199E+03  0.53752349199E+03  0.00000000000E+00 0. -1.
          1   -1    0    0  501    0 -0.00000000000E+00 -0.00000000000E+00 -0.30319499341E+03  0.30319499341E+03  0.00000000000E+00 0. -1.
         25    2    1    2    0    0 -0.77025322820E+02  0.34056433358E+02  0.19888877349E+02  0.15203268352E+03  0.12500251361E+03 0.  0.
          2    1    1    2  501    0 -0.61766534055E+02  0.33848825219E+02 -0.21819815858E+03  0.22928428665E+03  0.00000000000E+00 0. -1.
          1    1    1    2  502    0  0.13879185688E+03 -0.67905258576E+02  0.43263777981E+03  0.45940151523E+03  0.00000000000E+00 0. -1.
         22    1    3    3    0    0  0.65957768792E+01  0.61448348301E+02  0.16537290339E+02  0.63975665321E+02  0.00000000000E+00 0.  1.
         22    1    3    3    0    0 -0.83621099700E+02 -0.27391914943E+02  0.33515870107E+01  0.88057018203E+02  0.00000000000E+00 0.  1.
</event>
<event>
 7    1  0.6105960E-006  0.4053238E+02  0.7818608E-02  0.1540267E+00
          2   -1    0    0  502    0  0.00000000000E+00  0.00000000000E+00  0.49371958786E+03  0.49371958786E+03  0.00000000000E+00 0. -1.
          1   -1    0    0  501    0 -0.00000000000E+00 -0.00000000000E+00 -0.62395081591E+03  0.62395081591E+03  0.00000000000E+00 0. -1.
         25    2    1    2    0    0  0.29912163682E+01  0.65957899864E+02  0.17406115647E+03  0.22423145383E+03  0.12499226682E+03 0.  0.
          2    1    1    2  501    0  0.12015762236E+02 -0.29547546878E+02 -0.59712184518E+03  0.59797318841E+03  0.00000000000E+00 0. -1.
          1    1    1    2  502    0 -0.15006978604E+02 -0.36410352986E+02  0.29282946065E+03  0.29546576153E+03  0.00000000000E+00 0. -1.
         22    1    3    3    0    0  0.46236771742E+02  0.63411016602E+02  0.16079685986E+03  0.17892575619E+03  0.00000000000E+00 0.  1.
         22    1    3    3    0    0 -0.43245555374E+02  0.25468832615E+01  0.13264296606E+02  0.45305697637E+02  0.00000000000E+00 0.  1.
</event>
<event>
 7    1  0.6105960E-006  0.2403075E+03  0.7818608E-02  0.1190069E+00
          2   -1    0    0  502    0  0.00000000000E+00  0.00000000000E+00  0.15150010298E+04  0.15150010298E+04  0.00000000000E+00 0. -1.
          1   -1    0    0  501    0 -0.00000000000E+00 -0.00000000000E+00 -0.13431468195E+04  0.13431468195E+04  0.00000000000E+00 0. -1.
         25    2    1    2    0    0  0.32004834046E+03  0.80972574372E+02  0.23453472284E+03  0.42381610619E+03  0.12500423039E+03 0.  0.
          2    1    1    2  501    0 -0.21643534543E+03 -0.97514959631E+02 -0.12348573757E+04  0.12574681564E+04  0.00000000000E+00 0. -1.
          1    1    1    2  502    0 -0.10361299503E+03  0.16542385258E+02  0.11721768632E+04  0.11768635867E+04  0.00000000000E+00 0. -1.
         22    1    3    3    0    0  0.21776372015E+03  0.99357667907E+02  0.11540652505E+03  0.26572852690E+03  0.00000000000E+00 0.  1.
         22    1    3    3    0    0  0.10228462031E+03 -0.18385093534E+02  0.11912819779E+03  0.15808757929E+03  0.00000000000E+00 0.  1.
</event>
<event>
 7    1  0.6105960E-006  0.1314932E+03  0.7818608E-02  0.1391873E+00
          2   -1    0    0  502    0  0.00000000000E+00  0.00000000000E+00  0.73071184365E+03  0.73071184365E+03  0.00000000000E+00 0. -1.
          1   -1    0    0  501    0 -0.00000000000E+00 -0.00000000000E+00 -0.77724194969E+03  0.77724194969E+03  0.00000000000E+00 0. -1.
         25    2    1    2    0    0  0.10704403037E+03 -0.76189141143E+02 -0.36091052536E+02  0.18490924326E+03  0.12500261798E+03 0.  0.
          2    1    1    2  501    0  0.14244429969E+02  0.24927982327E+02 -0.65982183529E+03  0.66044618434E+03  0.00000000000E+00 0. -1.
          1    1    1    2  502    0 -0.12128846034E+03  0.51261158816E+02  0.64938278178E+03  0.66259836575E+03  0.00000000000E+00 0. -1.
         22    1    3    3    0    0  0.15087697119E+02 -0.91349748099E+01 -0.65112759834E+02  0.67459305232E+02  0.00000000000E+00 0. -1.
         22    1    3    3    0    0  0.91956333249E+02 -0.67054166333E+02  0.29021707298E+02  0.11744993802E+03  0.00000000000E+00 0. -1.
</event>
<event>
 7    1  0.6105960E-006  0.9796531E+02  0.7818608E-02  0.1338190E+00
          2   -1    0    0  502    0  0.00000000000E+00  0.00000000000E+00  0.20647798073E+03  0.20647798073E+03  0.00000000000E+00 0. -1.
          1   -1    0    0  501    0 -0.00000000000E+00 -0.00000000000E+00 -0.14353784716E+03  0.14353784716E+03  0.00000000000E+00 0. -1.
         25    2    1    2    0    0  0.55512767377E+02 -0.32760986249E+02  0.11319271506E+02  0.14109592720E+03  0.12499994081E+03 0.  0.
          2    1    1    2  501    0 -0.97712987726E+02  0.75847513213E+02 -0.82083006712E+01  0.12396793711E+03  0.00000000000E+00 0. -1.
          1    1    1    2  502    0  0.42200220349E+02 -0.43086526964E+02  0.59829162739E+02  0.84951963587E+02  0.00000000000E+00 0. -1.
         22    1    3    3    0    0  0.52117465267E+02 -0.38347194667E+02 -0.48535457083E+02  0.80885277516E+02  0.00000000000E+00 0. -1.
         22    1    3    3    0    0  0.33953021098E+01  0.55862084173E+01  0.59854728588E+02  0.60210649683E+02  0.00000000000E+00 0. -1.
</event>
<event>
 7    1  0.6105960E-006  0.1755822E+03  0.7818608E-02  0.1357629E+00
          2   -1    0    0  502    0  0.00000000000E+00  0.00000000000E+00  0.11378570499E+04  0.11378570499E+04  0.00000000000E+00 0. -1.
          1   -1    0    0  501    0 -0.00000000000E+00 -0.00000000000E+00 -0.27588892995E+03  0.27588892995E+03  0.00000000000E+00 0. -1.
         25    2    1    2    0    0 -0.18573956737E+03  0.73029133388E+02  0.32294954309E+03  0.39969232608E+03  0.12500042774E+03 0.  0.
          2    1    1    2  501    0  0.16508152213E+03 -0.53406682497E+02 -0.20552238961E+03  0.26896772170E+03  0.00000000000E+00 0. -1.
          1    1    1    2  502    0  0.20658045239E+02 -0.19622450892E+02  0.74454096644E+03  0.74508593204E+03  0.00000000000E+00 0. -1.
         22    1    3    3    0    0 -0.84757696352E+02  0.87986749407E+02  0.23537347779E+03  0.26519089202E+03  0.00000000000E+00 0. -1.
         22    1    3    3    0    0 -0.10098187101E+03 -0.14957616019E+02  0.87576065301E+02  0.13450143406E+03  0.00000000000E+00 0. -1.
</event>
<event>
 7    1  0.6105960E-006  0.2892739E+02  0.7818608E-02  0.1633244E+00
          2   -1    0    0  502    0  0.00000000000E+00  0.00000000000E+00  0.14484493982E+04  0.14484493982E+04  0.00000000000E+00 0. -1.
          1   -1    0    0  501    0 -0.00000000000E+00 -0.00000000000E+00 -0.12159228806E+04  0.12159228806E+04  0.00000000000E+00 0. -1.
         25    2    1    2    0    0  0.26263630476E+01 -0.30307249204E+02  0.10200162471E+03  0.16417881024E+03  0.12499969260E+03 0.  0.
          2    1    1    2  501    0 -0.23246675777E+02  0.99502482922E+01 -0.11845397596E+04  0.11848096292E+04  0.00000000000E+00 0. -1.
          1    1    1    2  502    0  0.20620312729E+02  0.20357000912E+02  0.13150646525E+04  0.13153838394E+04  0.00000000000E+00 0. -1.
         22    1    3    3    0    0 -0.27851536178E+02 -0.68612084507E+02  0.36919962754E+02  0.82743035100E+02  0.00000000000E+00 0.  1.
         22    1    3    3    0    0  0.30477899226E+02  0.38304835302E+02  0.65081661960E+02  0.81435775137E+02  0.00000000000E+00 0.  1.
</event>
<event>
 7    1  0.7001725E-006  0.1268531E+03  0.7818608E-02  0.1254954E+00
          2   -1    0    0  502    0  0.00000000000E+00  0.00000000000E+00  0.13409214492E+04  0.13409214492E+04  0.00000000000E+00 0. -1.
          1   -1    0    0  501    0 -0.00000000000E+00 -0.00000000000E+00 -0.19486083613E+04  0.19486083613E+04  0.00000000000E+00 0. -1.
         25    2    1    2    0    0  0.57213156925E+02 -0.25308229943E+02 -0.16925555587E+03  0.21951960981E+03  0.12501025586E+03 0.  0.
          2    1    1    2  501    0 -0.12659699139E+03 -0.47836784629E+02 -0.17496726787E+04  0.17548987546E+04  0.00000000000E+00 0. -1.
          1    1    1    2  502    0  0.69383834461E+02  0.73145014572E+02  0.13112413225E+04  0.13151114460E+04  0.00000000000E+00 0. -1.
         22    1    3    3    0    0 -0.18093514750E+02 -0.51471565135E+02 -0.10000685987E+03  0.11392132950E+03  0.00000000000E+00 0.  1.
         22    1    3    3    0    0  0.75306671676E+02  0.26163335192E+02 -0.69248696000E+02  0.10559828031E+03  0.00000000000E+00 0.  1.
</event>
<event>
 7    1  0.6105960E-006  0.1729715E+03  0.7818608E-02  0.1396095E+00
          2   -1    0    0  502    0  0.00000000000E+00  0.00000000000E+00  0.94583845478E+03  0.94583845478E+03  0.00000000000E+00 0. -1.
          1   -1    0    0  501    0 -0.00000000000E+00 -0.00000000000E+00 -0.75999264840E+03  0.75999264840E+03  0.00000000000E+00 0. -1.
         25    2    1    2    0    0 -0.18608937463E+03  0.46263043695E+02  0.28149542153E+03  0.36281427301E+03  0.12499999920E+03 0.  0.
          2    1    1    2  501    0  0.16519656102E+03 -0.49228269429E+02 -0.70882242299E+03  0.72948101663E+03  0.00000000000E+00 0. -1.
          1    1    1    2  502    0  0.20892813610E+02  0.29652257335E+01  0.61317280784E+03  0.61353581354E+03  0.00000000000E+00 0. -1.
         22    1    3    3    0    0 -0.94783779383E+02  0.84750012368E+02  0.13040773415E+03  0.18213376007E+03  0.00000000000E+00 0.  1.
         22    1    3    3    0    0 -0.91305595246E+02 -0.38486968672E+02  0.15108768738E+03  0.18068051294E+03  0.00000000000E+00 0.  1.
</event>
<event>
 7    1  0.6105960E-006  0.5334934E+02  0.7818608E-02  0.1446384E+00
          2   -1    0    0  502    0  0.00000000000E+00  0.00000000000E+00  0.25236279105E+04  0.25236279105E+04  0.00000000000E+00 0. -1.
          1   -1    0    0  501    0 -0.00000000000E+00 -0.00000000000E+00 -0.66473082779E+01  0.66473082779E+01  0.00000000000E+00 0. -1.
         25    2    1    2    0    0 -0.27267986917E+02  0.12981337894E+02  0.13189618884E+04  0.13252160451E+04  0.12500017911E+03 0.  0.
          2    1    1    2  501    0 -0.79735561858E+01 -0.53033623786E+02  0.25733832958E+03  0.26286718837E+03  0.00000000000E+00 0. -1.
          1    1    1    2  502    0  0.35241543103E+02  0.40052285892E+02  0.94068038421E+03  0.94219198532E+03  0.00000000000E+00 0. -1.
         22    1    3    3    0    0  0.56858539420E+01 -0.53530572863E+02  0.61504588232E+03  0.61739718862E+03  0.00000000000E+00 0.  1.
         22    1    3    3    0    0 -0.32953840859E+02  0.66511910757E+02  0.70391600608E+03  0.70781885643E+03  0.00000000000E+00 0.  1.
</event>
<event>
 7    1  0.6105960E-006  0.7461525E+02  0.7818608E-02  0.1402013E+00
          2   -1    0    0  502    0  0.00000000000E+00  0.00000000000E+00  0.57880254548E+03  0.57880254548E+03  0.00000000000E+00 0. -1.
          1   -1    0    0  501    0 -0.00000000000E+00 -0.00000000000E+00 -0.12392439654E+04  0.12392439654E+04  0.00000000000E+00 0. -1.
         25    2    1    2    0    0  0.37539721078E+02  0.36918366442E+02  0.18086318932E+03  0.22607285004E+03  0.12500097534E+03 0.  0.
          2    1    1    2  501    0  0.41306525240E+02 -0.21735226867E+02 -0.12118903819E+04  0.12127889128E+04  0.00000000000E+00 0. -1.
          1    1    1    2  502    0 -0.78846246318E+02 -0.15183139576E+02  0.37058577267E+03  0.37918474810E+03  0.00000000000E+00 0. -1.
         22    1    3    3    0    0 -0.24650479133E+02 -0.26956953259E+02  0.18739950128E+02  0.41054953188E+02  0.00000000000E+00 0.  1.
         22    1    3    3    0    0  0.62190200211E+02  0.63875319701E+02  0.16212323919E+03  0.18501789685E+03  0.00000000000E+00 0.  1.
</event>
<event>
 7    1  0.6105960E-006  0.9102318E+02  0.7818608E-02  0.1303287E+00
          2   -1    0    0  502    0  0.00000000000E+00  0.00000000000E+00  0.11618504947E+04  0.11618504947E+04  0.00000000000E+00 0. -1.
          1   -1    0    0  501    0 -0.00000000000E+00 -0.00000000000E+00 -0.31620984711E+03  0.31620984711E+03  0.00000000000E+00 0. -1.
         25    2    1    2    0    0  0.48377985103E+02 -0.47603290299E+02  0.38444915973E+03  0.40991778944E+03  0.12499973996E+03 0.  0.
          2    1    1    2  501    0  0.54586165642E+02  0.69830274000E+02 -0.29326597505E+03  0.30636717965E+03  0.00000000000E+00 0. -1.
          1    1    1    2  502    0 -0.10296415074E+03 -0.22226983701E+02  0.75445746295E+03  0.76177537276E+03  0.00000000000E+00 0. -1.
         22    1    3    3    0    0  0.45968182650E+02 -0.75684941341E+02  0.15314691771E+03  0.17690467084E+03  0.00000000000E+00 0.  1.
         22    1    3    3    0    0  0.24098024535E+01  0.28081651042E+02  0.23130224202E+03  0.23301311860E+03  0.00000000000E+00 0.  1.
</event>
<event>
 7    1  0.6105960E-006  0.7702798E+02  0.7818608E-02  0.1454922E+00
          2   -1    0    0  502    0  0.00000000000E+00  0.00000000000E+00  0.14853282415E+04  0.14853282415E+04  0.00000000000E+00 0. -1.
          1   -1    0    0  501    0 -0.00000000000E+00 -0.00000000000E+00 -0.68893420000E+03  0.68893420000E+03  0.00000000000E+00 0. -1.
         25    2    1    2    0    0 -0.81106260713E+02 -0.13754960942E+02  0.11641705365E+04  0.11737485156E+04  0.12500046105E+03 0.  0.
          2    1    1    2  501    0  0.78765149016E+01  0.29200685409E+02 -0.67937792555E+03  0.68005079607E+03  0.00000000000E+00 0. -1.
          1    1    1    2  502    0  0.73229745811E+02 -0.15445724467E+02  0.31160143057E+03  0.32046312987E+03  0.00000000000E+00 0. -1.
         22    1    3    3    0    0 -0.33723045069E+01 -0.58203735911E+02  0.37337368219E+03  0.37789807338E+03  0.00000000000E+00 0.  1.
         22    1    3    3    0    0 -0.77733956206E+02  0.44448774969E+02  0.79079685431E+03  0.79585044219E+03  0.00000000000E+00 0.  1.
</event>
<event>
 7    1  0.6105960E-006  0.2179075E+03  0.7818608E-02  0.1230090E+00
          2   -1    0    0  502    0  0.00000000000E+00  0.00000000000E+00  0.21854465386E+04  0.21854465386E+04  0.00000000000E+00 0. -1.
          1   -1    0    0  501    0 -0.00000000000E+00 -0.00000000000E+00 -0.14898532784E+04  0.14898532784E+04  0.00000000000E+00 0. -1.
         25    2    1    2    0    0  0.18491382702E+03  0.11513136786E+03 -0.25919149035E+03  0.36089839394E+03  0.12497626491E+03 0.  0.
          2    1    1    2  501    0 -0.50148345869E+02  0.56400542817E+02 -0.11730194187E+04  0.11754447816E+04  0.00000000000E+00 0. -1.
          1    1    1    2  502    0 -0.13476548115E+03 -0.17153191067E+03  0.21278041693E+04  0.21389566415E+04  0.00000000000E+00 0. -1.
         22    1    3    3    0    0 -0.18534002506E+02  0.31477085163E+01 -0.22204657552E+02  0.29094056692E+02  0.00000000000E+00 0.  1.
         22    1    3    3    0    0  0.20344782952E+03  0.11198365934E+03 -0.23698683280E+03  0.33180433725E+03  0.00000000000E+00 0.  1.
</event>
<event>
 7    1  0.6105960E-006  0.6854916E+02  0.7818608E-02  0.1512782E+00
          2   -1    0    0  502    0  0.00000000000E+00  0.00000000000E+00  0.11976588913E+03  0.11976588913E+03  0.00000000000E+00 0. -1.
          1   -1    0    0  501    0 -0.00000000000E+00 -0.00000000000E+00 -0.87889214018E+03  0.87889214018E+03  0.00000000000E+00 0. -1.
         25    2    1    2    0    0  0.53472634201E+01  0.46277919310E+02 -0.34006783780E+02  0.13766768136E+03  0.12500276039E+03 0.  0.
          2    1    1    2  501    0 -0.92231779240E+01 -0.68572967446E+02 -0.78961469236E+03  0.79264032276E+03  0.00000000000E+00 0. -1.
          1    1    1    2  502    0  0.38759145039E+01  0.22295048135E+02  0.64495225092E+02  0.68350025196E+02  0.00000000000E+00 0. -1.
         22    1    3    3    0    0 -0.39859609638E+02  0.32678227749E+02 -0.63666789152E+02  0.81915292164E+02  0.00000000000E+00 0.  1.
         22    1    3    3    0    0  0.45206873058E+02  0.13599691561E+02  0.29660005373E+02  0.55752389195E+02  0.00000000000E+00 0.  1.
</event>
<event>
 7    1  0.6105960E-006  0.4458794E+02  0.7818608E-02  0.1526887E+00
          2   -1    0    0  502    0  0.00000000000E+00  0.00000000000E+00  0.14610837046E+04  0.14610837046E+04  0.00000000000E+00 0. -1.
          1   -1    0    0  501    0 -0.00000000000E+00 -0.00000000000E+00 -0.23397965474E+03  0.23397965474E+03  0.00000000000E+00 0. -1.
         25    2    1    2    0    0 -0.60044496101E+01 -0.12385642878E+02  0.91453584891E+01  0.12607217965E+03  0.12498439636E+03 0.  0.
          2    1    1    2  501    0 -0.26815081928E+01 -0.31544461660E+02 -0.17372560797E+03  0.17658660882E+03  0.00000000000E+00 0. -1.
          1    1    1    2  502    0  0.86859578029E+01  0.43930104537E+02  0.13916842993E+04  0.13924045708E+04  0.00000000000E+00 0. -1.
         22    1    3    3    0    0 -0.53159691574E+02  0.27986097858E+02 -0.10445369699E+02  0.60977702726E+02  0.00000000000E+00 0. -1.
         22    1    3    3    0    0  0.47155241964E+02 -0.40371740736E+02  0.19590728188E+02  0.65094476921E+02  0.00000000000E+00 0. -1.
</event>
<event>
 7    1  0.6105960E-006  0.1001281E+03  0.7818608E-02  0.1286703E+00
          2   -1    0    0  502    0  0.00000000000E+00  0.00000000000E+00  0.44664356340E+03  0.44664356340E+03  0.00000000000E+00 0. -1.
          1   -1    0    0  501    0 -0.00000000000E+00 -0.00000000000E+00 -0.49148083979E+03  0.49148083979E+03  0.00000000000E+00 0. -1.
         25    2    1    2    0    0  0.17463424180E+02  0.32288652127E+02  0.26026815111E+02  0.13284979138E+03  0.12499657486E+03 0.  0.
          2    1    1    2  501    0 -0.89232888055E+02  0.45421600063E+02 -0.42450398486E+03  0.43615279802E+03  0.00000000000E+00 0. -1.
          1    1    1    2  502    0  0.71769463875E+02 -0.77710252190E+02  0.35363989336E+03  0.36912181379E+03  0.00000000000E+00 0. -1.
         22    1    3    3    0    0  0.22044058817E+02  0.79423341134E+02  0.10943839971E+02  0.83149114724E+02  0.00000000000E+00 0.  1.
         22    1    3    3    0    0 -0.45806346367E+01 -0.47134689007E+02  0.15082975140E+02  0.49700676661E+02  0.00000000000E+00 0.  1.
</event>
<event>
 7    1  0.6105960E-006  0.9794158E+02  0.7818608E-02  0.1284746E+00
          2   -1    0    0  502    0  0.00000000000E+00  0.00000000000E+00  0.95880811984E+03  0.95880811984E+03  0.00000000000E+00 0. -1.
          1   -1    0    0  501    0 -0.00000000000E+00 -0.00000000000E+00 -0.68597081721E+03  0.68597081721E+03  0.00000000000E+00 0. -1.
         25    2    1    2    0    0 -0.14673118961E+02 -0.35100475753E+02  0.17565714802E+03  0.21892430337E+03  0.12500029254E+03 0.  0.
          2    1    1    2  501    0  0.79546775535E+02 -0.57138984486E+02 -0.65650967693E+03  0.66377519458E+03  0.00000000000E+00 0. -1.
          1    1    1    2  502    0 -0.64873656574E+02  0.92239460239E+02  0.75368983153E+03  0.76207943910E+03  0.00000000000E+00 0. -1.
         22    1    3    3    0    0 -0.38617732299E+02 -0.44870343591E+01 -0.14448686104E+00  0.38877803458E+02  0.00000000000E+00 0. -1.
         22    1    3    3    0    0  0.23944613338E+02 -0.30613441394E+02  0.17580163488E+03  0.18004649991E+03  0.00000000000E+00 0. -1.
</event>
<event>
 7    1  0.6105960E-006  0.7943366E+02  0.7818608E-02  0.1456062E+00
          2   -1    0    0  502    0  0.00000000000E+00  0.00000000000E+00  0.16938663745E+04  0.16938663745E+04  0.00000000000E+00 0. -1.
          1   -1    0    0  501    0 -0.00000000000E+00 -0.00000000000E+00 -0.11399159444E+04  0.11399159444E+04  0.00000000000E+00 0. -1.
         25    2    1    2    0    0 -0.26214533957E+02  0.48335834257E+02  0.12106468125E+04  0.12183242511E+04  0.12499888540E+03 0.  0.
          2    1    1    2  501    0  0.20328827894E+02 -0.76819092396E+02 -0.11342447136E+04  0.11370248478E+04  0.00000000000E+00 0. -1.
          1    1    1    2  502    0  0.58857060633E+01  0.28483258139E+02  0.47754833107E+03  0.47843322004E+03  0.00000000000E+00 0. -1.
         22    1    3    3    0    0 -0.23038933502E+01 -0.35931017947E+02  0.63817901536E+03  0.63919386857E+03  0.00000000000E+00 0.  1.
         22    1    3    3    0    0 -0.23910640607E+02  0.84266852204E+02  0.57246779717E+03  0.57913038248E+03  0.00000000000E+00 0.  1.
</event>
<event>
 7    1  0.6105960E-006  0.7360541E+02  0.7818608E-02  0.1364168E+00
          2   -1    0    0  502    0  0.00000000000E+00  0.00000000000E+00  0.15903025296E+04  0.15903025296E+04  0.00000000000E+00 0. -1.
          1   -1    0    0  501    0 -0.00000000000E+00 -0.00000000000E+00 -0.17731181308E+02  0.17731181308E+02  0.00000000000E+00 0. -1.
         25    2    1    2    0    0  0.71278118808E+02 -0.39816863157E+02  0.52638781905E+03  0.54715094015E+03  0.12499624975E+03 0.  0.
          2    1    1    2  501    0  0.74837450263E+00  0.64332958155E+02  0.17620013750E+03  0.18757872487E+03  0.00000000000E+00 0. -1.
          1    1    1    2  502    0 -0.72026493310E+02 -0.24516094998E+02  0.86998339174E+03  0.87330404589E+03  0.00000000000E+00 0. -1.
         22    1    3    3    0    0 -0.11302094468E+02  0.35491096454E+02  0.14683203143E+03  0.15148267466E+03  0.00000000000E+00 0. -1.
         22    1    3    3    0    0  0.82580213276E+02 -0.75307959611E+02  0.37955578761E+03  0.39566826549E+03  0.00000000000E+00 0. -1.
</event>
<event>
 7    1  0.6105960E-006  0.1821285E+03  0.7818608E-02  0.1227837E+00
          2   -1    0    0  502    0  0.00000000000E+00  0.00000000000E+00  0.31230246126E+04  0.31230246126E+04  0.00000000000E+00 0. -1.
          1   -1    0    0  501    0 -0.00000000000E+00 -0.00000000000E+00 -0.10620482797E+03  0.10620482797E+03  0.00000000000E+00 0. -1.
         25    2    1    2    0    0 -0.13668783977E+03  0.10745448365E+03  0.48819804874E+03  0.53309449917E+03  0.12498951421E+03 0.  0.
          2    1    1    2  501    0  0.71957450769E+02 -0.17342771677E+03  0.23407905071E+02  0.18921674789E+03  0.00000000000E+00 0. -1.
          1    1    1    2  502    0  0.64730389004E+02  0.65973233120E+02  0.25052138308E+04  0.25069181935E+04  0.00000000000E+00 0. -1.
         22    1    3    3    0    0 -0.38366224610E+02  0.94955686360E+02  0.33773214101E+03  0.35291861474E+03  0.00000000000E+00 0.  1.
         22    1    3    3    0    0 -0.98321615163E+02  0.12498797287E+02  0.15046590773E+03  0.18017588443E+03  0.00000000000E+00 0.  1.
</event>
<event>
 7    1  0.6105960E-006  0.8465915E+02  0.7818608E-02  0.1396318E+00
          2   -1    0    0  502    0  0.00000000000E+00  0.00000000000E+00  0.19415726045E+04  0.19415726045E+04  0.00000000000E+00 0. -1.
          1   -1    0    0  501    0 -0.00000000000E+00 -0.00000000000E+00 -0.20291724230E+03  0.20291724230E+03  0.00000000000E+00 0. -1.
         25    2    1    2    0    0  0.39373544175E+02 -0.41216325500E+02  0.51014432535E+02  0.14655004944E+03  0.12500153277E+03 0.  0.
          2    1    1    2  501    0 -0.14628490688E+02 -0.40476240093E+02 -0.15115547203E+03  0.15716327649E+03  0.00000000000E+00 0. -1.
          1    1    1    2  502    0 -0.24745053487E+02  0.81692565594E+02  0.18387964017E+04  0.18407765209E+04  0.00000000000E+00 0. -1.
         22    1    3    3    0    0 -0.11792236483E+02 -0.71487808488E+02  0.74275500429E+01  0.72833591861E+02  0.00000000000E+00 0.  1.
         22    1    3    3    0    0  0.51165780658E+02  0.30271482988E+02  0.43586882492E+02  0.73716457579E+02  0.00000000000E+00 0.  1.
</event>
<event>
 7    1  0.6105960E-006  0.3398213E+03  0.7818608E-02  0.1184786E+00
          2   -1    0    0  502    0  0.00000000000E+00  0.00000000000E+00  0.12406667535E+04  0.12406667535E+04  0.00000000000E+00 0. -1.
          1   -1    0    0  501    0 -0.00000000000E+00 -0.00000000000E+00 -0.19034332534E+04  0.19034332534E+04  0.00000000000E+00 0. -1.
         25    2    1    2    0    0 -0.15253663402E+03  0.22587044136E+03 -0.29021252332E+02  0.30126551012E+03  0.12503516907E+03 0.  0.
          2    1    1    2  501    0  0.21376890312E+03 -0.27527667012E+03 -0.17193815162E+04  0.17543509305E+04  0.00000000000E+00 0. -1.
          1    1    1    2  502    0 -0.61232269100E+02  0.49406228763E+02  0.10856362687E+04  0.10884835663E+04  0.00000000000E+00 0. -1.
         22    1    3    3    0    0  0.54601149873E+01  0.80809324198E+02 -0.31118407859E+02  0.86765863338E+02  0.00000000000E+00 0. -1.
         22    1    3    3    0    0 -0.15799674901E+03  0.14506111716E+03  0.20971555265E+01  0.21449964678E+03  0.00000000000E+00 0. -1.
</event>
<event>
 7    1  0.6105960E-006  0.8097517E+02  0.7818608E-02  0.1381359E+00
          2   -1    0    0  502    0  0.00000000000E+00  0.00000000000E+00  0.32407395833E+03  0.32407395833E+03  0.00000000000E+00 0. -1.
          1   -1    0    0  501    0 -0.00000000000E+00 -0.00000000000E+00 -0.12854882229E+03  0.12854882229E+03  0.00000000000E+00 0. -1.
         25    2    1    2    0    0  0.29282288051E+02  0.35976114288E+02  0.16915509032E+02  0.13441510514E+03  0.12501821008E+03 0.  0.
          2    1    1    2  501    0 -0.62852805072E+02 -0.74041695462E+02 -0.31462908713E+02  0.10209095159E+03  0.00000000000E+00 0. -1.
          1    1    1    2  502    0  0.33570517021E+02  0.38065581174E+02  0.21007253572E+03  0.21611672389E+03  0.00000000000E+00 0. -1.
         22    1    3    3    0    0 -0.17559571690E+02  0.71361515232E+02  0.18145337444E+02  0.75697144497E+02  0.00000000000E+00 0.  1.
         22    1    3    3    0    0  0.46841859741E+02 -0.35385400944E+02 -0.12298284116E+01  0.58717960641E+02  0.00000000000E+00 0.  1.
</event>
<event>
 7    1  0.6105960E-006  0.8687811E+02  0.7818608E-02  0.1457796E+00
          2   -1    0    0  502    0  0.00000000000E+00  0.00000000000E+00  0.49537419249E+02  0.49537419249E+02  0.00000000000E+00 0. -1.
          1   -1    0    0  501    0 -0.00000000000E+00 -0.00000000000E+00 -0.14004455933E+04  0.14004455933E+04  0.00000000000E+00 0. -1.
         25    2    1    2    0    0 -0.44573624728E+02  0.61219616493E+02 -0.50330382449E+03  0.52409324614E+03  0.12499736574E+03 0.  0.
          2    1    1    2  501    0 -0.25235905671E+02 -0.72565107987E+01 -0.83655359414E+03  0.83696560488E+03  0.00000000000E+00 0. -1.
          1    1    1    2  502    0  0.69809530399E+02 -0.53963105694E+02 -0.11050755441E+02  0.88924161545E+02  0.00000000000E+00 0. -1.
         22    1    3    3    0    0 -0.98595861613E+01 -0.15542581200E+02 -0.33854225446E+03  0.33904224121E+03  0.00000000000E+00 0.  1.
         22    1    3    3    0    0 -0.34714038566E+02  0.76762197693E+02 -0.16476157002E+03  0.18505100493E+03  0.00000000000E+00 0.  1.
</event>
<event>
 7    1  0.6105960E-006  0.2125297E+03  0.7818608E-02  0.1343946E+00
          2   -1    0    0  502    0  0.00000000000E+00  0.00000000000E+00  0.57120581412E+03  0.57120581412E+03  0.00000000000E+00 0. -1.
          1   -1    0    0  501    0 -0.00000000000E+00 -0.00000000000E+00 -0.18917803535E+03  0.18917803535E+03  0.00000000000E+00 0. -1.
         25    2    1    2    0    0  0.21431689361E+02 -0.19858644274E+03  0.23475715075E+03  0.33261258802E+03  0.12499728529E+03 0.  0.
          2    1    1    2  501    0  0.13344850765E+02 -0.22836482390E+02 -0.94474654020E+02  0.98107340307E+02  0.00000000000E+00 0. -1.
          1    1    1    2  502    0 -0.34776540126E+02  0.22142292513E+03  0.24174528204E+03  0.32966392114E+03  0.00000000000E+00 0. -1.
         22    1    3    3    0    0 -0.23011769039E+02 -0.10036774180E+03  0.40903098713E+02  0.11079841421E+03  0.00000000000E+00 0.  1.
         22    1    3    3    0    0  0.44443458401E+02 -0.98218700946E+02  0.19385405204E+03  0.22181417381E+03  0.00000000000E+00 0.  1.
</event>
<event>
 7    1  0.6105960E-006  0.8764737E+02  0.7818608E-02  0.1377639E+00
          2   -1    0    0  502    0  0.00000000000E+00  0.00000000000E+00  0.63252867577E+03  0.63252867577E+03  0.00000000000E+00 0. -1.
          1   -1    0    0  501    0 -0.00000000000E+00 -0.00000000000E+00 -0.10453828213E+04  0.10453828213E+04  0.00000000000E+00 0. -1.
         25    2    1    2    0    0  0.40103052696E+02  0.16510710334E+02 -0.80952852801E+03  0.82026962925E+03  0.12499987448E+03 0.  0.
          2    1    1    2  501    0  0.47426120700E+02 -0.93343157204E+01 -0.22482796901E+03  0.22996517568E+03  0.00000000000E+00 0. -1.
          1    1    1    2  502    0 -0.87529173396E+02 -0.71763946140E+01  0.62150235153E+03  0.62767669209E+03  0.00000000000E+00 0. -1.
         22    1    3    3    0    0 -0.14018342578E+02  0.60756014418E+02 -0.37020410353E+03  0.37541828070E+03  0.00000000000E+00 0.  1.
         22    1    3    3    0    0  0.54121395273E+02 -0.44245304084E+02 -0.43932442449E+03  0.44485134855E+03  0.00000000000E+00 0.  1.
</event>
<event>
 7    1  0.6105960E-006  0.1102341E+03  0.7818608E-02  0.1308463E+00
          2   -1    0    0  502    0  0.00000000000E+00  0.00000000000E+00  0.78392616513E+02  0.78392616513E+02  0.00000000000E+00 0. -1.
          1   -1    0    0  501    0 -0.00000000000E+00 -0.00000000000E+00 -0.14281802281E+04  0.14281802281E+04  0.00000000000E+00 0. -1.
         25    2    1    2    0    0  0.27187178196E+02  0.77983132917E+02 -0.15421133168E+03  0.21502369802E+03  0.12503417219E+03 0.  0.
          2    1    1    2  501    0  0.35663836819E+02 -0.10836255831E+03 -0.12140020191E+04  0.12193503417E+04  0.00000000000E+00 0. -1.
          1    1    1    2  502    0 -0.62851015015E+02  0.30379425397E+02  0.18425739163E+02  0.72198804973E+02  0.00000000000E+00 0. -1.
         22    1    3    3    0    0 -0.25882505783E+02  0.84449471059E+02 -0.12790718335E+03  0.15544087242E+03  0.00000000000E+00 0.  1.
         22    1    3    3    0    0  0.53069683979E+02 -0.64663381423E+01 -0.26304148330E+02  0.59582825596E+02  0.00000000000E+00 0.  1.
</event>
<event>
 7    1  0.6105960E-006  0.1186127E+03  0.7818608E-02  0.1288573E+00
          2   -1    0    0  502    0  0.00000000000E+00  0.00000000000E+00  0.12232422888E+04  0.12232422888E+04  0.00000000000E+00 0. -1.
          1   -1    0    0  501    0 -0.00000000000E+00 -0.00000000000E+00 -0.79653350709E+03  0.79653350709E+03  0.00000000000E+00 0. -1.
         25    2    1    2    0    0 -0.82935669249E+02 -0.93685638063E+02  0.23923991832E+02  0.17846686388E+03  0.12499096010E+03 0.  0.
          2    1    1    2  501    0  0.11712395090E+03  0.23614935568E+02 -0.71293033347E+03  0.72287298015E+03  0.00000000000E+00 0. -1.
          1    1    1    2  502    0 -0.34188281651E+02  0.70070702495E+02  0.11157151233E+04  0.11184359519E+04  0.00000000000E+00 0. -1.
         22    1    3    3    0    0 -0.67302739123E-01 -0.55876262389E+02 -0.38664905496E+02  0.67949511737E+02  0.00000000000E+00 0.  1.
         22    1    3    3    0    0 -0.82868366510E+02 -0.37809375675E+02  0.62588897328E+02  0.11051735215E+03  0.00000000000E+00 0.  1.
</event>
<event>
 7    1  0.6105960E-006  0.1618223E+03  0.7818608E-02  0.1350227E+00
          2   -1    0    0  502    0  0.00000000000E+00  0.00000000000E+00  0.35010774250E+04  0.35010774250E+04  0.00000000000E+00 0. -1.
          1   -1    0    0  501    0 -0.00000000000E+00 -0.00000000000E+00 -0.55246104597E+03  0.55246104597E+03  0.00000000000E+00 0. -1.
         25    2    1    2    0    0  0.18419737325E+03 -0.46729278231E+02  0.53270345863E+03  0.57923823386E+03  0.12502663301E+03 0.  0.
          2    1    1    2  501    0 -0.27563888265E+02  0.17994448772E+02 -0.52652659425E+03  0.52755456834E+03  0.00000000000E+00 0. -1.
          1    1    1    2  502    0 -0.15663348499E+03  0.28734829459E+02  0.29424395147E+04  0.29467456688E+04  0.00000000000E+00 0. -1.
         22    1    3    3    0    0  0.15793405408E+03 -0.70423780469E+02  0.32113559578E+03  0.36473380042E+03  0.00000000000E+00 0. -1.
         22    1    3    3    0    0  0.26263319176E+02  0.23694502239E+02  0.21156786285E+03  0.21450443343E+03  0.00000000000E+00 0. -1.
</event>
<event>
 7    1  0.6105960E-006  0.3171756E+02  0.7818608E-02  0.1624760E+00
          2   -1    0    0  502    0  0.00000000000E+00  0.00000000000E+00  0.10403450142E+04  0.10403450142E+04  0.00000000000E+00 0. -1.
          1   -1    0    0  501    0 -0.00000000000E+00 -0.00000000000E+00 -0.33019283592E+03  0.33019283592E+03  0.00000000000E+00 0. -1.
         25    2    1    2    0    0  0.34122351455E+02 -0.29719589814E+02 -0.87034219115E+02  0.15889354519E+03  0.12499845806E+03 0.  0.
          2    1    1    2  501    0 -0.30946937005E+02  0.57036652440E+01 -0.20588724265E+03  0.20827818271E+03  0.00000000000E+00 0. -1.
          1    1    1    2  502    0 -0.31754144492E+01  0.24015924570E+02  0.10030736400E+04  0.10033661222E+04  0.00000000000E+00 0. -1.
         22    1    3    3    0    0  0.27352108308E+02  0.25619588850E+02  0.16775632146E+02  0.41059992640E+02  0.00000000000E+00 0.  1.
         22    1    3    3    0    0  0.67702431467E+01 -0.55339178664E+02 -0.10380985126E+03  0.11783355255E+03  0.00000000000E+00 0.  1.
</event>
<event>
 7    1  0.6105960E-006  0.6706009E+02  0.7818608E-02  0.1376347E+00
          2   -1    0    0  502    0  0.00000000000E+00  0.00000000000E+00  0.26279018046E+03  0.26279018046E+03  0.00000000000E+00 0. -1.
          1   -1    0    0  501    0 -0.00000000000E+00 -0.00000000000E+00 -0.13260352632E+04  0.13260352632E+04  0.00000000000E+00 0. -1.
         25    2    1    2    0    0  0.14858851884E+02  0.70661938527E+01 -0.58144394163E+03  0.59495560752E+03  0.12499760433E+03 0.  0.
          2    1    1    2  501    0 -0.21436616140E+02  0.60140559134E+02 -0.73196900941E+03  0.73474828758E+03  0.00000000000E+00 0. -1.
          1    1    1    2  502    0  0.65777642564E+01 -0.67206752987E+02  0.25016786827E+03  0.25912154859E+03  0.00000000000E+00 0. -1.
         22    1    3    3    0    0  0.48841682529E+02  0.50933972673E+02 -0.33042019588E+03  0.33787169957E+03  0.00000000000E+00 0. -1.
         22    1    3    3    0    0 -0.33982830645E+02 -0.43867778820E+02 -0.25102374575E+03  0.25708390795E+03  0.00000000000E+00 0. -1.
</event>
<event>
 7    1  0.6105960E-006  0.5437839E+02  0.7818608E-02  0.1435897E+00
          2   -1    0    0  502    0  0.00000000000E+00  0.00000000000E+00  0.32359145641E+03  0.32359145641E+03  0.00000000000E+00 0. -1.
          1   -1    0    0  501    0 -0.00000000000E+00 -0.00000000000E+00 -0.12053154933E+04  0.12053154933E+04  0.00000000000E+00 0. -1.
         25    2    1    2    0    0 -0.33784166681E+02 -0.56248023710E+02 -0.17656747907E+03  0.22607050212E+03  0.12500634852E+03 0.  0.
          2    1    1    2  501    0 -0.15401983756E+02  0.52443673796E+02 -0.10012099807E+04  0.10027008455E+04  0.00000000000E+00 0. -1.
          1    1    1    2  502    0  0.49186150437E+02  0.38043499138E+01  0.29605342288E+03  0.30013560214E+03  0.00000000000E+00 0. -1.
         22    1    3    3    0    0 -0.63938443819E+01 -0.28305834292E+02  0.13508431632E+02  0.32009049128E+02  0.00000000000E+00 0. -1.
         22    1    3    3    0    0 -0.27390322299E+02 -0.27942189418E+02 -0.19007591071E+03  0.19406145299E+03  0.00000000000E+00 0. -1.
</event>
<event>
 7    1  0.6105960E-006  0.6469308E+02  0.7818608E-02  0.1383258E+00
          2   -1    0    0  502    0  0.00000000000E+00  0.00000000000E+00  0.97928535553E+03  0.97928535553E+03  0.00000000000E+00 0. -1.
          1   -1    0    0  501    0 -0.00000000000E+00 -0.00000000000E+00 -0.11710005288E+03  0.11710005288E+03  0.00000000000E+00 0. -1.
         25    2    1    2    0    0  0.61002437072E+02 -0.54317791758E+02  0.12278792112E+03  0.19334193350E+03  0.12503003577E+03 0.  0.
          2    1    1    2  501    0  0.35475028195E+01  0.62454587002E+02 -0.68364700460E+02  0.92665487010E+02  0.00000000000E+00 0. -1.
          1    1    1    2  502    0 -0.64549939891E+02 -0.81367952439E+01  0.80776208199E+03  0.81037798790E+03  0.00000000000E+00 0. -1.
         22    1    3    3    0    0  0.54343867088E+02  0.70834570886E+00  0.12661088902E+03  0.13778270886E+03  0.00000000000E+00 0.  1.
         22    1    3    3    0    0  0.66585699832E+01 -0.55026137467E+02 -0.38229678936E+01  0.55559224637E+02  0.00000000000E+00 0.  1.
</event>
<event>
 7    1  0.6105960E-006  0.4603063E+02  0.7818608E-02  0.1509694E+00
          2   -1    0    0  502    0  0.00000000000E+00  0.00000000000E+00  0.20832068761E+04  0.20832068761E+04  0.00000000000E+00 0. -1.
          1   -1    0    0  501    0 -0.00000000000E+00 -0.00000000000E+00 -0.97666538004E+03  0.97666538004E+03  0.00000000000E+00 0. -1.
         25    2    1    2    0    0  0.11481527243E+02  0.18807872285E+02  0.32240686083E+03  0.34649208253E+03  0.12500007126E+03 0.  0.
          2    1    1    2  501    0  0.11179393874E+02 -0.44704291916E+02 -0.96390300356E+03  0.96500386156E+03  0.00000000000E+00 0. -1.
          1    1    1    2  502    0 -0.22660921116E+02  0.25896419631E+02  0.17480376388E+04  0.17483763121E+04  0.00000000000E+00 0. -1.
         22    1    3    3    0    0 -0.12098789844E+02 -0.51311727948E+02  0.12396705965E+03  0.13471119486E+03  0.00000000000E+00 0.  1.
         22    1    3    3    0    0  0.23580317087E+02  0.70119600233E+02  0.19843980118E+03  0.21178088767E+03  0.00000000000E+00 0.  1.
</event>
<event>
 7    1  0.6105960E-006  0.9209425E+02  0.7818608E-02  0.1379036E+00
          2   -1    0    0  502    0  0.00000000000E+00  0.00000000000E+00  0.54665545777E+03  0.54665545777E+03  0.00000000000E+00 0. -1.
          1   -1    0    0  501    0 -0.00000000000E+00 -0.00000000000E+00 -0.33456635296E+03  0.33456635296E+03  0.00000000000E+00 0. -1.
         25    2    1    2    0    0  0.23091242675E+02  0.46414279632E+02  0.40877244185E+03  0.43058967838E+03  0.12500028426E+03 0.  0.
          2    1    1    2  501    0 -0.16139616309E+02 -0.91359532336E+02 -0.31261924915E+03  0.32609484250E+03  0.00000000000E+00 0. -1.
          1    1    1    2  502    0 -0.69516263658E+01  0.44945252704E+02  0.11593591211E+03  0.12453728986E+03  0.00000000000E+00 0. -1.
         22    1    3    3    0    0 -0.49788140551E+02  0.22320447944E+02  0.22312515987E+03  0.22969958272E+03  0.00000000000E+00 0.  1.
         22    1    3    3    0    0  0.72879383225E+02  0.24093831689E+02  0.18564728198E+03  0.20089009566E+03  0.00000000000E+00 0.  1.
</event>
<event>
 7    1  0.6105960E-006  0.8313341E+02  0.7818608E-02  0.1383720E+00
          2   -1    0    0  502    0  0.00000000000E+00  0.00000000000E+00  0.66409033025E+03  0.66409033025E+03  0.00000000000E+00 0. -1.
          1   -1    0    0  501    0 -0.00000000000E+00 -0.00000000000E+00 -0.75349699873E+02  0.75349699873E+02  0.00000000000E+00 0. -1.
         25    2    1    2    0    0  0.56762755635E+02 -0.61824758592E+02  0.39415236839E+03  0.42192978123E+03  0.12499735828E+03 0.  0.
          2    1    1    2  501    0 -0.13135265308E+02  0.83005448444E+02 -0.28863002023E+02  0.88856696720E+02  0.00000000000E+00 0. -1.
          1    1    1    2  502    0 -0.43627490327E+02 -0.21180689852E+02  0.22345126401E+03  0.22865355218E+03  0.00000000000E+00 0. -1.
         22    1    3    3    0    0 -0.13149779137E+02 -0.37479832349E+02  0.28570669549E+02  0.48927882467E+02  0.00000000000E+00 0. -1.
         22    1    3    3    0    0  0.69912534772E+02 -0.24344926243E+02  0.36558169884E+03  0.37300189876E+03  0.00000000000E+00 0. -1.
</event>
<event>
 7    1  0.6105960E-006  0.1027076E+03  0.7818608E-02  0.1465799E+00
          2   -1    0    0  502    0  0.00000000000E+00  0.00000000000E+00  0.15714573419E+03  0.15714573419E+03  0.00000000000E+00 0. -1.
          1   -1    0    0  501    0 -0.00000000000E+00 -0.00000000000E+00 -0.26704657492E+04  0.26704657492E+04  0.00000000000E+00 0. -1.
         25    2    1    2    0    0  0.87255369047E+02  0.59631201703E+01 -0.45858607567E+03  0.48329618260E+03  0.12499981233E+03 0.  0.
          2    1    1    2  501    0 -0.10224621349E+03 -0.20612303406E+02 -0.21975225685E+04  0.21999964987E+04  0.00000000000E+00 0. -1.
          1    1    1    2  502    0  0.14990844446E+02  0.14649183236E+02  0.14278862922E+03  0.14431880204E+03  0.00000000000E+00 0. -1.
         22    1    3    3    0    0  0.22021074723E+02  0.39868480332E+02 -0.47960549900E+02  0.66141044765E+02  0.00000000000E+00 0. -1.
         22    1    3    3    0    0  0.65234294324E+02 -0.33905360162E+02 -0.41062552577E+03  0.41715513783E+03  0.00000000000E+00 0. -1.
</event>
<event>
 7    1  0.6105960E-006  0.5471569E+02  0.7818608E-02  0.1528392E+00
          2   -1    0    0  502    0  0.00000000000E+00  0.00000000000E+00  0.56036810833E+03  0.56036810833E+03  0.00000000000E+00 0. -1.
          1   -1    0    0  501    0 -0.00000000000E+00 -0.00000000000E+00 -0.37949998636E+03  0.37949998636E+03  0.00000000000E+00 0. -1.
         25    2    1    2    0    0 -0.24906896746E+02  0.74166348314E+02  0.15699357085E+03  0.21539170833E+03  0.12500242399E+03 0.  0.
          2    1    1    2  501    0  0.11991210754E+02 -0.22553203466E+02 -0.34793907907E+03  0.34887539160E+03  0.00000000000E+00 0. -1.
          1    1    1    2  502    0  0.12915685992E+02 -0.51613144849E+02  0.37181363019E+03  0.37560099476E+03  0.00000000000E+00 0. -1.
         22    1    3    3    0    0 -0.10436880571E+02 -0.27767833952E+02  0.84277246094E+02  0.89345594674E+02  0.00000000000E+00 0. -1.
         22    1    3    3    0    0 -0.14470016175E+02  0.10193418227E+03  0.72716324753E+02  0.12604611366E+03  0.00000000000E+00 0. -1.
</event>
<event>
 7    1  0.6105960E-006  0.9028893E+02  0.7818608E-02  0.1445417E+00
          2   -1    0    0  502    0  0.00000000000E+00  0.00000000000E+00  0.15367827668E+04  0.15367827668E+04  0.00000000000E+00 0. -1.
          1   -1    0    0  501    0 -0.00000000000E+00 -0.00000000000E+00 -0.45546079991E+02  0.45546079991E+02  0.00000000000E+00 0. -1.
         25    2    1    2    0    0 -0.15016377991E+02 -0.90650966652E+02  0.57792621021E+03  0.59838663214E+03  0.12499907085E+03 0.  0.
          2    1    1    2  501    0  0.27660400118E+02  0.84700547524E+00 -0.27357098364E+02  0.38913056727E+02  0.00000000000E+00 0. -1.
          1    1    1    2  502    0 -0.12644022127E+02  0.89803961176E+02  0.94066757501E+03  0.94502915797E+03  0.00000000000E+00 0. -1.
         22    1    3    3    0    0 -0.41760070190E+02  0.52335532034E+01  0.30467891777E+03  0.30757200210E+03  0.00000000000E+00 0.  1.
         22    1    3    3    0    0  0.26743692199E+02 -0.95884519855E+02  0.27324729244E+03  0.29081463004E+03  0.00000000000E+00 0.  1.
</event>
<event>
 7    1  0.6105960E-006  0.1168286E+03  0.7818608E-02  0.1445884E+00
          2   -1    0    0  502    0  0.00000000000E+00  0.00000000000E+00  0.94607672292E+03  0.94607672292E+03  0.00000000000E+00 0. -1.
          1   -1    0    0  501    0 -0.00000000000E+00 -0.00000000000E+00 -0.71280374366E+02  0.71280374366E+02  0.00000000000E+00 0. -1.
         25    2    1    2    0    0  0.11557813959E+03  0.48989192637E+02  0.23852341311E+03  0.29711531078E+03  0.12500336778E+03 0.  0.
          2    1    1    2  501    0 -0.11108810598E+03 -0.28154542903E+02  0.36762335164E+02  0.12035246097E+03  0.00000000000E+00 0. -1.
          1    1    1    2  502    0 -0.44900336175E+01 -0.20834649734E+02  0.59951060028E+03  0.59988932553E+03  0.00000000000E+00 0. -1.
         22    1    3    3    0    0  0.10321152068E+03 -0.17651348056E+01  0.81171264610E+02  0.13131834563E+03  0.00000000000E+00 0. -1.
         22    1    3    3    0    0  0.12366618918E+02  0.50754327442E+02  0.15735214850E+03  0.16579696515E+03  0.00000000000E+00 0. -1.
</event>
<event>
 7    1  0.6105960E-006  0.9164605E+02  0.7818608E-02  0.1415339E+00
          2   -1    0    0  502    0  0.00000000000E+00  0.00000000000E+00  0.11146180130E+03  0.11146180130E+03  0.00000000000E+00 0. -1.
          1   -1    0    0  501    0 -0.00000000000E+00 -0.00000000000E+00 -0.14051868701E+04  0.14051868701E+04  0.00000000000E+00 0. -1.
         25    2    1    2    0    0  0.97813200363E+02 -0.11389839544E+01 -0.12458992405E+03  0.20178367276E+03  0.12500112787E+03 0.  0.
          2    1    1    2  501    0 -0.85457813374E+02  0.33074389835E+02 -0.12361854377E+04  0.12395771011E+04  0.00000000000E+00 0. -1.
          1    1    1    2  502    0 -0.12355386989E+02 -0.31935405881E+02  0.67050292943E+02  0.75287897567E+02  0.00000000000E+00 0. -1.
         22    1    3    3    0    0  0.43192700004E+02 -0.15947017986E+02 -0.13640948709E+03  0.14397036113E+03  0.00000000000E+00 0. -1.
         22    1    3    3    0    0  0.54620500359E+02  0.14808034032E+02  0.11819563038E+02  0.57813311631E+02  0.00000000000E+00 0. -1.
</event>
<event>
 7    1  0.6105960E-006  0.1088224E+03  0.7818608E-02  0.1377610E+00
          2   -1    0    0  502    0  0.00000000000E+00  0.00000000000E+00  0.59622801325E+03  0.59622801325E+03  0.00000000000E+00 0. -1.
          1   -1    0    0  501    0 -0.00000000000E+00 -0.00000000000E+00 -0.30852512230E+03  0.30852512230E+03  0.00000000000E+00 0. -1.
         25    2    1    2    0    0 -0.46295420628E+02  0.12195076786E+03  0.24310057588E+02  0.18229340727E+03  0.12499860672E+03 0.  0.
          2    1    1    2  501    0  0.62433305402E+02 -0.86512592313E+02 -0.21630448812E+03  0.24118453067E+03  0.00000000000E+00 0. -1.
          1    1    1    2  502    0 -0.16137884773E+02 -0.35438175546E+02  0.47969732148E+03  0.48127519762E+03  0.00000000000E+00 0. -1.
         22    1    3    3    0    0 -0.21581619845E+02  0.11290362895E+03 -0.32694426468E+02  0.11950699254E+03  0.00000000000E+00 0. -1.
         22    1    3    3    0    0 -0.24713800783E+02  0.90471389121E+01  0.57004484055E+02  0.62786414726E+02  0.00000000000E+00 0. -1.
</event>
<event>
 7    1  0.6105960E-006  0.1049717E+03  0.7818608E-02  0.1282884E+00
          2   -1    0    0  502    0  0.00000000000E+00  0.00000000000E+00  0.10962443919E+04  0.10962443919E+04  0.00000000000E+00 0. -1.
          1   -1    0    0  501    0 -0.00000000000E+00 -0.00000000000E+00 -0.15497675925E+04  0.15497675925E+04  0.00000000000E+00 0. -1.
         25    2    1    2    0    0  0.77425880752E+02 -0.25338102951E+02  0.12092103550E+03  0.19205180671E+03  0.12500085265E+03 0.  0.
          2    1    1    2  501    0 -0.46593560619E+02 -0.80430686508E+02 -0.15095387968E+04  0.15123979087E+04  0.00000000000E+00 0. -1.
          1    1    1    2  502    0 -0.30832320133E+02  0.10576878946E+03  0.93509456076E+03  0.94156226898E+03  0.00000000000E+00 0. -1.
         22    1    3    3    0    0 -0.29399741428E+02  0.36786124020E+00  0.59023965674E+02  0.65941706391E+02  0.00000000000E+00 0.  1.
         22    1    3    3    0    0  0.10682562218E+03 -0.25705964192E+02  0.61897069825E+02  0.12611010032E+03  0.00000000000E+00 0.  1.
</event>
<event>
 7    1  0.6105960E-006  0.7141835E+02  0.7818608E-02  0.1484254E+00
          2   -1    0    0  502    0  0.00000000000E+00  0.00000000000E+00  0.53857524215E+03  0.53857524215E+03  0.00000000000E+00 0. -1.
          1   -1    0    0  501    0 -0.00000000000E+00 -0.00000000000E+00 -0.24092156846E+04  0.24092156846E+04  0.00000000000E+00 0. -1.
         25    2    1    2    0    0 -0.22860723771E+02  0.70051838253E+02 -0.46798268191E+03  0.48996176420E+03  0.12499946831E+03 0.  0.
          2    1    1    2  501    0  0.26403297942E+02  0.12915502504E+01 -0.19277346057E+04  0.19279158468E+04  0.00000000000E+00 0. -1.
          1    1    1    2  502    0 -0.35425741706E+01 -0.71343388503E+02  0.52507684516E+03  0.52991331578E+03  0.00000000000E+00 0. -1.
         22    1    3    3    0    0 -0.72627665504E+02  0.37966065152E+02 -0.32564108403E+03  0.33579504986E+03  0.00000000000E+00 0. -1.
         22    1    3    3    0    0  0.49766941733E+02  0.32085773100E+02 -0.14234159788E+03  0.15416671434E+03  0.00000000000E+00 0. -1.
</event>
<event>
 7    1  0.6105960E-006  0.1514057E+03  0.7818608E-02  0.1244769E+00
          2   -1    0    0  502    0  0.00000000000E+00  0.00000000000E+00  0.74235720910E+03  0.74235720910E+03  0.00000000000E+00 0. -1.
          1   -1    0    0  501    0 -0.00000000000E+00 -0.00000000000E+00 -0.14088256166E+04  0.14088256166E+04  0.00000000000E+00 0. -1.
         25    2    1    2    0    0 -0.21134830310E+03  0.97232197199E+02 -0.32428139408E+02  0.26607918848E+03  0.12499737966E+03 0.  0.
          2    1    1    2  501    0  0.11810269199E+03 -0.90107485097E+02 -0.12516597526E+04  0.12604442634E+04  0.00000000000E+00 0. -1.
          1    1    1    2  502    0  0.93245611113E+02 -0.71247121016E+01  0.61761948459E+03  0.62465937379E+03  0.00000000000E+00 0. -1.
         22    1    3    3    0    0 -0.13137575345E+03  0.63615292278E+02  0.41877136566E+02  0.15185581508E+03  0.00000000000E+00 0. -1.
         22    1    3    3    0    0 -0.79972549659E+02  0.33616904921E+02 -0.74305275974E+02  0.11422337341E+03  0.00000000000E+00 0. -1.
</event>
<event>
 7    1  0.6105960E-006  0.1108093E+03  0.7818608E-02  0.1357816E+00
          2   -1    0    0  502    0  0.00000000000E+00  0.00000000000E+00  0.69734354564E+03  0.69734354564E+03  0.00000000000E+00 0. -1.
          1   -1    0    0  501    0 -0.00000000000E+00 -0.00000000000E+00 -0.16144510550E+03  0.16144510550E+03  0.00000000000E+00 0. -1.
         25    2    1    2    0    0  0.49097794981E+01  0.97324840932E+02  0.65518519103E+02  0.17152093034E+03  0.12502208845E+03 0.  0.
          2    1    1    2  501    0 -0.49346871941E+02 -0.10488522890E+03 -0.76274428022E+02  0.13875811105E+03  0.00000000000E+00 0. -1.
          1    1    1    2  502    0  0.44437092443E+02  0.75603879676E+01  0.54665434906E+03  0.54850960975E+03  0.00000000000E+00 0. -1.
         22    1    3    3    0    0  0.42897792875E+01 -0.25219803162E+02 -0.10120390678E+02  0.27511142930E+02  0.00000000000E+00 0.  1.
         22    1    3    3    0    0  0.62000021058E+00  0.12254464409E+03  0.75638909781E+02  0.14400978741E+03  0.00000000000E+00 0.  1.
</event>
<event>
 7    1  0.6105960E-006  0.7210729E+02  0.7818608E-02  0.1391521E+00
          2   -1    0    0  502    0  0.00000000000E+00  0.00000000000E+00  0.46310019290E+03  0.46310019290E+03  0.00000000000E+00 0. -1.
          1   -1    0    0  501    0 -0.00000000000E+00 -0.00000000000E+00 -0.32254902011E+03  0.32254902011E+03  0.00000000000E+00 0. -1.
         25    2    1    2    0    0  0.53800100179E+02 -0.94171595465E+02  0.57799198213E+02  0.17529566664E+03  0.12500033302E+03 0.  0.
          2    1    1    2  501    0  0.28870412034E+01  0.52424646319E+02 -0.25754922650E+03  0.26284650010E+03  0.00000000000E+00 0. -1.
          1    1    1    2  502    0 -0.56687141382E+02  0.41746949145E+02  0.34030120107E+03  0.34750704627E+03  0.00000000000E+00 0. -1.
         22    1    3    3    0    0 -0.36930053145E+02 -0.55626448331E+02  0.19748713500E+02  0.69628602342E+02  0.00000000000E+00 0.  1.
         22    1    3    3    0    0  0.90730153324E+02 -0.38545147134E+02  0.38050484713E+02  0.10566706429E+03  0.00000000000E+00 0.  1.
</event>
<event>
 7    1  0.6105960E-006  0.9197998E+02  0.7818608E-02  0.1311386E+00
          2   -1    0    0  502    0  0.00000000000E+00  0.00000000000E+00  0.31943209504E+03  0.31943209504E+03  0.00000000000E+00 0. -1.
          1   -1    0    0  501    0 -0.00000000000E+00 -0.00000000000E+00 -0.54647982927E+03  0.54647982927E+03  0.00000000000E+00 0. -1.
         25    2    1    2    0    0  0.31809191376E+02  0.37668993394E+02  0.36317855771E+02  0.13918944157E+03  0.12499574503E+03 0.  0.
          2    1    1    2  501    0  0.73830101042E+02 -0.34449361070E+02 -0.47937216695E+03  0.48624614831E+03  0.00000000000E+00 0. -1.
          1    1    1    2  502    0 -0.10563929242E+03 -0.32196323235E+01  0.21600657696E+03  0.24047633444E+03  0.00000000000E+00 0. -1.
         22    1    3    3    0    0 -0.97261125027E+01  0.55085455032E+02 -0.26497413741E+02  0.61896022130E+02  0.00000000000E+00 0.  1.
         22    1    3    3    0    0  0.41535303878E+02 -0.17416461638E+02  0.62815269512E+02  0.77293419436E+02  0.00000000000E+00 0.  1.
</event>
<event>
 7    1  0.6105960E-006  0.9219404E+02  0.7818608E-02  0.1390964E+00
          2   -1    0    0  502    0  0.00000000000E+00  0.00000000000E+00  0.73985998352E+03  0.73985998352E+03  0.00000000000E+00 0. -1.
          1   -1    0    0  501    0 -0.00000000000E+00 -0.00000000000E+00 -0.11009657586E+04  0.11009657586E+04  0.00000000000E+00 0. -1.
         25    2    1    2    0    0  0.65329076134E+02 -0.11025671746E+03  0.56991579385E+03  0.59737193624E+03  0.12499914478E+03 0.  0.
          2    1    1    2  501    0 -0.60664570787E+02  0.69272576203E+02 -0.10825256686E+04  0.10864348591E+04  0.00000000000E+00 0. -1.
          1    1    1    2  502    0 -0.46645053471E+01  0.40984141254E+02  0.15150409963E+03  0.15701894678E+03  0.00000000000E+00 0. -1.
         22    1    3    3    0    0 -0.22011166846E+02 -0.20734181787E+02  0.28000807770E+03  0.28163615063E+03  0.00000000000E+00 0. -1.
         22    1    3    3    0    0  0.87340242980E+02 -0.89522535669E+02  0.28990771615E+03  0.31573578562E+03  0.00000000000E+00 0. -1.
</event>
<event>
 7    1  0.6105960E-006  0.7029099E+02  0.7818608E-02  0.1380392E+00
          2   -1    0    0  502    0  0.00000000000E+00  0.00000000000E+00  0.15334399064E+04  0.15334399064E+04  0.00000000000E+00 0. -1.
          1   -1    0    0  501    0 -0.00000000000E+00 -0.00000000000E+00 -0.16866442092E+04  0.16866442092E+04  0.00000000000E+00 0. -1.
         25    2    1    2    0    0 -0.10404977012E+03 -0.76134857432E+02  0.96165186975E+03  0.97827525594E+03  0.12500114642E+03 0.  0.
          2    1    1    2  501    0  0.54247514846E+02  0.44629608188E+02 -0.16760539687E+04  0.16775254099E+04  0.00000000000E+00 0. -1.
          1    1    1    2  502    0  0.49802255272E+02  0.31505249244E+02  0.56119779607E+03  0.56428344976E+03  0.00000000000E+00 0. -1.
         22    1    3    3    0    0 -0.73052864229E+01  0.32383711908E+02  0.22234690433E+03  0.22481151632E+03  0.00000000000E+00 0.  1.
         22    1    3    3    0    0 -0.96744483695E+02 -0.10851856934E+03  0.73930496542E+03  0.75346373962E+03  0.00000000000E+00 0.  1.
</event>
<event>
 7    1  0.6105960E-006  0.9165400E+02  0.7818608E-02  0.1419814E+00
          2   -1    0    0  502    0  0.00000000000E+00  0.00000000000E+00  0.46520125658E+02  0.46520125658E+02  0.00000000000E+00 0. -1.
          1   -1    0    0  501    0 -0.00000000000E+00 -0.00000000000E+00 -0.10101851747E+04  0.10101851747E+04  0.00000000000E+00 0. -1.
         25    2    1    2    0    0 -0.81675005886E+02  0.42382050350E+02 -0.53283287109E+03  0.55498294436E+03  0.12501262032E+03 0.  0.
          2    1    1    2  501    0  0.62442406538E+02 -0.69292728732E+02 -0.45260893477E+03  0.46212052997E+03  0.00000000000E+00 0. -1.
          1    1    1    2  502    0  0.19232599348E+02  0.26910678382E+02  0.21776756804E+02  0.39601826038E+02  0.00000000000E+00 0. -1.
         22    1    3    3    0    0 -0.71122693544E+02  0.85213491995E+02 -0.37128963192E+03  0.38752518309E+03  0.00000000000E+00 0. -1.
         22    1    3    3    0    0 -0.10552312342E+02 -0.42831441645E+02 -0.16154323917E+03  0.16745776128E+03  0.00000000000E+00 0. -1.
</event>
<event>
 7    1  0.6105960E-006  0.4693477E+02  0.7818608E-02  0.1502535E+00
          2   -1    0    0  502    0  0.00000000000E+00  0.00000000000E+00  0.53777192655E+03  0.53777192655E+03  0.00000000000E+00 0. -1.
          1   -1    0    0  501    0 -0.00000000000E+00 -0.00000000000E+00 -0.36111879675E+03  0.36111879675E+03  0.00000000000E+00 0. -1.
         25    2    1    2    0    0  0.44265974937E+02  0.18183123181E+02  0.56178383972E+02  0.14516071841E+03  0.12500208333E+03 0.  0.
          2    1    1    2  501    0 -0.24447781249E+00 -0.35434918309E+02 -0.31435062266E+03  0.31634159886E+03  0.00000000000E+00 0. -1.
          1    1    1    2  502    0 -0.44021497124E+02  0.17251795128E+02  0.43482536849E+03  0.43738840603E+03  0.00000000000E+00 0. -1.
         22    1    3    3    0    0 -0.21597933075E+02 -0.18936009418E+02 -0.22169019515E+02  0.36283723514E+02  0.00000000000E+00 0.  1.
         22    1    3    3    0    0  0.65863908012E+02  0.37119132599E+02  0.78347403488E+02  0.10887699489E+03  0.00000000000E+00 0.  1.
</event>
<event>
 7    1  0.6105960E-006  0.6840763E+02  0.7818608E-02  0.1397968E+00
          2   -1    0    0  502    0  0.00000000000E+00  0.00000000000E+00  0.24092944727E+04  0.24092944727E+04  0.00000000000E+00 0. -1.
          1   -1    0    0  501    0 -0.00000000000E+00 -0.00000000000E+00 -0.32544340898E+02  0.32544340898E+02  0.00000000000E+00 0. -1.
         25    2    1    2    0    0  0.51123557516E+02 -0.10828304071E+03  0.28936875017E+03  0.33719111976E+03  0.12499897052E+03 0.  0.
          2    1    1    2  501    0 -0.21307891603E+02  0.48056946439E+02  0.77522034209E+02  0.93665159656E+02  0.00000000000E+00 0. -1.
          1    1    1    2  502    0 -0.29815665914E+02  0.60226094275E+02  0.20098593475E+04  0.20109825342E+04  0.00000000000E+00 0. -1.
         22    1    3    3    0    0  0.11040851477E+02 -0.41961934500E+00  0.17363936444E+03  0.17399053240E+03  0.00000000000E+00 0. -1.
         22    1    3    3    0    0  0.40082706039E+02 -0.10786342137E+03  0.11572938573E+03  0.16320058736E+03  0.00000000000E+00 0. -1.
</event>
<event>
 7    1  0.6105960E-006  0.5080378E+02  0.7818608E-02  0.1444090E+00
          2   -1    0    0  502    0  0.00000000000E+00  0.00000000000E+00  0.22116985013E+03  0.22116985013E+03  0.00000000000E+00 0. -1.
          1   -1    0    0  501    0 -0.00000000000E+00 -0.00000000000E+00 -0.44438990907E+03  0.44438990907E+03  0.00000000000E+00 0. -1.
         25    2    1    2    0    0 -0.41189722138E+02  0.22414329542E+02  0.93996313819E+02  0.16327031236E+03  0.12499156975E+03 0.  0.
          2    1    1    2  501    0  0.38960606900E+02  0.32605141055E+02 -0.39980899019E+03  0.40302388607E+03  0.00000000000E+00 0. -1.
          1    1    1    2  502    0  0.22291152381E+01 -0.55019470597E+02  0.82592617429E+02  0.99265560761E+02  0.00000000000E+00 0. -1.
         22    1    3    3    0    0 -0.42148776869E+02 -0.35134360386E+02  0.21926173575E+01  0.54915846913E+02  0.00000000000E+00 0.  1.
         22    1    3    3    0    0  0.95905473081E+00  0.57548689928E+02  0.91803696462E+02  0.10835446545E+03  0.00000000000E+00 0.  1.
</event>
<event>
 7    1  0.6105960E-006  0.8969698E+02  0.7818608E-02  0.1318651E+00
          2   -1    0    0  502    0  0.00000000000E+00  0.00000000000E+00  0.29112994947E+03  0.29112994947E+03  0.00000000000E+00 0. -1.
          1   -1    0    0  501    0 -0.00000000000E+00 -0.00000000000E+00 -0.25216616880E+04  0.25216616880E+04  0.00000000000E+00 0. -1.
         25    2    1    2    0    0  0.51702685102E+02  0.53974091598E+02 -0.16587955211E+03  0.22074375844E+03  0.12500164348E+03 0.  0.
          2    1    1    2  501    0  0.18073901072E+02 -0.89402212056E+02 -0.23216289190E+04  0.23234199489E+04  0.00000000000E+00 0. -1.
          1    1    1    2  502    0 -0.69776586174E+02  0.35428120457E+02  0.25697673264E+03  0.26862793007E+03  0.00000000000E+00 0. -1.
         22    1    3    3    0    0  0.89725101222E+02  0.14657847542E+02 -0.10125822867E+03  0.13608333901E+03  0.00000000000E+00 0.  1.
         22    1    3    3    0    0 -0.38022416120E+02  0.39316244056E+02 -0.64621323446E+02  0.84660419431E+02  0.00000000000E+00 0.  1.
</event>
<event>
 7    1  0.6105960E-006  0.3617323E+02  0.7818608E-02  0.1569407E+00
          2   -1    0    0  502    0  0.00000000000E+00  0.00000000000E+00  0.33206082865E+03  0.33206082865E+03  0.00000000000E+00 0. -1.
          1   -1    0    0  501    0 -0.00000000000E+00 -0.00000000000E+00 -0.24703842222E+03  0.24703842222E+03  0.00000000000E+00 0. -1.
         25    2    1    2    0    0  0.29405208628E+02  0.25058167448E+02 -0.47476042611E+02  0.13920232510E+03  0.12502293646E+03 0.  0.
          2    1    1    2  501    0 -0.36408400803E+02  0.37790053028E+01 -0.15073366953E+03  0.15511444698E+03  0.00000000000E+00 0. -1.
          1    1    1    2  502    0  0.70031921759E+01 -0.28837172750E+02  0.28323211857E+03  0.28478247879E+03  0.00000000000E+00 0. -1.
         22    1    3    3    0    0  0.33250007339E+02  0.72808276469E+02 -0.15288194191E+02  0.81488262910E+02  0.00000000000E+00 0.  1.
         22    1    3    3    0    0 -0.38447987118E+01 -0.47750109021E+02 -0.32187848420E+02  0.57714062191E+02  0.00000000000E+00 0.  1.
</event>
<event>
 7    1  0.6105960E-006  0.4621968E+02  0.7818608E-02  0.1479206E+00
          2   -1    0    0  502    0  0.00000000000E+00  0.00000000000E+00  0.16970208429E+03  0.16970208429E+03  0.00000000000E+00 0. -1.
          1   -1    0    0  501    0 -0.00000000000E+00 -0.00000000000E+00 -0.28568065930E+03  0.28568065930E+03  0.00000000000E+00 0. -1.
         25    2    1    2    0    0  0.19329104025E+02 -0.53625453864E+01  0.15269163304E+02  0.12751728570E+03  0.12500055859E+03 0.  0.
          2    1    1    2  501    0  0.19081072192E+02  0.37781331638E+02 -0.22098972216E+03  0.22500660798E+03  0.00000000000E+00 0. -1.
          1    1    1    2  502    0 -0.38410176217E+02 -0.32418786251E+02  0.89741983844E+02  0.10285884990E+03  0.00000000000E+00 0. -1.
         22    1    3    3    0    0  0.46155609930E+02  0.44261468026E+02 -0.11668752700E+02  0.65004443459E+02  0.00000000000E+00 0. -1.
         22    1    3    3    0    0 -0.26826505905E+02 -0.49624013413E+02  0.26937916003E+02  0.62512842240E+02  0.00000000000E+00 0. -1.
</event>
<event>
 7    1  0.6105960E-006  0.8596759E+02  0.7818608E-02  0.1360537E+00
          2   -1    0    0  502    0  0.00000000000E+00  0.00000000000E+00  0.33927904590E+03  0.33927904590E+03  0.00000000000E+00 0. -1.
          1   -1    0    0  501    0 -0.00000000000E+00 -0.00000000000E+00 -0.12224350118E+04  0.12224350118E+04  0.00000000000E+00 0. -1.
         25    2    1    2    0    0  0.86153857449E+02 -0.11202572641E+03 -0.62120798348E+02  0.19863951040E+03  0.12500564377E+03 0.  0.
          2    1    1    2  501    0 -0.49521725015E+02  0.68635165028E+02 -0.10874177953E+04  0.10907064906E+04  0.00000000000E+00 0. -1.
          1    1    1    2  502    0 -0.36632132434E+02  0.43390561382E+02  0.26638262774E+03  0.27236805669E+03  0.00000000000E+00 0. -1.
         22    1    3    3    0    0  0.63731538642E+02 -0.65064670784E+02  0.27384578971E+02  0.95105391895E+02  0.00000000000E+00 0.  1.
         22    1    3    3    0    0  0.22422318807E+02 -0.46961055626E+02 -0.89505377319E+02  0.10353411851E+03  0.00000000000E+00 0.  1.
</event>
<event>
 7    1  0.6105960E-006  0.1232851E+03  0.7818608E-02  0.1292654E+00
          2   -1    0    0  502    0  0.00000000000E+00  0.00000000000E+00  0.21089512359E+03  0.21089512359E+03  0.00000000000E+00 0. -1.
          1   -1    0    0  501    0 -0.00000000000E+00 -0.00000000000E+00 -0.49161684035E+03  0.49161684035E+03  0.00000000000E+00 0. -1.
         25    2    1    2    0    0  0.50317191487E+02 -0.49217227821E+02 -0.69701020062E+02  0.15949066507E+03  0.12499953909E+03 0.  0.
          2    1    1    2  501    0 -0.11842221610E+03  0.73190006688E+02 -0.35534629576E+03  0.38164327357E+03  0.00000000000E+00 0. -1.
          1    1    1    2  502    0  0.68105024609E+02 -0.23972778867E+02  0.14432559907E+03  0.16137802530E+03  0.00000000000E+00 0. -1.
         22    1    3    3    0    0 -0.16779205968E+02 -0.12542657793E+02 -0.79670000336E+02  0.82378206893E+02  0.00000000000E+00 0. -1.
         22    1    3    3    0    0  0.67096397455E+02 -0.36674570028E+02  0.99689802743E+01  0.77112458176E+02  0.00000000000E+00 0. -1.
</event>
<event>
 7    1  0.6105960E-006  0.3323753E+02  0.7818608E-02  0.1566011E+00
          2   -1    0    0  502    0  0.00000000000E+00  0.00000000000E+00  0.16343923974E+03  0.16343923974E+03  0.00000000000E+00 0. -1.
          1   -1    0    0  501    0 -0.00000000000E+00 -0.00000000000E+00 -0.86440249831E+03  0.86440249831E+03  0.00000000000E+00 0. -1.
         25    2    1    2    0    0 -0.29929776252E+02  0.27590143092E+02  0.43122509856E+02  0.13835159161E+03  0.12499841816E+03 0.  0.
          2    1    1    2  501    0 -0.34621709308E+01 -0.32809853654E+02 -0.81250711358E+03  0.81317666146E+03  0.00000000000E+00 0. -1.
          1    1    1    2  502    0  0.33391947183E+02  0.52197105624E+01  0.68421345157E+02  0.76313484969E+02  0.00000000000E+00 0. -1.
         22    1    3    3    0    0  0.20604876711E+02  0.39882530469E+02 -0.25978461139E+02  0.51865765434E+02  0.00000000000E+00 0.  1.
         22    1    3    3    0    0 -0.50534652963E+02 -0.12292387377E+02  0.69100970995E+02  0.86485826179E+02  0.00000000000E+00 0.  1.
</event>
<event>
 7    1  0.6105960E-006  0.4624922E+02  0.7818608E-02  0.1587283E+00
          2   -1    0    0  502    0  0.00000000000E+00  0.00000000000E+00  0.43823616710E+03  0.43823616710E+03  0.00000000000E+00 0. -1.
          1   -1    0    0  501    0 -0.00000000000E+00 -0.00000000000E+00 -0.43088422368E+03  0.43088422368E+03  0.00000000000E+00 0. -1.
         25    2    1    2    0    0 -0.23078449866E+02  0.30287507872E+02  0.23154412361E+02  0.13270608422E+03  0.12499931999E+03 0.  0.
          2    1    1    2  501    0  0.13962698712E+02  0.15389646061E+02 -0.37431369388E+03  0.37489003666E+03  0.00000000000E+00 0. -1.
          1    1    1    2  502    0  0.91157511535E+01 -0.45677153934E+02  0.35851122494E+03  0.36152426989E+03  0.00000000000E+00 0. -1.
         22    1    3    3    0    0 -0.11949525161E+02  0.20180195791E+01  0.73180546936E+02  0.74177193290E+02  0.00000000000E+00 0.  1.
         22    1    3    3    0    0 -0.11128924705E+02  0.28269488293E+02 -0.50026134575E+02  0.58528890934E+02  0.00000000000E+00 0.  1.
</event>
<event>
 7    1  0.6105960E-006  0.1032082E+03  0.7818608E-02  0.1412022E+00
          2   -1    0    0  502    0  0.00000000000E+00  0.00000000000E+00  0.73782382028E+03  0.73782382028E+03  0.00000000000E+00 0. -1.
          1   -1    0    0  501    0 -0.00000000000E+00 -0.00000000000E+00 -0.10652752404E+03  0.10652752404E+03  0.00000000000E+00 0. -1.
         25    2    1    2    0    0  0.11206855059E+03  0.69373634646E+02  0.44664738355E+03  0.48217397021E+03  0.12500316435E+03 0.  0.
          2    1    1    2  501    0 -0.89340103555E+02 -0.48000853286E+02 -0.58469100133E+02  0.11706567255E+03  0.00000000000E+00 0. -1.
          1    1    1    2  502    0 -0.22728447033E+02 -0.21372781360E+02  0.24311801282E+03  0.24511170156E+03  0.00000000000E+00 0. -1.
         22    1    3    3    0    0  0.13807832636E+03  0.48567490582E+02  0.38855861257E+03  0.41521346408E+03  0.00000000000E+00 0.  1.
         22    1    3    3    0    0 -0.26009775774E+02  0.20806144064E+02  0.58088770980E+02  0.66960506126E+02  0.00000000000E+00 0.  1.
</event>
<event>
 7    1  0.6105960E-006  0.2556488E+02  0.7818608E-02  0.1678437E+00
          2   -1    0    0  502    0  0.00000000000E+00  0.00000000000E+00  0.12890776903E+04  0.12890776903E+04  0.00000000000E+00 0. -1.
          1   -1    0    0  501    0 -0.00000000000E+00 -0.00000000000E+00 -0.87017961559E+03  0.87017961559E+03  0.00000000000E+00 0. -1.
         25    2    1    2    0    0 -0.77585039387E+01  0.41774070240E+02  0.11804761496E+03  0.17710652114E+03  0.12500485233E+03 0.  0.
          2    1    1    2  501    0  0.14178761916E+02 -0.17093004654E+02 -0.84036100619E+03  0.84065440511E+03  0.00000000000E+00 0. -1.
          1    1    1    2  502    0 -0.64202579769E+01 -0.24681065586E+02  0.11412114660E+04  0.11414963797E+04  0.00000000000E+00 0. -1.
         22    1    3    3    0    0 -0.13181412547E+02  0.28526588188E+02 -0.20695211423E+02  0.37627219485E+02  0.00000000000E+00 0. -1.
         22    1    3    3    0    0  0.54229086085E+01  0.13247482052E+02  0.13874282638E+03  0.13947930165E+03  0.00000000000E+00 0. -1.
</event>
<event>
 7    1  0.6105960E-006  0.7063328E+02  0.7818608E-02  0.1406991E+00
          2   -1    0    0  502    0  0.00000000000E+00  0.00000000000E+00  0.98985424828E+03  0.98985424828E+03  0.00000000000E+00 0. -1.
          1   -1    0    0  501    0 -0.00000000000E+00 -0.00000000000E+00 -0.11279285150E+04  0.11279285150E+04  0.00000000000E+00 0. -1.
         25    2    1    2    0    0  0.56374271537E+02  0.63813308886E+02  0.67772820210E+03  0.69439934501E+03  0.12499895019E+03 0.  0.
          2    1    1    2  501    0 -0.93666378885E+01 -0.70009284142E+02 -0.11166201958E+04  0.11188519542E+04  0.00000000000E+00 0. -1.
          1    1    1    2  502    0 -0.47007633649E+02  0.61959752561E+01  0.30081772699E+03  0.30453146405E+03  0.00000000000E+00 0. -1.
         22    1    3    3    0    0 -0.64639562029E+01 -0.29422076595E+02  0.67745664592E+02  0.74141192275E+02  0.00000000000E+00 0. -1.
         22    1    3    3    0    0  0.62838227740E+02  0.93235385481E+02  0.60998253750E+03  0.62025815273E+03  0.00000000000E+00 0. -1.
</event>
<event>
 7    1  0.6105960E-006  0.7614358E+02  0.7818608E-02  0.1401566E+00
          2   -1    0    0  502    0  0.00000000000E+00  0.00000000000E+00  0.11238514632E+03  0.11238514632E+03  0.00000000000E+00 0. -1.
          1   -1    0    0  501    0 -0.00000000000E+00 -0.00000000000E+00 -0.84506395144E+03  0.84506395144E+03  0.00000000000E+00 0. -1.
         25    2    1    2    0    0 -0.12097203159E+03  0.31145347992E+01 -0.21709737861E+01  0.17399576159E+03  0.12500351663E+03 0.  0.
          2    1    1    2  501    0  0.75071235943E+02 -0.32534579703E+01 -0.73360941708E+03  0.73744766070E+03  0.00000000000E+00 0. -1.
          1    1    1    2  502    0  0.45900795650E+02  0.13892317110E+00  0.31015857493E+01  0.46005675466E+02  0.00000000000E+00 0. -1.
         22    1    3    3    0    0 -0.10224216480E+03  0.19319505362E+02 -0.53502981880E+02  0.11700116504E+03  0.00000000000E+00 0.  1.
         22    1    3    3    0    0 -0.18729866790E+02 -0.16204970563E+02  0.51332008094E+02  0.56994596550E+02  0.00000000000E+00 0.  1.
</event>
<event>
 7    1  0.6105960E-006  0.3469521E+02  0.7818608E-02  0.1580952E+00
          2   -1    0    0  502    0  0.00000000000E+00  0.00000000000E+00  0.90525644397E+03  0.90525644397E+03  0.00000000000E+00 0. -1.
          1   -1    0    0  501    0 -0.00000000000E+00 -0.00000000000E+00 -0.77445179312E+03  0.77445179312E+03  0.00000000000E+00 0. -1.
         25    2    1    2    0    0  0.36192812453E+01  0.54827810306E+02 -0.23205838661E+03  0.26924807503E+03  0.12499697250E+03 0.  0.
          2    1    1    2  501    0 -0.17368180080E+02 -0.29523918479E+02 -0.52300432908E+03  0.52412483597E+03  0.00000000000E+00 0. -1.
          1    1    1    2  502    0  0.13748898834E+02 -0.25303891827E+02  0.88586736654E+03  0.88633532608E+03  0.00000000000E+00 0. -1.
         22    1    3    3    0    0  0.61183736157E+01 -0.40570769629E+02 -0.74056339223E+02  0.84662643610E+02  0.00000000000E+00 0. -1.
         22    1    3    3    0    0 -0.24990923704E+01  0.95398579935E+02 -0.15800204738E+03  0.18458543142E+03  0.00000000000E+00 0. -1.
</event>
<event>
 7    1  0.6105960E-006  0.9166370E+02  0.7818608E-02  0.1377451E+00
          2   -1    0    0  502    0  0.00000000000E+00  0.00000000000E+00  0.36340791308E+03  0.36340791308E+03  0.00000000000E+00 0. -1.
          1   -1    0    0  501    0 -0.00000000000E+00 -0.00000000000E+00 -0.12063503031E+04  0.12063503031E+04  0.00000000000E+00 0. -1.
         25    2    1    2    0    0  0.86904900173E+02  0.10211603923E+03 -0.29403070233E+03  0.34649661502E+03  0.12500281265E+03 0.  0.
          2    1    1    2  501    0 -0.39048033482E+02 -0.24858306143E+02 -0.87934311515E+03  0.88056061601E+03  0.00000000000E+00 0. -1.
          1    1    1    2  502    0 -0.47856866691E+02 -0.77257733086E+02  0.33043142743E+03  0.34270098518E+03  0.00000000000E+00 0. -1.
         22    1    3    3    0    0 -0.14500083671E+01 -0.23890100755E+02 -0.75584866909E+02  0.79283740730E+02  0.00000000000E+00 0.  1.
         22    1    3    3    0    0  0.88354908540E+02  0.12600613998E+03 -0.21844583542E+03  0.26721287429E+03  0.00000000000E+00 0.  1.
</event>
<event>
 7    1  0.6105960E-006  0.3266769E+03  0.7818608E-02  0.1160393E+00
          2   -1    0    0  502    0  0.00000000000E+00  0.00000000000E+00  0.32747699240E+04  0.32747699240E+04  0.00000000000E+00 0. -1.
          1   -1    0    0  501    0 -0.00000000000E+00 -0.00000000000E+00 -0.23194683656E+03  0.23194683656E+03  0.00000000000E+00 0. -1.
         25    2    1    2    0    0  0.34322518767E+03 -0.82719545769E+02  0.27805271004E+03  0.46645982308E+03  0.12500161712E+03 0.  0.
          2    1    1    2  501    0 -0.27294263267E+03  0.16478355588E+03  0.49275482483E+02  0.32261335092E+03  0.00000000000E+00 0. -1.
          1    1    1    2  502    0 -0.70282554999E+02 -0.82064010106E+02  0.27154948949E+04  0.27176435866E+04  0.00000000000E+00 0. -1.
         22    1    3    3    0    0  0.75311214251E+02  0.68234090542E+01  0.12255641138E+03  0.14400837432E+03  0.00000000000E+00 0. -1.
         22    1    3    3    0    0  0.26791397342E+03 -0.89542954823E+02  0.15549629867E+03  0.32245144876E+03  0.00000000000E+00 0. -1.
</event>
<event>
 7    1  0.6105960E-006  0.2506386E+03  0.7818608E-02  0.1258348E+00
          2   -1    0    0  502    0  0.00000000000E+00  0.00000000000E+00  0.60948768079E+03  0.60948768079E+03  0.00000000000E+00 0. -1.
          1   -1    0    0  501    0 -0.00000000000E+00 -0.00000000000E+00 -0.45523518931E+03  0.45523518931E+03  0.00000000000E+00 0. -1.
         25    2    1    2    0    0 -0.14769291151E+03  0.20989542308E+03 -0.74627094046E+02  0.29506393310E+03  0.12499694682E+03 0.  0.
          2    1    1    2  501    0  0.10158407287E+03 -0.22746655246E+03 -0.21133678723E+03  0.32668577255E+03  0.00000000000E+00 0. -1.
          1    1    1    2  502    0  0.46108838639E+02  0.17571129390E+02  0.44021637275E+03  0.44297316445E+03  0.00000000000E+00 0. -1.
         22    1    3    3    0    0 -0.79957374655E+02  0.94243323458E+02  0.27434187733E+02  0.12660023868E+03  0.00000000000E+00 0.  1.
         22    1    3    3    0    0 -0.67735536852E+02  0.11565209962E+03 -0.10206128178E+03  0.16846369442E+03  0.00000000000E+00 0.  1.
</event>
<event>
 7    1  0.6105960E-006  0.5794896E+02  0.7818608E-02  0.1458655E+00
          2   -1    0    0  502    0  0.00000000000E+00  0.00000000000E+00  0.17562180768E+03  0.17562180768E+03  0.00000000000E+00 0. -1.
          1   -1    0    0  501    0 -0.00000000000E+00 -0.00000000000E+00 -0.46100422546E+03  0.46100422546E+03  0.00000000000E+00 0. -1.
         25    2    1    2    0    0 -0.10618717627E+02 -0.95394162428E+02  0.76196030116E+01  0.15778295021E+03  0.12499839054E+03 0.  0.
          2    1    1    2  501    0  0.85557530184E+01  0.56327047292E+02 -0.37958245526E+03  0.38383430997E+03  0.00000000000E+00 0. -1.
          1    1    1    2  502    0  0.20629646084E+01  0.39067115136E+02  0.86580434470E+02  0.95008772969E+02  0.00000000000E+00 0. -1.
         22    1    3    3    0    0  0.20798630099E+02 -0.37109767694E+02 -0.53034813714E+02  0.67988302950E+02  0.00000000000E+00 0.  1.
         22    1    3    3    0    0 -0.31417347726E+02 -0.58284394734E+02  0.60654416725E+02  0.89794647256E+02  0.00000000000E+00 0.  1.
</event>
<event>
 7    1  0.6105960E-006  0.9686803E+02  0.7818608E-02  0.1323203E+00
          2   -1    0    0  502    0  0.00000000000E+00  0.00000000000E+00  0.10177110695E+04  0.10177110695E+04  0.00000000000E+00 0. -1.
          1   -1    0    0  501    0 -0.00000000000E+00 -0.00000000000E+00 -0.71168164184E+03  0.71168164184E+03  0.00000000000E+00 0. -1.
         25    2    1    2    0    0  0.66139419139E+02 -0.22585126272E+02 -0.10128764536E+03  0.17540803714E+03  0.12499712676E+03 0.  0.
          2    1    1    2  501    0  0.21268492993E+02  0.66248088965E+02 -0.56877480081E+03  0.57301477479E+03  0.00000000000E+00 0. -1.
          1    1    1    2  502    0 -0.87407912132E+02 -0.43662962693E+02  0.97609187385E+03  0.98096989944E+03  0.00000000000E+00 0. -1.
         22    1    3    3    0    0 -0.17168340209E+02  0.61478466086E+01  0.18973215938E+02  0.26315980819E+02  0.00000000000E+00 0.  1.
         22    1    3    3    0    0  0.83307759348E+02 -0.28732972881E+02 -0.12026086129E+03  0.14909205632E+03  0.00000000000E+00 0.  1.
</event>
<event>
 7    1  0.6105960E-006  0.2693863E+02  0.7818608E-02  0.1679229E+00
          2   -1    0    0  502    0  0.00000000000E+00  0.00000000000E+00  0.49197598272E+03  0.49197598272E+03  0.00000000000E+00 0. -1.
          1   -1    0    0  501    0 -0.00000000000E+00 -0.00000000000E+00 -0.26333854929E+03  0.26333854929E+03  0.00000000000E+00 0. -1.
         25    2    1    2    0    0 -0.42735283708E+02 -0.17673917388E+02  0.23533041435E+02  0.13533961387E+03  0.12499734082E+03 0.  0.
          2    1    1    2  501    0  0.26348254853E+02  0.45653696769E+01 -0.20630492398E+03  0.20803075444E+03  0.00000000000E+00 0. -1.
          1    1    1    2  502    0  0.16387028855E+02  0.13108547711E+02  0.41140931598E+03  0.41194416371E+03  0.00000000000E+00 0. -1.
         22    1    3    3    0    0 -0.39460210179E+02 -0.43711955621E+02  0.64087424109E+02  0.87034712504E+02  0.00000000000E+00 0.  1.
         22    1    3    3    0    0 -0.32750735284E+01  0.26038038234E+02 -0.40554382674E+02  0.48304901364E+02  0.00000000000E+00 0.  1.
</event>
<event>
 7    1  0.6228570E-006  0.5682049E+02  0.7818608E-02  0.1492922E+00
          2   -1    0    0  502    0  0.00000000000E+00  0.00000000000E+00  0.22722519995E+04  0.22722519995E+04  0.00000000000E+00 0. -1.
          1   -1    0    0  501    0 -0.00000000000E+00 -0.00000000000E+00 -0.60318450332E+03  0.60318450332E+03  0.00000000000E+00 0. -1.
         25    2    1    2    0    0 -0.22335095256E+02 -0.44866951260E+02 -0.51286034457E+03  0.53025617066E+03  0.12503588963E+03 0.  0.
          2    1    1    2  501    0  0.29059137070E+02 -0.11564560800E+02 -0.78260005351E+02  0.84278116681E+02  0.00000000000E+00 0. -1.
          1    1    1    2  502    0 -0.67240418133E+01  0.56431512059E+02  0.22601878461E+04  0.22609022155E+04  0.00000000000E+00 0. -1.
         22    1    3    3    0    0 -0.56519450757E+02 -0.67195831092E+02 -0.26806558852E+03  0.28207957703E+03  0.00000000000E+00 0.  1.
         22    1    3    3    0    0  0.34184355501E+02  0.22328879833E+02 -0.24479475605E+03  0.24817659363E+03  0.00000000000E+00 0.  1.
</event>
<event>
 7    1  0.6105960E-006  0.7015739E+02  0.7818608E-02  0.1485577E+00
          2   -1    0    0  502    0  0.00000000000E+00  0.00000000000E+00  0.43187502989E+03  0.43187502989E+03  0.00000000000E+00 0. -1.
          1   -1    0    0  501    0 -0.00000000000E+00 -0.00000000000E+00 -0.28648997502E+03  0.28648997502E+03  0.00000000000E+00 0. -1.
         25    2    1    2    0    0  0.91732309090E+02 -0.80532512830E+01 -0.11143705899E+03  0.19111231108E+03  0.12500410371E+03 0.  0.
          2    1    1    2  501    0 -0.65100400674E+02  0.93084371249E+01 -0.12672909539E+03  0.14277595311E+03  0.00000000000E+00 0. -1.
          1    1    1    2  502    0 -0.26631908416E+02 -0.12551858420E+01  0.38355120925E+03  0.38447674072E+03  0.00000000000E+00 0. -1.
         22    1    3    3    0    0  0.75612855204E+02 -0.44136467475E+02 -0.17614697814E+02  0.89306266367E+02  0.00000000000E+00 0. -1.
         22    1    3    3    0    0  0.16119453886E+02  0.36083216192E+02 -0.93822361175E+02  0.10180604472E+03  0.00000000000E+00 0. -1.
</event>
<event>
 7    1  0.6105960E-006  0.7283573E+02  0.7818608E-02  0.1374554E+00
          2   -1    0    0  502    0  0.00000000000E+00  0.00000000000E+00  0.39328332790E+03  0.39328332790E+03  0.00000000000E+00 0. -1.
          1   -1    0    0  501    0 -0.00000000000E+00 -0.00000000000E+00 -0.32870377326E+03  0.32870377326E+03  0.00000000000E+00 0. -1.
         25    2    1    2    0    0  0.85221971192E+02 -0.41777492293E+02  0.13926018692E+03  0.20982167946E+03  0.12499437697E+03 0.  0.
          2    1    1    2  501    0 -0.54812333591E+02 -0.23546294928E+02 -0.28430832956E+03  0.29049964919E+03  0.00000000000E+00 0. -1.
          1    1    1    2  502    0 -0.30409637601E+02  0.65323787221E+02  0.20962769729E+03  0.22166577252E+03  0.00000000000E+00 0. -1.
         22    1    3    3    0    0 -0.31820283320E+02 -0.92170464449E+01  0.45895120470E+02  0.56602530497E+02  0.00000000000E+00 0.  1.
         22    1    3    3    0    0  0.11704225451E+03 -0.32560445848E+02  0.93365066445E+02  0.15321914896E+03  0.00000000000E+00 0.  1.
</event>
<event>
 7    1  0.6105960E-006  0.3987733E+02  0.7818608E-02  0.1527699E+00
          2   -1    0    0  502    0  0.00000000000E+00  0.00000000000E+00  0.22140731199E+03  0.22140731199E+03  0.00000000000E+00 0. -1.
          1   -1    0    0  501    0 -0.00000000000E+00 -0.00000000000E+00 -0.66038397018E+03  0.66038397018E+03  0.00000000000E+00 0. -1.
         25    2    1    2    0    0  0.10722710247E+02 -0.12911202381E+02  0.11224383389E+03  0.16883604293E+03  0.12500102192E+03 0.  0.
          2    1    1    2  501    0 -0.39276373651E+02 -0.76875906759E+01 -0.62758774698E+03  0.62886255473E+03  0.00000000000E+00 0. -1.
          1    1    1    2  502    0  0.28553663404E+02  0.20598793057E+02  0.76367254897E+02  0.84092684520E+02  0.00000000000E+00 0. -1.
         22    1    3    3    0    0 -0.10894569302E+02  0.28245826229E+02 -0.14695088770E+02  0.33652102068E+02  0.00000000000E+00 0.  1.
         22    1    3    3    0    0  0.21617279549E+02 -0.41157028610E+02  0.12693892266E+03  0.13518394086E+03  0.00000000000E+00 0.  1.
</event>
<event>
 7    1  0.6105960E-006  0.1179315E+03  0.7818608E-02  0.1434347E+00
          2   -1    0    0  502    0  0.00000000000E+00  0.00000000000E+00  0.34062227813E+03  0.34062227813E+03  0.00000000000E+00 0. -1.
          1   -1    0    0  501    0 -0.00000000000E+00 -0.00000000000E+00 -0.20313586470E+04  0.20313586470E+04  0.00000000000E+00 0. -1.
         25    2    1    2    0    0 -0.11811525586E+02 -0.95066796913E+02 -0.30996742553E+03  0.34768083784E+03  0.12499980840E+03 0.  0.
          2    1    1    2  501    0 -0.56453868048E+01 -0.22311267897E+02 -0.16915121036E+04  0.16916686613E+04  0.00000000000E+00 0. -1.
          1    1    1    2  502    0  0.17456912391E+02  0.11737806481E+03  0.31074316027E+03  0.33263142597E+03  0.00000000000E+00 0. -1.
         22    1    3    3    0    0 -0.13068853531E+01 -0.86951257136E+02 -0.82636169629E+02  0.11996235075E+03  0.00000000000E+00 0. -1.
         22    1    3    3    0    0 -0.10504640233E+02 -0.81155397775E+01 -0.22733125590E+03  0.22771848709E+03  0.00000000000E+00 0. -1.
</event>
<event>
 7    1  0.6105960E-006  0.6540061E+02  0.7818608E-02  0.1499971E+00
          2   -1    0    0  502    0  0.00000000000E+00  0.00000000000E+00  0.12918660253E+04  0.12918660253E+04  0.00000000000E+00 0. -1.
          1   -1    0    0  501    0 -0.00000000000E+00 -0.00000000000E+00 -0.12017806792E+02  0.12017806792E+02  0.00000000000E+00 0. -1.
         25    2    1    2    0    0 -0.64650894382E+02  0.30190207890E+02  0.72551256734E+03  0.73965138464E+03  0.12499799452E+03 0.  0.
          2    1    1    2  501    0  0.19889082767E+02  0.16561487376E+02  0.55769737917E+02  0.61482697930E+02  0.00000000000E+00 0. -1.
          1    1    1    2  502    0  0.44761811615E+02 -0.46751695267E+02  0.49856591325E+03  0.50274974953E+03  0.00000000000E+00 0. -1.
         22    1    3    3    0    0  0.10414606223E+02 -0.18393660196E+02  0.22109755461E+02  0.30588102994E+02  0.00000000000E+00 0. -1.
         22    1    3    3    0    0 -0.75065500605E+02  0.48583868087E+02  0.70340281188E+03  0.70906328165E+03  0.00000000000E+00 0. -1.
</event>
<event>
 7    1  0.6105960E-006  0.3813956E+03  0.7818608E-02  0.1145163E+00
          2   -1    0    0  502    0  0.00000000000E+00  0.00000000000E+00  0.24004762756E+04  0.24004762756E+04  0.00000000000E+00 0. -1.
          1   -1    0    0  501    0 -0.00000000000E+00 -0.00000000000E+00 -0.10883083529E+04  0.10883083529E+04  0.00000000000E+00 0. -1.
         25    2    1    2    0    0  0.23169685312E+03  0.38842493241E+03  0.15420682693E+03  0.49392491115E+03  0.12499885009E+03 0.  0.
          2    1    1    2  501    0  0.18675293662E+02 -0.10916175573E+03 -0.89808299209E+03  0.90488569233E+03  0.00000000000E+00 0. -1.
          1    1    1    2  502    0 -0.25037214678E+03 -0.27926317668E+03  0.20560440879E+04  0.20899740250E+04  0.00000000000E+00 0. -1.
         22    1    3    3    0    0  0.10770891780E+03  0.73588146614E+02  0.33634522542E+02  0.13471342696E+03  0.00000000000E+00 0. -1.
         22    1    3    3    0    0  0.12398793532E+03  0.31483678579E+03  0.12057230438E+03  0.35921148420E+03  0.00000000000E+00 0. -1.
</event>
<event>
 7    1  0.6105960E-006  0.1322364E+03  0.7818608E-02  0.1293753E+00
          2   -1    0    0  502    0  0.00000000000E+00  0.00000000000E+00  0.11273824673E+04  0.11273824673E+04  0.00000000000E+00 0. -1.
          1   -1    0    0  501    0 -0.00000000000E+00 -0.00000000000E+00 -0.18242937051E+03  0.18242937051E+03  0.00000000000E+00 0. -1.
         25    2    1    2    0    0 -0.49030307009E+02  0.17974137361E+03  0.45429125597E+03  0.50667211561E+03  0.12500062037E+03 0.  0.
          2    1    1    2  501    0  0.89098443446E+01 -0.66029596394E+02 -0.14318352094E+03  0.15792660825E+03  0.00000000000E+00 0. -1.
          1    1    1    2  502    0  0.40120462664E+02 -0.11371177721E+03  0.63384536176E+03  0.64521311396E+03  0.00000000000E+00 0. -1.
         22    1    3    3    0    0  0.39977681411E+02  0.32596320155E+02  0.12377371954E+03  0.13409201597E+03  0.00000000000E+00 0.  1.
         22    1    3    3    0    0 -0.89007988419E+02  0.14714505345E+03  0.33051753643E+03  0.37258009964E+03  0.00000000000E+00 0.  1.
</event>
<event>
 7    1  0.6105960E-006  0.7776811E+02  0.7818608E-02  0.1438790E+00
          2   -1    0    0  502    0  0.00000000000E+00  0.00000000000E+00  0.28421791742E+04  0.28421791742E+04  0.00000000000E+00 0. -1.
          1   -1    0    0  501    0 -0.00000000000E+00 -0.00000000000E+00 -0.22122202029E+04  0.22122202029E+04  0.00000000000E+00 0. -1.
         25    2    1    2    0    0  0.22674002852E+02  0.50996515528E+02  0.15945614498E+03  0.21015803541E+03  0.12500153069E+03 0.  0.
          2    1    1    2  501    0  0.33566093070E+02  0.35667776337E+01 -0.21861612919E+04  0.21864218711E+04  0.00000000000E+00 0. -1.
          1    1    1    2  502    0 -0.56240095922E+02 -0.54563293162E+02  0.26566641182E+04  0.26578194706E+04  0.00000000000E+00 0. -1.
         22    1    3    3    0    0 -0.30229586912E+02  0.43563066630E+02  0.14561815451E+03  0.15497166071E+03  0.00000000000E+00 0.  1.
         22    1    3    3    0    0  0.52903589764E+02  0.74334488983E+01  0.13837990469E+02  0.55186374701E+02  0.00000000000E+00 0.  1.
</event>
<event>
 7    1  0.6105960E-006  0.7418098E+02  0.7818608E-02  0.1376769E+00
          2   -1    0    0  502    0  0.00000000000E+00  0.00000000000E+00  0.25279009787E+03  0.25279009787E+03  0.00000000000E+00 0. -1.
          1   -1    0    0  501    0 -0.00000000000E+00 -0.00000000000E+00 -0.23810560453E+03  0.23810560453E+03  0.00000000000E+00 0. -1.
         25    2    1    2    0    0  0.39443216773E+02  0.79558854365E+02 -0.35474858798E+02  0.15738025754E+03  0.12499880479E+03 0.  0.
          2    1    1    2  501    0  0.17649831336E+02 -0.72573048995E+02 -0.12695498860E+03  0.14729539408E+03  0.00000000000E+00 0. -1.
          1    1    1    2  502    0 -0.57093048109E+02 -0.69858053697E+01  0.17711434074E+03  0.18622005079E+03  0.00000000000E+00 0. -1.
         22    1    3    3    0    0  0.60421637440E+02  0.96348967282E+02 -0.52823487958E+02  0.12539624654E+03  0.00000000000E+00 0. -1.
         22    1    3    3    0    0 -0.20978420667E+02 -0.16790112916E+02  0.17348629159E+02  0.31984010992E+02  0.00000000000E+00 0. -1.
</event>
<event>
 7    1  0.6105960E-006  0.9367337E+02  0.7818608E-02  0.1356685E+00
          2   -1    0    0  502    0  0.00000000000E+00  0.00000000000E+00  0.11321429347E+04  0.11321429347E+04  0.00000000000E+00 0. -1.
          1   -1    0    0  501    0 -0.00000000000E+00 -0.00000000000E+00 -0.49679296573E+03  0.49679296573E+03  0.00000000000E+00 0. -1.
         25    2    1    2    0    0 -0.65235930639E+02  0.46609012208E+02  0.11910630579E+03  0.19036763583E+03  0.12500159211E+03 0.  0.
          2    1    1    2  501    0  0.94521577865E+02 -0.14387673042E+01 -0.45556501865E+03  0.46526969056E+03  0.00000000000E+00 0. -1.
          1    1    1    2  502    0 -0.29285647226E+02 -0.45170244904E+02  0.97180868179E+03  0.97329857401E+03  0.00000000000E+00 0. -1.
         22    1    3    3    0    0 -0.70786300532E+02  0.83380754390E+02  0.74721115848E+02  0.13246243127E+03  0.00000000000E+00 0. -1.
         22    1    3    3    0    0  0.55503698925E+01 -0.36771742181E+02  0.44385189941E+02  0.57905204559E+02  0.00000000000E+00 0. -1.
</event>
<event>
 7    1  0.6105960E-006  0.7310184E+02  0.7818608E-02  0.1448911E+00
          2   -1    0    0  502    0  0.00000000000E+00  0.00000000000E+00  0.29537557671E+03  0.29537557671E+03  0.00000000000E+00 0. -1.
          1   -1    0    0  501    0 -0.00000000000E+00 -0.00000000000E+00 -0.11484714968E+03  0.11484714968E+03  0.00000000000E+00 0. -1.
         25    2    1    2    0    0  0.86306723395E+01 -0.97199415706E+02  0.16884620903E+03  0.23163860362E+03  0.12500074185E+03 0.  0.
          2    1    1    2  501    0 -0.34403135072E+01  0.33129602081E+02 -0.68290609900E+02  0.75980350694E+02  0.00000000000E+00 0. -1.
          1    1    1    2  502    0 -0.51903588323E+01  0.64069813625E+02  0.79972827902E+02  0.10260377208E+03  0.00000000000E+00 0. -1.
         22    1    3    3    0    0  0.62881747243E+02 -0.23858897592E+02  0.75701619025E+02  0.10126251159E+03  0.00000000000E+00 0. -1.
         22    1    3    3    0    0 -0.54251074903E+02 -0.73340518115E+02  0.93144590001E+02  0.13037609203E+03  0.00000000000E+00 0. -1.
</event>
<event>
 7    1  0.6105960E-006  0.4717630E+02  0.7818608E-02  0.1534461E+00
          2   -1    0    0  502    0  0.00000000000E+00  0.00000000000E+00  0.51031884265E+02  0.51031884265E+02  0.00000000000E+00 0. -1.
          1   -1    0    0  501    0 -0.00000000000E+00 -0.00000000000E+00 -0.67312990377E+03  0.67312990377E+03  0.00000000000E+00 0. -1.
         25    2    1    2    0    0  0.25138174418E+02  0.54703981629E+01 -0.36524237293E+03  0.38689328390E+03  0.12499027591E+03 0.  0.
          2    1    1    2  501    0  0.20989771012E+02 -0.19226410906E+02 -0.28167610639E+03  0.28311067496E+03  0.00000000000E+00 0. -1.
          1    1    1    2  502    0 -0.46127945430E+02  0.13756012743E+02  0.24820459815E+02  0.54157829181E+02  0.00000000000E+00 0. -1.
         22    1    3    3    0    0  0.33348477759E+02  0.59701478100E+02 -0.25127488177E+03  0.26041400436E+03  0.00000000000E+00 0.  1.
         22    1    3    3    0    0 -0.82103033403E+01 -0.54231079937E+02 -0.11396749116E+03  0.12647927955E+03  0.00000000000E+00 0.  1.
</event>
<event>
 7    1  0.6105960E-006  0.2865563E+03  0.7818608E-02  0.1268566E+00
          2   -1    0    0  502    0  0.00000000000E+00  0.00000000000E+00  0.31227922398E+04  0.31227922398E+04  0.00000000000E+00 0. -1.
          1   -1    0    0  501    0 -0.00000000000E+00 -0.00000000000E+00 -0.70942686695E+02  0.70942686695E+02  0.00000000000E+00 0. -1.
         25    2    1    2    0    0 -0.51413939690E+02  0.30888885619E+03  0.10548698539E+04  0.11074429106E+04  0.12499469118E+03 0.  0.
          2    1    1    2  501    0  0.56724207682E+02 -0.27019427147E+03  0.38457144517E+03  0.47341079045E+03  0.00000000000E+00 0. -1.
          1    1    1    2  502    0 -0.53102679925E+01 -0.38694584719E+02  0.16124082541E+04  0.16128812255E+04  0.00000000000E+00 0. -1.
         22    1    3    3    0    0 -0.35642070243E+02  0.37002046520E+02  0.31247335350E+03  0.31666876270E+03  0.00000000000E+00 0. -1.
         22    1    3    3    0    0 -0.15771869447E+02  0.27188680967E+03  0.74239650041E+03  0.79077414788E+03  0.00000000000E+00 0. -1.
</event>
<event>
 7    1  0.6105960E-006  0.4238477E+02  0.7818608E-02  0.1506974E+00
          2   -1    0    0  502    0  0.00000000000E+00  0.00000000000E+00  0.26059046538E+02  0.26059046538E+02  0.00000000000E+00 0. -1.
          1   -1    0    0  501    0 -0.00000000000E+00 -0.00000000000E+00 -0.74818549976E+03  0.74818549976E+03  0.00000000000E+00 0. -1.
         25    2    1    2    0    0  0.94316780858E+01  0.13922488235E+02 -0.25811718620E+03  0.28728538624E+03  0.12500247640E+03 0.  0.
          2    1    1    2  501    0  0.31849822275E+02 -0.27965286570E+02 -0.42886636370E+03  0.43095571275E+03  0.00000000000E+00 0. -1.
          1    1    1    2  502    0 -0.41281500361E+02  0.14042798336E+02 -0.35142903321E+02  0.56003447314E+02  0.00000000000E+00 0. -1.
         22    1    3    3    0    0  0.40489101109E+02 -0.37675609327E+02 -0.18204055283E+03  0.19025662071E+03  0.00000000000E+00 0. -1.
         22    1    3    3    0    0 -0.31057423023E+02  0.51598097561E+02 -0.76076633363E+02  0.97028765531E+02  0.00000000000E+00 0. -1.
</event>
<event>
 7    1  0.6105960E-006  0.6140014E+02  0.7818608E-02  0.1529440E+00
          2   -1    0    0  502    0  0.00000000000E+00  0.00000000000E+00  0.96572127279E+03  0.96572127279E+03  0.00000000000E+00 0. -1.
          1   -1    0    0  501    0 -0.00000000000E+00 -0.00000000000E+00 -0.29104712379E+02  0.29104712379E+02  0.00000000000E+00 0. -1.
         25    2    1    2    0    0 -0.93466063149E+01  0.55086648639E+02  0.35958864924E+03  0.38477392450E+03  0.12500031361E+03 0.  0.
          2    1    1    2  501    0  0.21722034811E+02  0.62559376734E+01 -0.62291715870E+01  0.23447518657E+02  0.00000000000E+00 0. -1.
          1    1    1    2  502    0 -0.12375428496E+02 -0.61342586313E+02  0.58325708275E+03  0.58660454201E+03  0.00000000000E+00 0. -1.
         22    1    3    3    0    0  0.16708002118E+02  0.33811277399E+02  0.34671011876E+03  0.34875531001E+03  0.00000000000E+00 0.  1.
         22    1    3    3    0    0 -0.26054608433E+02  0.21275371240E+02  0.12878530487E+02  0.36018614486E+02  0.00000000000E+00 0.  1.
</event>
<event>
 7    1  0.6105960E-006  0.1662676E+03  0.7818608E-02  0.1335521E+00
          2   -1    0    0  502    0  0.00000000000E+00  0.00000000000E+00  0.92624785755E+03  0.92624785755E+03  0.00000000000E+00 0. -1.
          1   -1    0    0  501    0 -0.00000000000E+00 -0.00000000000E+00 -0.94436581659E+03  0.94436581659E+03  0.00000000000E+00 0. -1.
         25    2    1    2    0    0 -0.35187929645E+02 -0.17938781709E+03  0.28775813091E+02  0.22331982763E+03  0.12500207470E+03 0.  0.
          2    1    1    2  501    0  0.33426399220E+02  0.14333767327E+02 -0.83818303104E+03  0.83897173645E+03  0.00000000000E+00 0. -1.
          1    1    1    2  502    0  0.17615304252E+01  0.16505404977E+03  0.79128925891E+03  0.80832211005E+03  0.00000000000E+00 0. -1.
         22    1    3    3    0    0 -0.70497072996E+02 -0.58352410123E+02 -0.83299797023E+01  0.91892489519E+02  0.00000000000E+00 0. -1.
         22    1    3    3    0    0  0.35309143351E+02 -0.12103540697E+03  0.37105792793E+02  0.13142733811E+03  0.00000000000E+00 0. -1.
</event>
<event>
 7    1  0.6105960E-006  0.7524903E+02  0.7818608E-02  0.1415778E+00
          2   -1    0    0  502    0  0.00000000000E+00  0.00000000000E+00  0.17920682208E+04  0.17920682208E+04  0.00000000000E+00 0. -1.
          1   -1    0    0  501    0 -0.00000000000E+00 -0.00000000000E+00 -0.23567307511E+02  0.23567307511E+02  0.00000000000E+00 0. -1.
         25    2    1    2    0    0 -0.34630481789E+02  0.40024946106E+02  0.69082254522E+03  0.70403196031E+03  0.12499578226E+03 0.  0.
          2    1    1    2  501    0 -0.40693292165E+02 -0.84546596847E+01  0.12645063425E+02  0.43443330059E+02  0.00000000000E+00 0. -1.
          1    1    1    2  502    0  0.75323773954E+02 -0.31570286421E+02  0.10650333046E+04  0.10681602379E+04  0.00000000000E+00 0. -1.
         22    1    3    3    0    0  0.13406726580E+02 -0.35500729134E+02  0.33422733405E+03  0.33637472098E+03  0.00000000000E+00 0.  1.
         22    1    3    3    0    0 -0.48037208370E+02  0.75525675240E+02  0.35659521117E+03  0.36765723934E+03  0.00000000000E+00 0.  1.
</event>
<event>
 7    1  0.6105960E-006  0.4017145E+02  0.7818608E-02  0.1571519E+00
          2   -1    0    0  502    0  0.00000000000E+00  0.00000000000E+00  0.24495703432E+03  0.24495703432E+03  0.00000000000E+00 0. -1.
          1   -1    0    0  501    0 -0.00000000000E+00 -0.00000000000E+00 -0.57680925467E+03  0.57680925467E+03  0.00000000000E+00 0. -1.
         25    2    1    2    0    0 -0.11315225655E+02  0.97569450877E+01 -0.46953639659E+03  0.48611945513E+03  0.12499785847E+03 0.  0.
          2    1    1    2  501    0 -0.25605077945E+02  0.63104410308E+01 -0.95468013289E+02  0.99043340230E+02  0.00000000000E+00 0. -1.
          1    1    1    2  502    0  0.36920303600E+02 -0.16067386119E+02  0.23315218953E+03  0.23660349363E+03  0.00000000000E+00 0. -1.
         22    1    3    3    0    0  0.34506147672E+02  0.43590362912E+02 -0.12363247559E+03  0.13555730517E+03  0.00000000000E+00 0. -1.
         22    1    3    3    0    0 -0.45821373327E+02 -0.33833417824E+02 -0.34590392100E+03  0.35056214995E+03  0.00000000000E+00 0. -1.
</event>
<event>
 7    1  0.6105960E-006  0.1597104E+03  0.7818608E-02  0.1359080E+00
          2   -1    0    0  502    0  0.00000000000E+00  0.00000000000E+00  0.32350623100E+03  0.32350623100E+03  0.00000000000E+00 0. -1.
          1   -1    0    0  501    0 -0.00000000000E+00 -0.00000000000E+00 -0.54325404833E+03  0.54325404833E+03  0.00000000000E+00 0. -1.
         25    2    1    2    0    0 -0.48577255862E+02  0.12539455898E+03 -0.18980992785E+01  0.18361017076E+03  0.12500218724E+03 0.  0.
          2    1    1    2  501    0  0.49239319080E+02 -0.15633058323E+03 -0.43445618329E+03  0.46434463170E+03  0.00000000000E+00 0. -1.
          1    1    1    2  502    0 -0.66206321816E+00  0.30936024246E+02  0.21660646523E+03  0.21880547686E+03  0.00000000000E+00 0. -1.
         22    1    3    3    0    0 -0.48006528590E+02  0.11896910208E+01  0.28361536045E+02  0.55771129438E+02  0.00000000000E+00 0.  1.
         22    1    3    3    0    0 -0.57072727201E+00  0.12420486796E+03 -0.30259635323E+02  0.12783904132E+03  0.00000000000E+00 0.  1.
</event>
<event>
 7    1  0.6105960E-006  0.1091360E+03  0.7818608E-02  0.1289815E+00
          2   -1    0    0  502    0  0.00000000000E+00  0.00000000000E+00  0.21844494286E+04  0.21844494286E+04  0.00000000000E+00 0. -1.
          1   -1    0    0  501    0 -0.00000000000E+00 -0.00000000000E+00 -0.27631744524E+03  0.27631744524E+03  0.00000000000E+00 0. -1.
         25    2    1    2    0    0  0.46999663365E+02 -0.15275541410E+02  0.18260942530E+03  0.22674685883E+03  0.12500250101E+03 0.  0.
          2    1    1    2  501    0  0.11970179480E+02 -0.82895511377E+02 -0.24564366461E+03  0.25952988454E+03  0.00000000000E+00 0. -1.
          1    1    1    2  502    0 -0.58969842845E+02  0.98171052787E+02  0.19711662226E+04  0.19744901304E+04  0.00000000000E+00 0. -1.
         22    1    3    3    0    0  0.88821914664E+02  0.26536671768E+01  0.12373251528E+03  0.15233551724E+03  0.00000000000E+00 0. -1.
         22    1    3    3    0    0 -0.41822251299E+02 -0.17929208587E+02  0.58876910020E+02  0.74411341594E+02  0.00000000000E+00 0. -1.
</event>
<event>
 7    1  0.8085556E-006  0.6810749E+02  0.7818608E-02  0.1400448E+00
          2   -1    0    0  502    0  0.00000000000E+00  0.00000000000E+00  0.65588894799E+03  0.65588894799E+03  0.00000000000E+00 0. -1.
          1   -1    0    0  501    0 -0.00000000000E+00 -0.00000000000E+00 -0.13514204392E+04  0.13514204392E+04  0.00000000000E+00 0. -1.
         25    2    1    2    0    0  0.19254480209E+02  0.10166833156E+02 -0.90289423196E+02  0.15573066190E+03  0.12500303840E+03 0.  0.
          2    1    1    2  501    0 -0.69557847520E+02  0.20788314859E+01 -0.12263469764E+04  0.12283197964E+04  0.00000000000E+00 0. -1.
          1    1    1    2  502    0  0.50303367311E+02 -0.12245664642E+02  0.62110490845E+03  0.62325892883E+03  0.00000000000E+00 0. -1.
         22    1    3    3    0    0  0.63226985237E+02  0.24644466414E+02 -0.85547061452E+02  0.10919386938E+03  0.00000000000E+00 0.  1.
         22    1    3    3    0    0 -0.43972505028E+02 -0.14477633259E+02 -0.47423617438E+01  0.46536792521E+02  0.00000000000E+00 0.  1.
</event>
<event>
 7    1  0.6105960E-006  0.1673070E+03  0.7818608E-02  0.1248445E+00
          2   -1    0    0  502    0  0.00000000000E+00  0.00000000000E+00  0.19220678960E+04  0.19220678960E+04  0.00000000000E+00 0. -1.
          1   -1    0    0  501    0 -0.00000000000E+00 -0.00000000000E+00 -0.41151483900E+03  0.41151483900E+03  0.00000000000E+00 0. -1.
         25    2    1    2    0    0  0.29582462210E+02  0.14471878824E+03 -0.17208770502E+03  0.25895274347E+03  0.12499478145E+03 0.  0.
          2    1    1    2  501    0 -0.10899448800E+03 -0.16332210112E+03 -0.14567900190E+03  0.24449187865E+03  0.00000000000E+00 0. -1.
          1    1    1    2  502    0  0.79412025791E+02  0.18603312883E+02  0.18283197639E+04  0.18301381129E+04  0.00000000000E+00 0. -1.
         22    1    3    3    0    0  0.96920633827E+01 -0.39538444324E+01  0.15540588202E+02  0.18737098497E+02  0.00000000000E+00 0.  1.
         22    1    3    3    0    0  0.19890398828E+02  0.14867263267E+03 -0.18762829323E+03  0.24021564497E+03  0.00000000000E+00 0.  1.
</event>
<event>
 7    1  0.6105960E-006  0.2247986E+03  0.7818608E-02  0.1284110E+00
          2   -1    0    0  502    0  0.00000000000E+00  0.00000000000E+00  0.28250299421E+04  0.28250299421E+04  0.00000000000E+00 0. -1.
          1   -1    0    0  501    0 -0.00000000000E+00 -0.00000000000E+00 -0.67854419476E+02  0.67854419476E+02  0.00000000000E+00 0. -1.
         25    2    1    2    0    0  0.20991038587E+03  0.81491775414E+02  0.72620861200E+03  0.77052241534E+03  0.12499025900E+03 0.  0.
          2    1    1    2  501    0 -0.19118226329E+03 -0.12009258708E+03  0.23499115711E+03  0.32587379641E+03  0.00000000000E+00 0. -1.
          1    1    1    2  502    0 -0.18728122583E+02  0.38600811665E+02  0.17959757535E+04  0.17964881498E+04  0.00000000000E+00 0. -1.
         22    1    3    3    0    0  0.15935748085E+03  0.17761455054E+02  0.59427671308E+03  0.61552829967E+03  0.00000000000E+00 0.  1.
         22    1    3    3    0    0  0.50552905025E+02  0.63730320360E+02  0.13193189892E+03  0.15499411567E+03  0.00000000000E+00 0.  1.
</event>
<event>
 7    1  0.6105960E-006  0.5860347E+02  0.7818608E-02  0.1444664E+00
          2   -1    0    0  502    0  0.00000000000E+00  0.00000000000E+00  0.51930957194E+03  0.51930957194E+03  0.00000000000E+00 0. -1.
          1   -1    0    0  501    0 -0.00000000000E+00 -0.00000000000E+00 -0.12141017200E+04  0.12141017200E+04  0.00000000000E+00 0. -1.
         25    2    1    2    0    0 -0.17428319120E+02  0.27387549260E+02 -0.40629697995E+03  0.42632949992E+03  0.12500312964E+03 0.  0.
          2    1    1    2  501    0  0.59570422237E+02 -0.19495563412E+02 -0.79565141911E+03  0.79811646577E+03  0.00000000000E+00 0. -1.
          1    1    1    2  502    0 -0.42142103117E+02 -0.78919858483E+01  0.50715625105E+03  0.50896532620E+03  0.00000000000E+00 0. -1.
         22    1    3    3    0    0 -0.13944240084E+02 -0.48872069374E+02 -0.12710666410E+03  0.13689055868E+03  0.00000000000E+00 0. -1.
         22    1    3    3    0    0 -0.34840790370E+01  0.76259618634E+02 -0.27919031585E+03  0.28943894124E+03  0.00000000000E+00 0. -1.
</event>
<event>
 7    1  0.6105960E-006  0.7469670E+02  0.7818608E-02  0.1412144E+00
          2   -1    0    0  502    0  0.00000000000E+00  0.00000000000E+00  0.18454772974E+04  0.18454772974E+04  0.00000000000E+00 0. -1.
          1   -1    0    0  501    0 -0.00000000000E+00 -0.00000000000E+00 -0.38004177488E+02  0.38004177488E+02  0.00000000000E+00 0. -1.
         25    2    1    2    0    0  0.16186259240E+02 -0.30042970238E+02  0.88978798882E+03  0.89917334982E+03  0.12500189171E+03 0.  0.
          2    1    1    2  501    0 -0.27972498433E+02  0.71465773344E+02  0.12092479753E+02  0.77691991189E+02  0.00000000000E+00 0. -1.
          1    1    1    2  502    0  0.11786239193E+02 -0.41422803106E+02  0.90559265132E+03  0.90661613386E+03  0.00000000000E+00 0. -1.
         22    1    3    3    0    0  0.23247733216E+02 -0.68110259313E+02  0.31649098771E+03  0.32457050055E+03  0.00000000000E+00 0.  1.
         22    1    3    3    0    0 -0.70614739760E+01  0.38067289074E+02  0.57329700111E+03  0.57460284927E+03  0.00000000000E+00 0.  1.
</event>
<event>
 7    1  0.6105960E-006  0.7347188E+02  0.7818608E-02  0.1509314E+00
          2   -1    0    0  502    0  0.00000000000E+00  0.00000000000E+00  0.16266454899E+04  0.16266454899E+04  0.00000000000E+00 0. -1.
          1   -1    0    0  501    0 -0.00000000000E+00 -0.00000000000E+00 -0.12026505508E+04  0.12026505508E+04  0.00000000000E+00 0. -1.
         25    2    1    2    0    0  0.76375836152E+02  0.10273452135E+02  0.18751663282E+03  0.23817508431E+03  0.12500428407E+03 0.  0.
          2    1    1    2  501    0 -0.92483472453E+01  0.19536119523E+02 -0.11762680328E+04  0.11764666068E+04  0.00000000000E+00 0. -1.
          1    1    1    2  502    0 -0.67127488906E+02 -0.29809571657E+02  0.14127463390E+04  0.14146543496E+04  0.00000000000E+00 0. -1.
         22    1    3    3    0    0  0.18658709351E+02  0.35508654201E+02 -0.26082244584E+00  0.40113339254E+02  0.00000000000E+00 0. -1.
         22    1    3    3    0    0  0.57717126800E+02 -0.25235202066E+02  0.18777745526E+03  0.19806174505E+03  0.00000000000E+00 0. -1.
</event>
<event>
 7    1  0.6105960E-006  0.6086259E+02  0.7818608E-02  0.1437845E+00
          2   -1    0    0  502    0  0.00000000000E+00  0.00000000000E+00  0.71916740854E+03  0.71916740854E+03  0.00000000000E+00 0. -1.
          1   -1    0    0  501    0 -0.00000000000E+00 -0.00000000000E+00 -0.46899771143E+03  0.46899771143E+03  0.00000000000E+00 0. -1.
         25    2    1    2    0    0 -0.36752966842E+02 -0.26370351583E+02 -0.38286210510E+02  0.13833823607E+03  0.12500183050E+03 0.  0.
          2    1    1    2  501    0 -0.23747115028E+02  0.36371367666E+02 -0.37803430206E+03  0.38052166218E+03  0.00000000000E+00 0. -1.
          1    1    1    2  502    0  0.60500081869E+02 -0.10001016084E+02  0.66649020968E+03  0.66930522172E+03  0.00000000000E+00 0. -1.
         22    1    3    3    0    0 -0.82616166436E+02 -0.86421024184E+01 -0.30840685545E+02  0.88607362988E+02  0.00000000000E+00 0. -1.
         22    1    3    3    0    0  0.45863199594E+02 -0.17728249164E+02 -0.74455249640E+01  0.49730873082E+02  0.00000000000E+00 0. -1.
</event>
<event>
 7    1  0.6105960E-006  0.3788403E+03  0.7818608E-02  0.1300667E+00
          2   -1    0    0  502    0  0.00000000000E+00  0.00000000000E+00  0.77337836830E+03  0.77337836830E+03  0.00000000000E+00 0. -1.
          1   -1    0    0  501    0 -0.00000000000E+00 -0.00000000000E+00 -0.16113061425E+04  0.16113061425E+04  0.00000000000E+00 0. -1.
         25    2    1    2    0    0  0.27738961027E+03  0.26908772855E+03 -0.57007823832E+03  0.69997651120E+03  0.12499886751E+03 0.  0.
          2    1    1    2  501    0  0.76667193368E+01 -0.20423243777E+02 -0.92564517742E+03  0.92590219891E+03  0.00000000000E+00 0. -1.
          1    1    1    2  502    0 -0.28505632961E+03 -0.24866448478E+03  0.65779564158E+03  0.75880580066E+03  0.00000000000E+00 0. -1.
         22    1    3    3    0    0  0.25701926068E+03  0.18864914028E+03 -0.49047319022E+03  0.58498833220E+03  0.00000000000E+00 0. -1.
         22    1    3    3    0    0  0.20370349592E+02  0.80438588275E+02 -0.79605048106E+02  0.11498817900E+03  0.00000000000E+00 0. -1.
</event>
<event>
 7    1  0.6105960E-006  0.3080385E+02  0.7818608E-02  0.1625100E+00
          2   -1    0    0  502    0  0.00000000000E+00  0.00000000000E+00  0.71606637662E+03  0.71606637662E+03  0.00000000000E+00 0. -1.
          1   -1    0    0  501    0 -0.00000000000E+00 -0.00000000000E+00 -0.84118296268E+02  0.84118296268E+02  0.00000000000E+00 0. -1.
         25    2    1    2    0    0  0.10801326520E+02  0.47345121029E+02  0.34543730493E+03  0.37055579923E+03  0.12500575813E+03 0.  0.
          2    1    1    2  501    0  0.77881788893E+01 -0.23644553863E+02 -0.68737180320E+02  0.73106228299E+02  0.00000000000E+00 0. -1.
          1    1    1    2  502    0 -0.18589505409E+02 -0.23700567167E+02  0.35524795574E+03  0.35652264536E+03  0.00000000000E+00 0. -1.
         22    1    3    3    0    0  0.40429687680E+02  0.57016236680E+02  0.32690860175E+03  0.33429724018E+03  0.00000000000E+00 0.  1.
         22    1    3    3    0    0 -0.29628361160E+02 -0.96711156508E+01  0.18528703176E+02  0.36258559050E+02  0.00000000000E+00 0.  1.
</event>
<event>
 7    1  0.6105960E-006  0.8259340E+02  0.7818608E-02  0.1441493E+00
          2   -1    0    0  502    0  0.00000000000E+00  0.00000000000E+00  0.20781566754E+04  0.20781566754E+04  0.00000000000E+00 0. -1.
          1   -1    0    0  501    0 -0.00000000000E+00 -0.00000000000E+00 -0.18957321761E+04  0.18957321761E+04  0.00000000000E+00 0. -1.
         25    2    1    2    0    0  0.54122545190E+02 -0.39776606977E+02 -0.89280449573E+02  0.16764882591E+03  0.12499480706E+03 0.  0.
          2    1    1    2  501    0 -0.45298645794E+02  0.69648177867E+02 -0.17661719777E+04  0.17681250779E+04  0.00000000000E+00 0. -1.
          1    1    1    2  502    0 -0.88238993964E+01 -0.29871570891E+02  0.20378769266E+04  0.20381149477E+04  0.00000000000E+00 0. -1.
         22    1    3    3    0    0  0.87486408341E+02 -0.24678074330E+02 -0.26016834878E+02  0.94550276013E+02  0.00000000000E+00 0. -1.
         22    1    3    3    0    0 -0.33363863151E+02 -0.15098532647E+02 -0.63263614695E+02  0.73098549895E+02  0.00000000000E+00 0. -1.
</event>
<event>
 7    1  0.6105960E-006  0.1132457E+03  0.7818608E-02  0.1264379E+00
          2   -1    0    0  502    0  0.00000000000E+00  0.00000000000E+00  0.69952637865E+03  0.69952637865E+03  0.00000000000E+00 0. -1.
          1   -1    0    0  501    0 -0.00000000000E+00 -0.00000000000E+00 -0.28265350469E+03  0.28265350469E+03  0.00000000000E+00 0. -1.
         25    2    1    2    0    0  0.72490739252E+02  0.57719193099E+02 -0.41882229047E+02  0.16114110834E+03  0.12500369258E+03 0.  0.
          2    1    1    2  501    0 -0.24885320769E+01 -0.13318942166E+03 -0.15174507701E+03  0.20192123026E+03  0.00000000000E+00 0. -1.
          1    1    1    2  502    0 -0.70002207175E+02  0.75470228560E+02  0.61050018002E+03  0.61911754474E+03  0.00000000000E+00 0. -1.
         22    1    3    3    0    0  0.11338128516E+02  0.23851540377E+02 -0.78076546465E+02  0.82422061637E+02  0.00000000000E+00 0. -1.
         22    1    3    3    0    0  0.61152610736E+02  0.33867652722E+02  0.36194317418E+02  0.78719046705E+02  0.00000000000E+00 0. -1.
</event>
<event>
 7    1  0.6105960E-006  0.2258680E+03  0.7818608E-02  0.1330188E+00
          2   -1    0    0  502    0  0.00000000000E+00  0.00000000000E+00  0.33696372548E+04  0.33696372548E+04  0.00000000000E+00 0. -1.
          1   -1    0    0  501    0 -0.00000000000E+00 -0.00000000000E+00 -0.68212179346E+02  0.68212179346E+02  0.00000000000E+00 0. -1.
         25    2    1    2    0    0 -0.11859867420E+03  0.16781763408E+03  0.13396249012E+04  0.13610468124E+04  0.12500058324E+03 0.  0.
          2    1    1    2  501    0  0.11942268154E+03 -0.19585859326E+03  0.17183485175E+03  0.28661748324E+03  0.00000000000E+00 0. -1.
          1    1    1    2  502    0 -0.82400733404E+00  0.28040959179E+02  0.17899653225E+04  0.17901851385E+04  0.00000000000E+00 0. -1.
         22    1    3    3    0    0  0.24842945684E+02  0.44212730558E+02  0.25000764674E+03  0.25509951180E+03  0.00000000000E+00 0. -1.
         22    1    3    3    0    0 -0.14344161989E+03  0.12360490352E+03  0.10896172545E+04  0.11059473006E+04  0.00000000000E+00 0. -1.
</event>
<event>
 7    1  0.6105960E-006  0.8558728E+02  0.7818608E-02  0.1383433E+00
          2   -1    0    0  502    0  0.00000000000E+00  0.00000000000E+00  0.51133245891E+03  0.51133245891E+03  0.00000000000E+00 0. -1.
          1   -1    0    0  501    0 -0.00000000000E+00 -0.00000000000E+00 -0.76503259851E+03  0.76503259851E+03  0.00000000000E+00 0. -1.
         25    2    1    2    0    0 -0.95856753234E+01  0.74101772740E+02 -0.60103662121E+03  0.61842758791E+03  0.12499881425E+03 0.  0.
          2    1    1    2  501    0 -0.16025695638E+02 -0.11376878182E+03 -0.13273325780E+03  0.17555134965E+03  0.00000000000E+00 0. -1.
          1    1    1    2  502    0  0.25611370962E+02  0.39667009076E+02  0.48006973941E+03  0.48238611985E+03  0.00000000000E+00 0. -1.
         22    1    3    3    0    0 -0.19175118645E+02  0.36003656510E+02 -0.43970765497E+02  0.59978134979E+02  0.00000000000E+00 0. -1.
         22    1    3    3    0    0  0.95894433218E+01  0.38098116231E+02 -0.55706585571E+03  0.55844945293E+03  0.00000000000E+00 0. -1.
</event>
<event>
 7    1  0.6105960E-006  0.8198432E+02  0.7818608E-02  0.1340559E+00
          2   -1    0    0  502    0  0.00000000000E+00  0.00000000000E+00  0.32041917618E+04  0.32041917618E+04  0.00000000000E+00 0. -1.
          1   -1    0    0  501    0 -0.00000000000E+00 -0.00000000000E+00 -0.56020892879E+03  0.56020892879E+03  0.00000000000E+00 0. -1.
         25    2    1    2    0    0  0.13859152669E+03 -0.39785461826E+02  0.15124315266E+03  0.24349607482E+03  0.12500141193E+03 0.  0.
          2    1    1    2  501    0 -0.81065328487E+02 -0.11436736013E+01 -0.51046859490E+03  0.51686659967E+03  0.00000000000E+00 0. -1.
          1    1    1    2  502    0 -0.57526198199E+02  0.40929135427E+02  0.30032082753E+04  0.30040380161E+04  0.00000000000E+00 0. -1.
         22    1    3    3    0    0  0.20066033692E+02 -0.53311252391E+02  0.87045382475E+01  0.57623817348E+02  0.00000000000E+00 0. -1.
         22    1    3    3    0    0  0.11852549299E+03  0.13525790565E+02  0.14253861441E+03  0.18587225747E+03  0.00000000000E+00 0. -1.
</event>
<event>
 7    1  0.6105960E-006  0.6400326E+02  0.7818608E-02  0.1470072E+00
          2   -1    0    0  502    0  0.00000000000E+00  0.00000000000E+00  0.35958541954E+03  0.35958541954E+03  0.00000000000E+00 0. -1.
          1   -1    0    0  501    0 -0.00000000000E+00 -0.00000000000E+00 -0.18765124628E+03  0.18765124628E+03  0.00000000000E+00 0. -1.
         25    2    1    2    0    0  0.72279856751E+02  0.44717952501E+02  0.23928752370E+03  0.28303435863E+03  0.12500342474E+03 0.  0.
          2    1    1    2  501    0 -0.32284254593E+02 -0.46578959622E+01 -0.15580746828E+03  0.15918522627E+03  0.00000000000E+00 0. -1.
          1    1    1    2  502    0 -0.39995602158E+02 -0.40060056539E+02  0.88454117849E+02  0.10501708093E+03  0.00000000000E+00 0. -1.
         22    1    3    3    0    0  0.29267473395E+02  0.30672733411E+02  0.30529523091E+01  0.42505553656E+02  0.00000000000E+00 0.  1.
         22    1    3    3    0    0  0.43012383356E+02  0.14045219091E+02  0.23623457139E+03  0.24052880497E+03  0.00000000000E+00 0.  1.
</event>
<event>
 7    1  0.6105960E-006  0.1706105E+03  0.7818608E-02  0.1231375E+00
          2   -1    0    0  502    0  0.00000000000E+00  0.00000000000E+00  0.31750679186E+04  0.31750679186E+04  0.00000000000E+00 0. -1.
          1   -1    0    0  501    0 -0.00000000000E+00 -0.00000000000E+00 -0.58011692187E+03  0.58011692187E+03  0.00000000000E+00 0. -1.
         25    2    1    2    0    0 -0.85307397205E+02 -0.13678857237E+02  0.10947412894E+03  0.18728092820E+03  0.12500039203E+03 0.  0.
          2    1    1    2  501    0  0.17914528468E+03 -0.19119546749E+01 -0.52561557177E+03  0.55530929929E+03  0.00000000000E+00 0. -1.
          1    1    1    2  502    0 -0.93837887476E+02  0.15590811912E+02  0.30110924396E+04  0.30125946130E+04  0.00000000000E+00 0. -1.
         22    1    3    3    0    0 -0.20714046490E+01  0.44736126443E+02  0.11870516016E+02  0.46330560938E+02  0.00000000000E+00 0.  1.
         22    1    3    3    0    0 -0.83235992556E+02 -0.58414983680E+02  0.97603612926E+02  0.14095036726E+03  0.00000000000E+00 0.  1.
</event>
<event>
 7    1  0.6105960E-006  0.7906771E+02  0.7818608E-02  0.1425545E+00
          2   -1    0    0  502    0  0.00000000000E+00  0.00000000000E+00  0.17232865802E+04  0.17232865802E+04  0.00000000000E+00 0. -1.
          1   -1    0    0  501    0 -0.00000000000E+00 -0.00000000000E+00 -0.33142116275E+02  0.33142116275E+02  0.00000000000E+00 0. -1.
         25    2    1    2    0    0  0.48789586768E+02  0.22229279190E+02  0.92582936106E+03  0.93576502776E+03  0.12498646630E+03 0.  0.
          2    1    1    2  501    0 -0.80795740418E+02 -0.42806245819E+01  0.31333994729E+02  0.86764593252E+02  0.00000000000E+00 0. -1.
          1    1    1    2  502    0  0.32006153650E+02 -0.17948654608E+02  0.73298110810E+03  0.73389907542E+03  0.00000000000E+00 0. -1.
         22    1    3    3    0    0 -0.24268874540E+02  0.31121925667E+02  0.11462511527E+03  0.12122899645E+03  0.00000000000E+00 0. -1.
         22    1    3    3    0    0  0.73058461308E+02 -0.88926464776E+01  0.81120424578E+03  0.81453603131E+03  0.00000000000E+00 0. -1.
</event>
<event>
 7    1  0.6105960E-006  0.3536695E+02  0.7818608E-02  0.1563562E+00
          2   -1    0    0  502    0  0.00000000000E+00  0.00000000000E+00  0.40251196849E+03  0.40251196849E+03  0.00000000000E+00 0. -1.
          1   -1    0    0  501    0 -0.00000000000E+00 -0.00000000000E+00 -0.21425471549E+03  0.21425471549E+03  0.00000000000E+00 0. -1.
         25    2    1    2    0    0 -0.63095548811E+02  0.83362251671E+01 -0.78761749098E+02  0.16086868845E+03  0.12499912348E+03 0.  0.
          2    1    1    2  501    0  0.28331379721E+02 -0.13740594326E+02 -0.90928285427E+02  0.96225901398E+02  0.00000000000E+00 0. -1.
          1    1    1    2  502    0  0.34764169090E+02  0.54043691586E+01  0.35794728753E+03  0.35967209414E+03  0.00000000000E+00 0. -1.
         22    1    3    3    0    0  0.47019240207E+01  0.36907118302E+02  0.16336158173E+02  0.40633896376E+02  0.00000000000E+00 0. -1.
         22    1    3    3    0    0 -0.67797472831E+02 -0.28570893135E+02 -0.95097907272E+02  0.12023479207E+03  0.00000000000E+00 0. -1.
</event>
<event>
 7    1  0.6105960E-006  0.5166852E+02  0.7818608E-02  0.1487638E+00
          2   -1    0    0  502    0  0.00000000000E+00  0.00000000000E+00  0.95303486554E+03  0.95303486554E+03  0.00000000000E+00 0. -1.
          1   -1    0    0  501    0 -0.00000000000E+00 -0.00000000000E+00 -0.94139914814E+03  0.94139914814E+03  0.00000000000E+00 0. -1.
         25    2    1    2    0    0  0.39236743124E+02  0.40123592528E+02  0.43869922254E+03  0.45959895401E+03  0.12499906393E+03 0.  0.
          2    1    1    2  501    0 -0.33586671489E+02  0.12051762094E+02 -0.92923943584E+03  0.92992431874E+03  0.00000000000E+00 0. -1.
          1    1    1    2  502    0 -0.56500716345E+01 -0.52175354622E+02  0.50217593069E+03  0.50491074093E+03  0.00000000000E+00 0. -1.
         22    1    3    3    0    0  0.26742365069E+02  0.31585310302E+02  0.44214565560E+03  0.44407833395E+03  0.00000000000E+00 0. -1.
         22    1    3    3    0    0  0.12494378055E+02  0.85382822255E+01 -0.34464330588E+01  0.15520620064E+02  0.00000000000E+00 0. -1.
</event>
<event>
 7    1  0.6105960E-006  0.3785173E+02  0.7818608E-02  0.1571463E+00
          2   -1    0    0  502    0  0.00000000000E+00  0.00000000000E+00  0.43666485700E+02  0.43666485700E+02  0.00000000000E+00 0. -1.
          1   -1    0    0  501    0 -0.00000000000E+00 -0.00000000000E+00 -0.10346249324E+04  0.10346249324E+04  0.00000000000E+00 0. -1.
         25    2    1    2    0    0  0.49296684996E+02 -0.12794111743E+02 -0.50079931173E+03  0.51866990136E+03  0.12499865398E+03 0.  0.
          2    1    1    2  501    0 -0.23683275348E+02 -0.14931595722E+02 -0.51414011646E+03  0.51490184447E+03  0.00000000000E+00 0. -1.
          1    1    1    2  502    0 -0.25613409648E+02  0.27725707465E+02  0.23980981541E+02  0.44719672225E+02  0.00000000000E+00 0. -1.
         22    1    3    3    0    0  0.49217389230E+02  0.46736540521E+02 -0.17952525168E+03  0.19192699553E+03  0.00000000000E+00 0.  1.
         22    1    3    3    0    0  0.79295766366E-01 -0.59530652264E+02 -0.32127406005E+03  0.32674290583E+03  0.00000000000E+00 0.  1.
</event>
<event>
 7    1  0.6105960E-006  0.1761212E+03  0.7818608E-02  0.1181975E+00
          2   -1    0    0  502    0  0.00000000000E+00  0.00000000000E+00  0.72905906638E+03  0.72905906638E+03  0.00000000000E+00 0. -1.
          1   -1    0    0  501    0 -0.00000000000E+00 -0.00000000000E+00 -0.27987560166E+03  0.27987560166E+03  0.00000000000E+00 0. -1.
         25    2    1    2    0    0  0.21463022016E+03 -0.73376876673E+02  0.11299232676E+03  0.28256162161E+03  0.12499402651E+03 0.  0.
          2    1    1    2  501    0 -0.81517491290E+02  0.15596567034E+03 -0.14012603083E+03  0.22495709864E+03  0.00000000000E+00 0. -1.
          1    1    1    2  502    0 -0.13311272887E+03 -0.82588793669E+02  0.47631716878E+03  0.50141594780E+03  0.00000000000E+00 0. -1.
         22    1    3    3    0    0  0.10023586585E+03 -0.23485751614E+02 -0.14718369759E+02  0.10399730641E+03  0.00000000000E+00 0.  1.
         22    1    3    3    0    0  0.11439435430E+03 -0.49891125060E+02  0.12771069652E+03  0.17856431520E+03  0.00000000000E+00 0.  1.
</event>
<event>
 7    1  0.6105960E-006  0.9478198E+02  0.7818608E-02  0.1328771E+00
          2   -1    0    0  502    0  0.00000000000E+00  0.00000000000E+00  0.12170964803E+04  0.12170964803E+04  0.00000000000E+00 0. -1.
          1   -1    0    0  501    0 -0.00000000000E+00 -0.00000000000E+00 -0.18040178281E+03  0.18040178281E+03  0.00000000000E+00 0. -1.
         25    2    1    2    0    0  0.74029622243E+02  0.90793351294E+02 -0.77373703354E+02  0.18797674489E+03  0.12499899616E+03 0.  0.
          2    1    1    2  501    0  0.17282091051E+02 -0.65446949798E+02 -0.20714342697E+02  0.70788826112E+02  0.00000000000E+00 0. -1.
          1    1    1    2  502    0 -0.91311713294E+02 -0.25346401496E+02  0.11347827435E+04  0.11387326921E+04  0.00000000000E+00 0. -1.
         22    1    3    3    0    0 -0.59582163125E+01  0.21657641932E+02  0.29875176045E+02  0.37377532549E+02  0.00000000000E+00 0.  1.
         22    1    3    3    0    0  0.79987838556E+02  0.69135709362E+02 -0.10724887940E+03  0.15059921234E+03  0.00000000000E+00 0.  1.
</event>
<event>
 7    1  0.6105960E-006  0.7437103E+02  0.7818608E-02  0.1479086E+00
          2   -1    0    0  502    0  0.00000000000E+00  0.00000000000E+00  0.22529011476E+03  0.22529011476E+03  0.00000000000E+00 0. -1.
          1   -1    0    0  501    0 -0.00000000000E+00 -0.00000000000E+00 -0.15106496766E+04  0.15106496766E+04  0.00000000000E+00 0. -1.
         25    2    1    2    0    0 -0.75368979258E+02  0.10534827175E+02 -0.13566584994E+04  0.13645286466E+04  0.12499871113E+03 0.  0.
          2    1    1    2  501    0  0.26513764253E+01 -0.26193169750E+02 -0.14256762392E+03  0.14497806500E+03  0.00000000000E+00 0. -1.
          1    1    1    2  502    0  0.72717602833E+02  0.15658342575E+02  0.21386656153E+03  0.22643307972E+03  0.00000000000E+00 0. -1.
         22    1    3    3    0    0  0.16221474389E+01  0.37170828400E+02 -0.13143595143E+03  0.13660055335E+03  0.00000000000E+00 0.  1.
         22    1    3    3    0    0 -0.76991126697E+02 -0.26636001225E+02 -0.12252225480E+04  0.12279280933E+04  0.00000000000E+00 0.  1.
</event>
<event>
 7    1  0.6105960E-006  0.1695686E+03  0.7818608E-02  0.1198003E+00
          2   -1    0    0  502    0  0.00000000000E+00  0.00000000000E+00  0.19052371415E+04  0.19052371415E+04  0.00000000000E+00 0. -1.
          1   -1    0    0  501    0 -0.00000000000E+00 -0.00000000000E+00 -0.21644384589E+03  0.21644384589E+03  0.00000000000E+00 0. -1.
         25    2    1    2    0    0  0.24073520596E+03  0.82670397682E+02  0.97194468724E+03  0.10124672884E+04  0.12500280424E+03 0.  0.
          2    1    1    2  501    0 -0.93137916175E+02 -0.99516597100E+02 -0.16552513625E+03  0.21442200274E+03  0.00000000000E+00 0. -1.
          1    1    1    2  502    0 -0.14759728979E+03  0.16846199418E+02  0.88237374462E+03  0.89479169620E+03  0.00000000000E+00 0. -1.
         22    1    3    3    0    0  0.20559963384E+03  0.17513246141E+02  0.77726487506E+03  0.80418816780E+03  0.00000000000E+00 0. -1.
         22    1    3    3    0    0  0.35135572121E+02  0.65157151541E+02  0.19467981218E+03  0.20827912064E+03  0.00000000000E+00 0. -1.
</event>
<event>
 7    1  0.6105960E-006  0.5192720E+02  0.7818608E-02  0.1469889E+00
          2   -1    0    0  502    0  0.00000000000E+00  0.00000000000E+00  0.29064243780E+03  0.29064243780E+03  0.00000000000E+00 0. -1.
          1   -1    0    0  501    0 -0.00000000000E+00 -0.00000000000E+00 -0.70120098291E+03  0.70120098291E+03  0.00000000000E+00 0. -1.
         25    2    1    2    0    0 -0.15510160661E+02 -0.73440298516E+02 -0.16557544477E+03  0.22062178658E+03  0.12499880909E+03 0.  0.
          2    1    1    2  501    0 -0.19430077498E+02  0.35257554198E+02 -0.50474799594E+03  0.50635082941E+03  0.00000000000E+00 0. -1.
          1    1    1    2  502    0  0.34940238160E+02  0.38182744318E+02  0.25976489560E+03  0.26487080472E+03  0.00000000000E+00 0. -1.
         22    1    3    3    0    0  0.35067256948E+02 -0.17070889638E+02 -0.13224842505E+03  0.13787956234E+03  0.00000000000E+00 0. -1.
         22    1    3    3    0    0 -0.50577417609E+02 -0.56369408878E+02 -0.33327019722E+02  0.82742224243E+02  0.00000000000E+00 0. -1.
</event>
<event>
 7    1  0.6105960E-006  0.1177012E+03  0.7818608E-02  0.1268521E+00
          2   -1    0    0  502    0  0.00000000000E+00  0.00000000000E+00  0.13336689000E+04  0.13336689000E+04  0.00000000000E+00 0. -1.
          1   -1    0    0  501    0 -0.00000000000E+00 -0.00000000000E+00 -0.33539469140E+04  0.33539469140E+04  0.00000000000E+00 0. -1.
         25    2    1    2    0    0  0.12477887953E+03 -0.12708977306E+03  0.81003131730E+02  0.23218059683E+03  0.12499897199E+03 0.  0.
          2    1    1    2  501    0 -0.30641456517E+02  0.11337989955E+03 -0.32753818578E+04  0.32774868749E+04  0.00000000000E+00 0. -1.
          1    1    1    2  502    0 -0.94137423015E+02  0.13709873508E+02  0.11741007120E+04  0.11779483423E+04  0.00000000000E+00 0. -1.
         22    1    3    3    0    0  0.56862232183E+02 -0.86902209490E+02 -0.18181264981E+02  0.10543180668E+03  0.00000000000E+00 0. -1.
         22    1    3    3    0    0  0.67916647348E+02 -0.40187563572E+02  0.99184396711E+02  0.12674879015E+03  0.00000000000E+00 0. -1.
</event>
<event>
 7    1  0.6105960E-006  0.8096461E+02  0.7818608E-02  0.1352022E+00
          2   -1    0    0  502    0  0.00000000000E+00  0.00000000000E+00  0.12847046090E+04  0.12847046090E+04  0.00000000000E+00 0. -1.
          1   -1    0    0  501    0 -0.00000000000E+00 -0.00000000000E+00 -0.17335163022E+04  0.17335163022E+04  0.00000000000E+00 0. -1.
         25    2    1    2    0    0 -0.30904211688E+02 -0.33351952570E+02 -0.37038594833E+02  0.13805386762E+03  0.12497835739E+03 0.  0.
          2    1    1    2  501    0  0.81750150558E+02 -0.68090371933E+01 -0.16440963330E+04  0.16461416106E+04  0.00000000000E+00 0. -1.
          1    1    1    2  502    0 -0.50845938869E+02  0.40160989763E+02  0.12323232346E+04  0.12340254329E+04  0.00000000000E+00 0. -1.
         22    1    3    3    0    0 -0.32585756961E+02 -0.40533298259E+02  0.36887331540E+02  0.63760921045E+02  0.00000000000E+00 0. -1.
         22    1    3    3    0    0  0.16815452724E+01  0.71813456889E+01 -0.73925926372E+02  0.74292946572E+02  0.00000000000E+00 0. -1.
</event>
<event>
 7    1  0.6105960E-006  0.7562023E+02  0.7818608E-02  0.1487578E+00
          2   -1    0    0  502    0  0.00000000000E+00  0.00000000000E+00  0.18111229459E+04  0.18111229459E+04  0.00000000000E+00 0. -1.
          1   -1    0    0  501    0 -0.00000000000E+00 -0.00000000000E+00 -0.15256774324E+03  0.15256774324E+03  0.00000000000E+00 0. -1.
         25    2    1    2    0    0  0.62699228613E+01  0.81267181475E+02  0.31185392696E+03  0.34571903174E+03  0.12500044171E+03 0.  0.
          2    1    1    2  501    0  0.16895812511E+02 -0.73632760002E+02 -0.12500680285E+03  0.14606146852E+03  0.00000000000E+00 0. -1.
          1    1    1    2  502    0 -0.23165735372E+02 -0.76344214724E+01  0.14717080785E+04  0.14719101889E+04  0.00000000000E+00 0. -1.
         22    1    3    3    0    0  0.11432116427E+02  0.36927513904E+01  0.23858869984E+03  0.23889097386E+03  0.00000000000E+00 0. -1.
         22    1    3    3    0    0 -0.51621935656E+01  0.77574430084E+02  0.73265227120E+02  0.10682805788E+03  0.00000000000E+00 0. -1.
</event>
<event>
 7    1  0.6105960E-006  0.1092897E+03  0.7818608E-02  0.1457241E+00
          2   -1    0    0  502    0  0.00000000000E+00  0.00000000000E+00  0.49565675458E+02  0.49565675458E+02  0.00000000000E+00 0. -1.
          1   -1    0    0  501    0 -0.00000000000E+00 -0.00000000000E+00 -0.91928587830E+03  0.91928587830E+03  0.00000000000E+00 0. -1.
         25    2    1    2    0    0 -0.11904187144E+03  0.92822996347E+01 -0.31186142763E+03  0.35656536044E+03  0.12499671186E+03 0.  0.
          2    1    1    2  501    0  0.10699907161E+03  0.78706138963E+01 -0.57517746875E+03  0.58509816992E+03  0.00000000000E+00 0. -1.
          1    1    1    2  502    0  0.12042799838E+02 -0.17152913531E+02  0.17318693538E+02  0.27188023400E+02  0.00000000000E+00 0. -1.
         22    1    3    3    0    0 -0.17605811337E+01  0.39469219401E+02 -0.14565552422E+03  0.15091868891E+03  0.00000000000E+00 0. -1.
         22    1    3    3    0    0 -0.11728129031E+03 -0.30186919767E+02 -0.16620590341E+03  0.20564667152E+03  0.00000000000E+00 0. -1.
</event>
<event>
 7    1  0.6105960E-006  0.9263514E+02  0.7818608E-02  0.1352513E+00
          2   -1    0    0  502    0  0.00000000000E+00  0.00000000000E+00  0.88156318438E+03  0.88156318438E+03  0.00000000000E+00 0. -1.
          1   -1    0    0  501    0 -0.00000000000E+00 -0.00000000000E+00 -0.95587852847E+03  0.95587852847E+03  0.00000000000E+00 0. -1.
         25    2    1    2    0    0 -0.29830269333E+02 -0.46087717254E+02 -0.28089063370E+02  0.13938347778E+03  0.12499934299E+03 0.  0.
          2    1    1    2  501    0  0.29552471012E+02 -0.48031665484E+02 -0.86854338325E+03  0.87037233298E+03  0.00000000000E+00 0. -1.
          1    1    1    2  502    0  0.27779832059E+00  0.94119382738E+02  0.82231710253E+03  0.82768590208E+03  0.00000000000E+00 0. -1.
         22    1    3    3    0    0 -0.32817742727E+02 -0.68339980390E+02  0.26538368822E+02  0.80322115119E+02  0.00000000000E+00 0. -1.
         22    1    3    3    0    0  0.29874733938E+01  0.22252263136E+02 -0.54627432193E+02  0.59061362666E+02  0.00000000000E+00 0. -1.
</event>
<event>
 7    1  0.6105960E-006  0.1771949E+03  0.7818608E-02  0.1206782E+00
          2   -1    0    0  502    0  0.00000000000E+00  0.00000000000E+00  0.97852362359E+03  0.97852362359E+03  0.00000000000E+00 0. -1.
          1   -1    0    0  501    0 -0.00000000000E+00 -0.00000000000E+00 -0.74280116851E+03  0.74280116851E+03  0.00000000000E+00 0. -1.
         25    2    1    2    0    0  0.20004130823E+03  0.14966122657E+03 -0.17461985136E+03  0.32944239556E+03  0.12500076707E+03 0.  0.
          2    1    1    2  501    0 -0.81487789715E+02 -0.14567077018E+03 -0.47249556803E+03  0.50111106051E+03  0.00000000000E+00 0. -1.
          1    1    1    2  502    0 -0.11855351852E+03 -0.39904563915E+01  0.88283787447E+03  0.89077133603E+03  0.00000000000E+00 0. -1.
         22    1    3    3    0    0  0.10930507869E+03  0.15144996398E+03 -0.13479280702E+03  0.23033408918E+03  0.00000000000E+00 0. -1.
         22    1    3    3    0    0  0.90736229538E+02 -0.17887374096E+01 -0.39827044342E+02  0.99108306379E+02  0.00000000000E+00 0. -1.
</event>
<event>
 7    1  0.6105960E-006  0.1109805E+03  0.7818608E-02  0.1289218E+00
          2   -1    0    0  502    0  0.00000000000E+00  0.00000000000E+00  0.28177245308E+03  0.28177245308E+03  0.00000000000E+00 0. -1.
          1   -1    0    0  501    0 -0.00000000000E+00 -0.00000000000E+00 -0.10346180614E+04  0.10346180614E+04  0.00000000000E+00 0. -1.
         25    2    1    2    0    0 -0.15889594208E+03 -0.10190346524E+03 -0.16639496809E+03  0.28097075168E+03  0.12500016501E+03 0.  0.
          2    1    1    2  501    0  0.86536118161E+02  0.61603772246E+02 -0.79966187372E+03  0.80668620713E+03  0.00000000000E+00 0. -1.
          1    1    1    2  502    0  0.72359823922E+02  0.40299692996E+02  0.21321123352E+03  0.22873355564E+03  0.00000000000E+00 0. -1.
         22    1    3    3    0    0 -0.64381235994E+02 -0.80772246066E+01 -0.12612602227E+03  0.14183778974E+03  0.00000000000E+00 0.  1.
         22    1    3    3    0    0 -0.94514706090E+02 -0.93826240635E+02 -0.40268945822E+02  0.13913296193E+03  0.00000000000E+00 0.  1.
</event>
<event>
 7    1  0.6105960E-006  0.6824579E+02  0.7818608E-02  0.1445684E+00
          2   -1    0    0  502    0  0.00000000000E+00  0.00000000000E+00  0.16305883876E+04  0.16305883876E+04  0.00000000000E+00 0. -1.
          1   -1    0    0  501    0 -0.00000000000E+00 -0.00000000000E+00 -0.83851863350E+02  0.83851863350E+02  0.00000000000E+00 0. -1.
         25    2    1    2    0    0  0.59158125178E+02 -0.65903025183E+02  0.69421598456E+02  0.16818902055E+03  0.12500118319E+03 0.  0.
          2    1    1    2  501    0 -0.36497199597E+02  0.17564340089E+01 -0.23792536745E+02  0.43602929301E+02  0.00000000000E+00 0. -1.
          1    1    1    2  502    0 -0.22660925581E+02  0.64146591174E+02  0.15011074625E+04  0.15026483011E+04  0.00000000000E+00 0. -1.
         22    1    3    3    0    0  0.69257971934E+02  0.13571008026E+02  0.47701149641E+02  0.85183558345E+02  0.00000000000E+00 0.  1.
         22    1    3    3    0    0 -0.10099846756E+02 -0.79474033209E+02  0.21720448815E+02  0.83005462204E+02  0.00000000000E+00 0.  1.
</event>
<event>
 7    1  0.6105960E-006  0.7990141E+02  0.7818608E-02  0.1436052E+00
          2   -1    0    0  502    0  0.00000000000E+00  0.00000000000E+00  0.20804836038E+03  0.20804836038E+03  0.00000000000E+00 0. -1.
          1   -1    0    0  501    0 -0.00000000000E+00 -0.00000000000E+00 -0.15368949066E+04  0.15368949066E+04  0.00000000000E+00 0. -1.
         25    2    1    2    0    0  0.97232579926E+02  0.38784420947E+02 -0.81075908907E+03  0.82699058185E+03  0.12499886418E+03 0.  0.
          2    1    1    2  501    0 -0.63702798940E+02 -0.38173996642E+02 -0.71467603812E+03  0.71852427940E+03  0.00000000000E+00 0. -1.
          1    1    1    2  502    0 -0.33529780986E+02 -0.61042430486E+00  0.19658858099E+03  0.19942840572E+03  0.00000000000E+00 0. -1.
         22    1    3    3    0    0  0.56157347617E+02 -0.11753540044E+02 -0.11833193701E+03  0.13150756903E+03  0.00000000000E+00 0. -1.
         22    1    3    3    0    0  0.41075232309E+02  0.50537960991E+02 -0.69242715206E+03  0.69548301282E+03  0.00000000000E+00 0. -1.
</event>
<event>
 7    1  0.6105960E-006  0.1344990E+03  0.7818608E-02  0.1396496E+00
          2   -1    0    0  502    0  0.00000000000E+00  0.00000000000E+00  0.19048949914E+03  0.19048949914E+03  0.00000000000E+00 0. -1.
          1   -1    0    0  501    0 -0.00000000000E+00 -0.00000000000E+00 -0.29486859265E+03  0.29486859265E+03  0.00000000000E+00 0. -1.
         25    2    1    2    0    0  0.11160244825E+03  0.74122506341E+02 -0.34682190408E+02  0.18648574420E+03  0.12499930423E+03 0.  0.
          2    1    1    2  501    0 -0.12542348562E+03 -0.50867907926E+02 -0.15710970554E+03  0.20736936702E+03  0.00000000000E+00 0. -1.
          1    1    1    2  502    0  0.13821037373E+02 -0.23254598415E+02  0.87412802444E+02  0.91502980567E+02  0.00000000000E+00 0. -1.
         22    1    3    3    0    0  0.12687214383E+03  0.25220242961E+02 -0.10343531330E+02  0.12976744651E+03  0.00000000000E+00 0. -1.
         22    1    3    3    0    0 -0.15269695582E+02  0.48902263381E+02 -0.24338659078E+02  0.56718297688E+02  0.00000000000E+00 0. -1.
</event>
<event>
 7    1  0.6105960E-006  0.1415720E+03  0.7818608E-02  0.1338269E+00
          2   -1    0    0  502    0  0.00000000000E+00  0.00000000000E+00  0.11110469443E+04  0.11110469443E+04  0.00000000000E+00 0. -1.
          1   -1    0    0  501    0 -0.00000000000E+00 -0.00000000000E+00 -0.24313126317E+03  0.24313126317E+03  0.00000000000E+00 0. -1.
         25    2    1    2    0    0  0.81493420994E+02 -0.12247006458E+03  0.18963915677E+02  0.19397065442E+03  0.12499956118E+03 0.  0.
          2    1    1    2  501    0 -0.41713623542E+02  0.13499467606E+03 -0.12301890051E+03  0.18734257081E+03  0.00000000000E+00 0. -1.
          1    1    1    2  502    0 -0.39779797452E+02 -0.12524611483E+02  0.97197066598E+03  0.97286498226E+03  0.00000000000E+00 0. -1.
         22    1    3    3    0    0 -0.29865945880E+02 -0.52213855997E+02  0.16103031641E+02  0.62270130154E+02  0.00000000000E+00 0.  1.
         22    1    3    3    0    0  0.11135936687E+03 -0.70256208583E+02  0.28608840358E+01  0.13170052427E+03  0.00000000000E+00 0.  1.
</event>
<event>
 7    1  0.6105960E-006  0.1213383E+03  0.7818608E-02  0.1297557E+00
          2   -1    0    0  502    0  0.00000000000E+00  0.00000000000E+00  0.12508198018E+04  0.12508198018E+04  0.00000000000E+00 0. -1.
          1   -1    0    0  501    0 -0.00000000000E+00 -0.00000000000E+00 -0.12528279757E+03  0.12528279757E+03  0.00000000000E+00 0. -1.
         25    2    1    2    0    0  0.11763157813E+03 -0.83867827239E+02  0.43164089244E+03  0.47201295786E+03  0.12494547508E+03 0.  0.
          2    1    1    2  501    0 -0.65958969195E+02 -0.23715881525E+02 -0.88357740363E+02  0.11278350472E+03  0.00000000000E+00 0. -1.
          1    1    1    2  502    0 -0.51672608936E+02  0.10758370876E+03  0.78225385220E+03  0.79130613683E+03  0.00000000000E+00 0. -1.
         22    1    3    3    0    0 -0.14052708601E+02 -0.88982457211E+00  0.14634533540E+03  0.14702118079E+03  0.00000000000E+00 0.  1.
         22    1    3    3    0    0  0.13168428673E+03 -0.82978002667E+02  0.28529555703E+03  0.32499177707E+03  0.00000000000E+00 0.  1.
</event>
<event>
 7    1  0.6105960E-006  0.7232261E+02  0.7818608E-02  0.1412791E+00
          2   -1    0    0  502    0  0.00000000000E+00  0.00000000000E+00  0.10897704620E+03  0.10897704620E+03  0.00000000000E+00 0. -1.
          1   -1    0    0  501    0 -0.00000000000E+00 -0.00000000000E+00 -0.18881016139E+04  0.18881016139E+04  0.00000000000E+00 0. -1.
         25    2    1    2    0    0  0.40282761061E+02 -0.70029669222E+02 -0.40995502073E+03  0.43613576667E+03  0.12499773014E+03 0.  0.
          2    1    1    2  501    0 -0.64611334677E+02  0.33058760402E+02 -0.14589988089E+04  0.14608028719E+04  0.00000000000E+00 0. -1.
          1    1    1    2  502    0  0.24328573616E+02  0.36970908820E+02  0.89829261978E+02  0.10014002147E+03  0.00000000000E+00 0. -1.
         22    1    3    3    0    0  0.75358220705E+02 -0.29899978241E+02 -0.33163391459E+03  0.34139994645E+03  0.00000000000E+00 0. -1.
         22    1    3    3    0    0 -0.35075459643E+02 -0.40129690981E+02 -0.78321106137E+02  0.94735820226E+02  0.00000000000E+00 0. -1.
</event>
<event>
 7    1  0.6105960E-006  0.8906393E+02  0.7818608E-02  0.1349364E+00
          2   -1    0    0  502    0  0.00000000000E+00  0.00000000000E+00  0.38699510041E+04  0.38699510041E+04  0.00000000000E+00 0. -1.
          1   -1    0    0  501    0 -0.00000000000E+00 -0.00000000000E+00 -0.18077060596E+03  0.18077060596E+03  0.00000000000E+00 0. -1.
         25    2    1    2    0    0  0.21179872418E+02 -0.11129243676E+03  0.84833977693E+03  0.86494908741E+03  0.12498781226E+03 0.  0.
          2    1    1    2  501    0 -0.60267391018E+02  0.65440928860E+02 -0.16067066404E+03  0.18365657046E+03  0.00000000000E+00 0. -1.
          1    1    1    2  502    0  0.39087518600E+02  0.45851507902E+02  0.30015112853E+04  0.30021159522E+04  0.00000000000E+00 0. -1.
         22    1    3    3    0    0  0.30473249285E+02 -0.59515784017E+02  0.14532611155E+03  0.15997007897E+03  0.00000000000E+00 0.  1.
         22    1    3    3    0    0 -0.92933768668E+01 -0.51776652745E+02  0.70301366538E+03  0.70497900844E+03  0.00000000000E+00 0.  1.
</event>
<event>
 7    1  0.6105960E-006  0.6619919E+02  0.7818608E-02  0.1377324E+00
          2   -1    0    0  502    0  0.00000000000E+00  0.00000000000E+00  0.11745926401E+04  0.11745926401E+04  0.00000000000E+00 0. -1.
          1   -1    0    0  501    0 -0.00000000000E+00 -0.00000000000E+00 -0.73564671456E+03  0.73564671456E+03  0.00000000000E+00 0. -1.
         25    2    1    2    0    0 -0.74055167244E+01 -0.11171870802E+03  0.28683380592E+03  0.33231742354E+03  0.12500130546E+03 0.  0.
          2    1    1    2  501    0 -0.29382956763E+02  0.59151436630E+02 -0.71018071058E+03  0.71324532405E+03  0.00000000000E+00 0. -1.
          1    1    1    2  502    0  0.36788473487E+02  0.52567271394E+02  0.86229283016E+03  0.86467660703E+03  0.00000000000E+00 0. -1.
         22    1    3    3    0    0  0.47464342220E+02 -0.10004003200E+03  0.20683079404E+03  0.23460573128E+03  0.00000000000E+00 0.  1.
         22    1    3    3    0    0 -0.54869858944E+02 -0.11678676028E+02  0.80003011879E+02  0.97711692258E+02  0.00000000000E+00 0.  1.
</event>
<event>
 7    1  0.6105960E-006  0.1153839E+03  0.7818608E-02  0.1353283E+00
          2   -1    0    0  502    0  0.00000000000E+00  0.00000000000E+00  0.33730669710E+04  0.33730669710E+04  0.00000000000E+00 0. -1.
          1   -1    0    0  501    0 -0.00000000000E+00 -0.00000000000E+00 -0.59541895333E+03  0.59541895333E+03  0.00000000000E+00 0. -1.
         25    2    1    2    0    0  0.10712716893E+02 -0.12881532583E+03  0.10661269862E+04  0.10811845058E+04  0.12500013685E+03 0.  0.
          2    1    1    2  501    0  0.30675144386E+02  0.11119885477E+03 -0.58200911439E+03  0.59333022763E+03  0.00000000000E+00 0. -1.
          1    1    1    2  502    0 -0.41387861279E+02  0.17616471058E+02  0.22935301458E+04  0.22939711909E+04  0.00000000000E+00 0. -1.
         22    1    3    3    0    0  0.70127854777E+01 -0.11753683377E+03  0.45645968846E+03  0.47140166911E+03  0.00000000000E+00 0.  1.
         22    1    3    3    0    0  0.36999314155E+01 -0.11278492064E+02  0.60966729779E+03  0.60978283665E+03  0.00000000000E+00 0.  1.
</event>
<event>
 7    1  0.6105960E-006  0.7618965E+02  0.7818608E-02  0.1369249E+00
          2   -1    0    0  502    0  0.00000000000E+00  0.00000000000E+00  0.74082160023E+03  0.74082160023E+03  0.00000000000E+00 0. -1.
          1   -1    0    0  501    0 -0.00000000000E+00 -0.00000000000E+00 -0.40440793589E+03  0.40440793589E+03  0.00000000000E+00 0. -1.
         25    2    1    2    0    0 -0.56562768822E+02 -0.50038482323E+02 -0.49485789877E+02  0.15420060104E+03  0.12500314168E+03 0.  0.
          2    1    1    2  501    0 -0.19874247999E+02  0.56170103773E+02 -0.29746602331E+03  0.30337452318E+03  0.00000000000E+00 0. -1.
          1    1    1    2  502    0  0.76437016821E+02 -0.61316214497E+01  0.68336547753E+03  0.68765441190E+03  0.00000000000E+00 0. -1.
         22    1    3    3    0    0 -0.62680062192E+02 -0.84727632196E+02 -0.54451867800E+02  0.11862785407E+03  0.00000000000E+00 0. -1.
         22    1    3    3    0    0  0.61172933699E+01  0.34689149873E+02  0.49660779228E+01  0.35572746970E+02  0.00000000000E+00 0. -1.
</event>
<event>
 7    1  0.6105960E-006  0.1872792E+03  0.7818608E-02  0.1223316E+00
          2   -1    0    0  502    0  0.00000000000E+00  0.00000000000E+00  0.17537310890E+04  0.17537310890E+04  0.00000000000E+00 0. -1.
          1   -1    0    0  501    0 -0.00000000000E+00 -0.00000000000E+00 -0.57087059689E+03  0.57087059689E+03  0.00000000000E+00 0. -1.
         25    2    1    2    0    0  0.11115735218E+03 -0.20643264414E+00  0.25638694660E+03  0.30613713926E+03  0.12501872696E+03 0.  0.
          2    1    1    2  501    0 -0.18173809328E+03  0.62609611390E+02 -0.52750556501E+03  0.56143638919E+03  0.00000000000E+00 0. -1.
          1    1    1    2  502    0  0.70580741109E+02 -0.62403178746E+02  0.14539791106E+04  0.14570281575E+04  0.00000000000E+00 0. -1.
         22    1    3    3    0    0  0.13337212617E+03  0.15285749523E+02  0.17628890715E+03  0.22158419835E+03  0.00000000000E+00 0. -1.
         22    1    3    3    0    0 -0.22214773992E+02 -0.15492182167E+02  0.80098039452E+02  0.84552940906E+02  0.00000000000E+00 0. -1.
</event>
<event>
 7    1  0.6105960E-006  0.9306225E+02  0.7818608E-02  0.1347173E+00
          2   -1    0    0  502    0  0.00000000000E+00  0.00000000000E+00  0.10892614314E+04  0.10892614314E+04  0.00000000000E+00 0. -1.
          1   -1    0    0  501    0 -0.00000000000E+00 -0.00000000000E+00 -0.33893657168E+03  0.33893657168E+03  0.00000000000E+00 0. -1.
         25    2    1    2    0    0 -0.89486447887E+01  0.12209218265E+03  0.11685873449E+03  0.21039720350E+03  0.12499776041E+03 0.  0.
          2    1    1    2  501    0 -0.36471986789E+02 -0.84824631000E+02 -0.28390907524E+03  0.29854612181E+03  0.00000000000E+00 0. -1.
          1    1    1    2  502    0  0.45420631578E+02 -0.37267551646E+02  0.91737520046E+03  0.91925467777E+03  0.00000000000E+00 0. -1.
         22    1    3    3    0    0 -0.11378195856E+02  0.14024007367E+03  0.64218203636E+02  0.15466324477E+03  0.00000000000E+00 0. -1.
         22    1    3    3    0    0  0.24295510674E+01 -0.18147891028E+02  0.52640530855E+02  0.55733958732E+02  0.00000000000E+00 0. -1.
</event>
<event>
 7    1  0.6105960E-006  0.5710948E+02  0.7818608E-02  0.1411415E+00
          2   -1    0    0  502    0  0.00000000000E+00  0.00000000000E+00  0.68976852644E+03  0.68976852644E+03  0.00000000000E+00 0. -1.
          1   -1    0    0  501    0 -0.00000000000E+00 -0.00000000000E+00 -0.37312972836E+03  0.37312972836E+03  0.00000000000E+00 0. -1.
         25    2    1    2    0    0  0.29741397726E+02  0.49424422247E+02 -0.14546281320E+03  0.20027827247E+03  0.12499852858E+03 0.  0.
          2    1    1    2  501    0 -0.60933239375E+02 -0.21350932919E+01 -0.19437010728E+03  0.20370850961E+03  0.00000000000E+00 0. -1.
          1    1    1    2  502    0  0.31191841649E+02 -0.47289328955E+02  0.65647171856E+03  0.65891147272E+03  0.00000000000E+00 0. -1.
         22    1    3    3    0    0  0.21247639935E+01 -0.35990443977E+02 -0.93788432376E+01  0.37253045247E+02  0.00000000000E+00 0. -1.
         22    1    3    3    0    0  0.27616633732E+02  0.85414866224E+02 -0.13608396996E+03  0.16302522722E+03  0.00000000000E+00 0. -1.
</event>
<event>
 7    1  0.6105960E-006  0.1361108E+03  0.7818608E-02  0.1339816E+00
          2   -1    0    0  502    0  0.00000000000E+00  0.00000000000E+00  0.71117363815E+03  0.71117363815E+03  0.00000000000E+00 0. -1.
          1   -1    0    0  501    0 -0.00000000000E+00 -0.00000000000E+00 -0.23574526581E+03  0.23574526581E+03  0.00000000000E+00 0. -1.
         25    2    1    2    0    0 -0.12850244190E+03 -0.12984717827E+02  0.27820868121E+03  0.33121985873E+03  0.12500017617E+03 0.  0.
          2    1    1    2  501    0 -0.98688976106E+01  0.41646390694E+02 -0.19456127420E+03  0.19921321848E+03  0.00000000000E+00 0. -1.
          1    1    1    2  502    0  0.13837133951E+03 -0.28661672867E+02  0.39178096534E+03  0.41648582676E+03  0.00000000000E+00 0. -1.
         22    1    3    3    0    0 -0.14064833197E+02  0.35933785028E+02  0.17586347019E+02  0.42406792389E+02  0.00000000000E+00 0. -1.
         22    1    3    3    0    0 -0.11443760871E+03 -0.48918502855E+02  0.26062233419E+03  0.28881306634E+03  0.00000000000E+00 0. -1.
</event>
<event>
 7    1  0.6105960E-006  0.1060827E+03  0.7818608E-02  0.1419019E+00
          2   -1    0    0  502    0  0.00000000000E+00  0.00000000000E+00  0.64181221961E+03  0.64181221961E+03  0.00000000000E+00 0. -1.
          1   -1    0    0  501    0 -0.00000000000E+00 -0.00000000000E+00 -0.16322733692E+04  0.16322733692E+04  0.00000000000E+00 0. -1.
         25    2    1    2    0    0  0.17038989228E+02  0.12334330850E+03  0.56413603174E+02  0.18523628822E+03  0.12500435571E+03 0.  0.
          2    1    1    2  501    0  0.56586343364E+01 -0.10569155308E+03 -0.15656771712E+04  0.15692506902E+04  0.00000000000E+00 0. -1.
          1    1    1    2  502    0 -0.22697623565E+02 -0.17651755419E+02  0.51880241838E+03  0.51959861037E+03  0.00000000000E+00 0. -1.
         22    1    3    3    0    0 -0.51628529638E+02  0.31166698382E+02  0.29733726931E+02  0.67238104359E+02  0.00000000000E+00 0.  1.
         22    1    3    3    0    0  0.68667518866E+02  0.92176610113E+02  0.26679876243E+02  0.11799818387E+03  0.00000000000E+00 0.  1.
</event>
<event>
 7    1  0.6105960E-006  0.4925536E+02  0.7818608E-02  0.1465051E+00
          2   -1    0    0  502    0  0.00000000000E+00  0.00000000000E+00  0.28707247211E+04  0.28707247211E+04  0.00000000000E+00 0. -1.
          1   -1    0    0  501    0 -0.00000000000E+00 -0.00000000000E+00 -0.16079097754E+02  0.16079097754E+02  0.00000000000E+00 0. -1.
         25    2    1    2    0    0 -0.30031329051E+02  0.31332492019E+02  0.25834459256E+04  0.25868313302E+04  0.12497949765E+03 0.  0.
          2    1    1    2  501    0  0.39555180835E+02  0.29350955813E+02  0.49150009486E+02  0.69583147173E+02  0.00000000000E+00 0. -1.
          1    1    1    2  502    0 -0.95238517837E+01 -0.60683447832E+02  0.22204968827E+03  0.23038934146E+03  0.00000000000E+00 0. -1.
         22    1    3    3    0    0  0.40593974179E+02 -0.73803078767E+01  0.45640391382E+03  0.45826506766E+03  0.00000000000E+00 0.  1.
         22    1    3    3    0    0 -0.70625303230E+02  0.38712799896E+02  0.21270420118E+04  0.21285662626E+04  0.00000000000E+00 0.  1.
</event>
<event>
 7    1  0.6105960E-006  0.1276248E+03  0.7818608E-02  0.1320261E+00
          2   -1    0    0  502    0  0.00000000000E+00  0.00000000000E+00  0.23131906731E+04  0.23131906731E+04  0.00000000000E+00 0. -1.
          1   -1    0    0  501    0 -0.00000000000E+00 -0.00000000000E+00 -0.90885520254E+02  0.90885520254E+02  0.00000000000E+00 0. -1.
         25    2    1    2    0    0 -0.96804114916E+01 -0.17394538221E+03  0.48253577565E+03  0.52803181437E+03  0.12500446327E+03 0.  0.
          2    1    1    2  501    0 -0.71366574182E+01  0.12240643133E+03 -0.12215166700E+02  0.12322125063E+03  0.00000000000E+00 0. -1.
          1    1    1    2  502    0  0.16817068910E+02  0.51538950876E+02  0.17519845439E+04  0.17528231284E+04  0.00000000000E+00 0. -1.
         22    1    3    3    0    0  0.56701287028E+02 -0.81585690011E+02  0.19591302728E+03  0.21966605342E+03  0.00000000000E+00 0. -1.
         22    1    3    3    0    0 -0.66381698520E+02 -0.92359692195E+02  0.28662274837E+03  0.30836576095E+03  0.00000000000E+00 0. -1.
</event>
<event>
 7    1  0.6105960E-006  0.1173490E+03  0.7818608E-02  0.1256920E+00
          2   -1    0    0  502    0  0.00000000000E+00  0.00000000000E+00  0.49455016115E+03  0.49455016115E+03  0.00000000000E+00 0. -1.
          1   -1    0    0  501    0 -0.00000000000E+00 -0.00000000000E+00 -0.95850221500E+03  0.95850221500E+03  0.00000000000E+00 0. -1.
         25    2    1    2    0    0 -0.10166838521E+02  0.53045817847E+02  0.88226998055E+02  0.16224834246E+03  0.12499319201E+03 0.  0.
          2    1    1    2  501    0  0.11534787251E+03 -0.34038229970E+02 -0.90971668120E+03  0.91763182859E+03  0.00000000000E+00 0. -1.
          1    1    1    2  502    0 -0.10518103399E+03 -0.19007587877E+02  0.35753762928E+03  0.37317220510E+03  0.00000000000E+00 0. -1.
         22    1    3    3    0    0  0.29012676002E+01 -0.24756382389E+02 -0.17409432618E+02  0.30403686729E+02  0.00000000000E+00 0. -1.
         22    1    3    3    0    0 -0.13068106122E+02  0.77802200236E+02  0.10563643067E+03  0.13184465573E+03  0.00000000000E+00 0. -1.
</event>
<event>
 7    1  0.6105960E-006  0.2193734E+03  0.7818608E-02  0.1338119E+00
          2   -1    0    0  502    0  0.00000000000E+00  0.00000000000E+00  0.26835649054E+04  0.26835649054E+04  0.00000000000E+00 0. -1.
          1   -1    0    0  501    0 -0.00000000000E+00 -0.00000000000E+00 -0.42369143860E+02  0.42369143860E+02  0.00000000000E+00 0. -1.
         25    2    1    2    0    0  0.16753774430E+03  0.12934148272E+03  0.73408023137E+03  0.77414192010E+03  0.12499524577E+03 0.  0.
          2    1    1    2  501    0 -0.16324979669E+03 -0.15594730082E+03  0.55167002690E+03  0.59607874927E+03  0.00000000000E+00 0. -1.
          1    1    1    2  502    0 -0.42879476074E+01  0.26605818099E+02  0.13554455032E+04  0.13557133799E+04  0.00000000000E+00 0. -1.
         22    1    3    3    0    0  0.25361323286E+02  0.93425790172E+02  0.24095247474E+03  0.25967223585E+03  0.00000000000E+00 0.  1.
         22    1    3    3    0    0  0.14217642101E+03  0.35915692546E+02  0.49312775663E+03  0.51446968426E+03  0.00000000000E+00 0.  1.
</event>
<event>
 7    1  0.6105960E-006  0.3945851E+02  0.7818608E-02  0.1618550E+00
          2   -1    0    0  502    0  0.00000000000E+00  0.00000000000E+00  0.10205481753E+04  0.10205481753E+04  0.00000000000E+00 0. -1.
          1   -1    0    0  501    0 -0.00000000000E+00 -0.00000000000E+00 -0.13390930371E+02  0.13390930371E+02  0.00000000000E+00 0. -1.
         25    2    1    2    0    0 -0.93269991462E+01  0.20705994839E+02  0.37404354028E+03  0.39503102627E+03  0.12500084220E+03 0.  0.
          2    1    1    2  501    0  0.45980744354E+01  0.19662692340E+02  0.44209234739E+02  0.48602676828E+02  0.00000000000E+00 0. -1.
          1    1    1    2  502    0  0.47289247107E+01 -0.40368687179E+02  0.58890446995E+03  0.59030540262E+03  0.00000000000E+00 0. -1.
         22    1    3    3    0    0  0.40596821124E+02 -0.34022691430E+02  0.15559127651E+03  0.16436024685E+03  0.00000000000E+00 0.  1.
         22    1    3    3    0    0 -0.49923820270E+02  0.54728686269E+02  0.21845226377E+03  0.23067077942E+03  0.00000000000E+00 0.  1.
</event>
<event>
 7    1  0.6105960E-006  0.6974439E+02  0.7818608E-02  0.1375450E+00
          2   -1    0    0  502    0  0.00000000000E+00  0.00000000000E+00  0.24870176696E+03  0.24870176696E+03  0.00000000000E+00 0. -1.
          1   -1    0    0  501    0 -0.00000000000E+00 -0.00000000000E+00 -0.42506492630E+04  0.42506492630E+04  0.00000000000E+00 0. -1.
         25    2    1    2    0    0  0.20550431299E+02 -0.90595555894E+01  0.87842248275E+02  0.15442037457E+03  0.12499998291E+03 0.  0.
          2    1    1    2  501    0  0.47883504677E+02  0.50709464339E+02 -0.42044652045E+04  0.42050436307E+04  0.00000000000E+00 0. -1.
          1    1    1    2  502    0 -0.68433935975E+02 -0.41649908749E+02  0.11467546025E+03  0.13988702469E+03  0.00000000000E+00 0. -1.
         22    1    3    3    0    0  0.44982315169E+02  0.22549079470E+02 -0.76613692685E+01  0.50897605464E+02  0.00000000000E+00 0. -1.
         22    1    3    3    0    0 -0.24431883870E+02 -0.31608635060E+02  0.95503617543E+02  0.10352276911E+03  0.00000000000E+00 0. -1.
</event>
<event>
 7    1  0.6105960E-006  0.1139031E+03  0.7818608E-02  0.1275605E+00
          2   -1    0    0  502    0  0.00000000000E+00  0.00000000000E+00  0.12035345793E+04  0.12035345793E+04  0.00000000000E+00 0. -1.
          1   -1    0    0  501    0 -0.00000000000E+00 -0.00000000000E+00 -0.11045132693E+03  0.11045132693E+03  0.00000000000E+00 0. -1.
         25    2    1    2    0    0  0.72793731367E+02  0.26491975220E+02  0.56617668588E+03  0.58496282490E+03  0.12499885923E+03 0.  0.
          2    1    1    2  501    0  0.85491664594E+02 -0.33483553486E+02 -0.67439408215E+02  0.11392123090E+03  0.00000000000E+00 0. -1.
          1    1    1    2  502    0 -0.15828539596E+03  0.69915782667E+01  0.59434597472E+03  0.61510185044E+03  0.00000000000E+00 0. -1.
         22    1    3    3    0    0  0.38874774134E+02  0.76960073183E+02  0.33757229132E+03  0.34840946140E+03  0.00000000000E+00 0.  1.
         22    1    3    3    0    0  0.33918957233E+02 -0.50468097964E+02  0.22860439456E+03  0.23655336351E+03  0.00000000000E+00 0.  1.
</event>
<event>
 7    1  0.6105960E-006  0.7649812E+02  0.7818608E-02  0.1416223E+00
          2   -1    0    0  502    0  0.00000000000E+00  0.00000000000E+00  0.93886732726E+02  0.93886732726E+02  0.00000000000E+00 0. -1.
          1   -1    0    0  501    0 -0.00000000000E+00 -0.00000000000E+00 -0.17368921629E+04  0.17368921629E+04  0.00000000000E+00 0. -1.
         25    2    1    2    0    0  0.49537369836E+02  0.96712773290E+02 -0.80468180698E+03  0.82155047647E+03  0.12500025348E+03 0.  0.
          2    1    1    2  501    0 -0.20066962070E+02 -0.68579403047E+02 -0.91745008130E+03  0.92022848748E+03  0.00000000000E+00 0. -1.
          1    1    1    2  502    0 -0.29470407766E+02 -0.28133370244E+02  0.79126458142E+02  0.88999931647E+02  0.00000000000E+00 0. -1.
         22    1    3    3    0    0  0.78186282872E+02  0.68300375657E+02 -0.34975281235E+03  0.36483566971E+03  0.00000000000E+00 0. -1.
         22    1    3    3    0    0 -0.28648913035E+02  0.28412397633E+02 -0.45492899463E+03  0.45671480676E+03  0.00000000000E+00 0. -1.
</event>
<event>
 7    1  0.6105960E-006  0.1664929E+03  0.7818608E-02  0.1325763E+00
          2   -1    0    0  502    0  0.00000000000E+00  0.00000000000E+00  0.15832889408E+04  0.15832889408E+04  0.00000000000E+00 0. -1.
          1   -1    0    0  501    0 -0.00000000000E+00 -0.00000000000E+00 -0.43650578292E+03  0.43650578292E+03  0.00000000000E+00 0. -1.
         25    2    1    2    0    0 -0.41805730574E+02  0.12333794303E+03  0.72553535619E+01  0.18066238173E+03  0.12500515476E+03 0.  0.
          2    1    1    2  501    0 -0.13310236683E+01  0.39550605310E+02 -0.34389779706E+03  0.34616718046E+03  0.00000000000E+00 0. -1.
          1    1    1    2  502    0  0.43136754242E+02 -0.16288854834E+03  0.14834256014E+04  0.14929651616E+04  0.00000000000E+00 0. -1.
         22    1    3    3    0    0 -0.77005423020E+02  0.82719524873E+02 -0.27938393645E+02  0.11641696100E+03  0.00000000000E+00 0. -1.
         22    1    3    3    0    0  0.35199692446E+02  0.40618418152E+02  0.35193747206E+02  0.64245420723E+02  0.00000000000E+00 0. -1.
</event>
<event>
 7    1  0.6105960E-006  0.4866853E+02  0.7818608E-02  0.1536113E+00
          2   -1    0    0  502    0  0.00000000000E+00  0.00000000000E+00  0.13842286891E+04  0.13842286891E+04  0.00000000000E+00 0. -1.
          1   -1    0    0  501    0 -0.00000000000E+00 -0.00000000000E+00 -0.14712397624E+04  0.14712397624E+04  0.00000000000E+00 0. -1.
         25    2    1    2    0    0 -0.29719844723E+02  0.12826848599E+02 -0.13356523486E+03  0.18577762869E+03  0.12500343252E+03 0.  0.
          2    1    1    2  501    0  0.19668522485E+01  0.27223709952E+02 -0.13109891811E+04  0.13112732865E+04  0.00000000000E+00 0. -1.
          1    1    1    2  502    0  0.27752992474E+02 -0.40050558550E+02  0.13575433426E+04  0.13584175363E+04  0.00000000000E+00 0. -1.
         22    1    3    3    0    0  0.30777187324E+01 -0.51254926295E+02 -0.83741256586E+02  0.98230025331E+02  0.00000000000E+00 0.  1.
         22    1    3    3    0    0 -0.32797563455E+02  0.64081774893E+02 -0.49823978278E+02  0.87547603357E+02  0.00000000000E+00 0.  1.
</event>
<event>
 7    1  0.8007566E-006  0.5927893E+02  0.7818608E-02  0.1412778E+00
          2   -1    0    0  502    0  0.00000000000E+00  0.00000000000E+00  0.85728402466E+03  0.85728402466E+03  0.00000000000E+00 0. -1.
          1   -1    0    0  501    0 -0.00000000000E+00 -0.00000000000E+00 -0.79155414355E+03  0.79155414355E+03  0.00000000000E+00 0. -1.
         25    2    1    2    0    0 -0.36630085094E+02  0.94524721870E+02 -0.39163419802E+03  0.42341360408E+03  0.12500019553E+03 0.  0.
          2    1    1    2  501    0  0.74452782088E-01 -0.54777965792E+02 -0.38120395784E+03  0.38511957695E+03  0.00000000000E+00 0. -1.
          1    1    1    2  502    0  0.36555632312E+02 -0.39746756078E+02  0.83856803697E+03  0.84030498719E+03  0.00000000000E+00 0. -1.
         22    1    3    3    0    0  0.36127185242E+02 -0.53697707972E+01 -0.72338115166E+02  0.81035861553E+02  0.00000000000E+00 0.  1.
         22    1    3    3    0    0 -0.72757270335E+02  0.99894492667E+02 -0.31929608285E+03  0.34237774252E+03  0.00000000000E+00 0.  1.
</event>
<event>
 7    1  0.6105960E-006  0.1283700E+03  0.7818608E-02  0.1239937E+00
          2   -1    0    0  502    0  0.00000000000E+00  0.00000000000E+00  0.11603024082E+04  0.11603024082E+04  0.00000000000E+00 0. -1.
          1   -1    0    0  501    0 -0.00000000000E+00 -0.00000000000E+00 -0.28306524077E+03  0.28306524077E+03  0.00000000000E+00 0. -1.
         25    2    1    2    0    0  0.87951527429E+02  0.14594930232E+03 -0.11984975677E+03  0.24295147608E+03  0.12499914202E+03 0.  0.
          2    1    1    2  501    0  0.35412799533E+02 -0.11027823302E+03 -0.63495656173E+02  0.13208729463E+03  0.00000000000E+00 0. -1.
          1    1    1    2  502    0 -0.12336432696E+03 -0.35671069303E+02  0.10605825803E+04  0.10683288782E+04  0.00000000000E+00 0. -1.
         22    1    3    3    0    0 -0.23437185264E+02  0.58024736997E+02 -0.97366805015E+01  0.63332256425E+02  0.00000000000E+00 0. -1.
         22    1    3    3    0    0  0.11138871269E+03  0.87924565325E+02 -0.11011307627E+03  0.17961921966E+03  0.00000000000E+00 0. -1.
</event>
<event>
 7    1  0.6105960E-006  0.3963621E+02  0.7818608E-02  0.1608774E+00
          2   -1    0    0  502    0  0.00000000000E+00  0.00000000000E+00  0.21711103540E+04  0.21711103540E+04  0.00000000000E+00 0. -1.
          1   -1    0    0  501    0 -0.00000000000E+00 -0.00000000000E+00 -0.24394390906E+02  0.24394390906E+02  0.00000000000E+00 0. -1.
         25    2    1    2    0    0  0.49195048984E+02  0.24842639447E+02  0.59227435722E+03  0.60782511853E+03  0.12500060367E+03 0.  0.
          2    1    1    2  501    0 -0.10479863007E+02 -0.18542083972E+02 -0.94465459519E+01  0.23299648862E+02  0.00000000000E+00 0. -1.
          1    1    1    2  502    0 -0.38715185977E+02 -0.63005554744E+01  0.15638881518E+04  0.15643799775E+04  0.00000000000E+00 0. -1.
         22    1    3    3    0    0  0.40044868630E+02  0.66078276364E+02  0.50488855462E+03  0.51076646591E+03  0.00000000000E+00 0. -1.
         22    1    3    3    0    0  0.91501803534E+01 -0.41235636918E+02  0.87385802594E+02  0.97058652615E+02  0.00000000000E+00 0. -1.
</event>
<event>
 7    1  0.6105960E-006  0.7438245E+02  0.7818608E-02  0.1368607E+00
          2   -1    0    0  502    0  0.00000000000E+00  0.00000000000E+00  0.11306209325E+04  0.11306209325E+04  0.00000000000E+00 0. -1.
          1   -1    0    0  501    0 -0.00000000000E+00 -0.00000000000E+00 -0.42384827282E+03  0.42384827282E+03  0.00000000000E+00 0. -1.
         25    2    1    2    0    0  0.74426254761E+02  0.10636630700E+03  0.40088099865E+01  0.18026491383E+03  0.12500523964E+03 0.  0.
          2    1    1    2  501    0 -0.53141234795E+02 -0.48820667405E+02 -0.33092219889E+03  0.33869890776E+03  0.00000000000E+00 0. -1.
          1    1    1    2  502    0 -0.21285019966E+02 -0.57545639591E+02  0.10336860486E+04  0.10355053837E+04  0.00000000000E+00 0. -1.
         22    1    3    3    0    0  0.47410426079E+02  0.42484670452E+02  0.62739076871E+02  0.89380576698E+02  0.00000000000E+00 0.  1.
         22    1    3    3    0    0  0.27015828683E+02  0.63881636543E+02 -0.58730266884E+02  0.90884337128E+02  0.00000000000E+00 0.  1.
</event>
<event>
 7    1  0.6105960E-006  0.7890841E+02  0.7818608E-02  0.1450311E+00
          2   -1    0    0  502    0  0.00000000000E+00  0.00000000000E+00  0.61128468348E+03  0.61128468348E+03  0.00000000000E+00 0. -1.
          1   -1    0    0  501    0 -0.00000000000E+00 -0.00000000000E+00 -0.11896148137E+04  0.11896148137E+04  0.00000000000E+00 0. -1.
         25    2    1    2    0    0 -0.40709123609E+02 -0.66067025168E+02  0.19201674942E+03  0.24190189777E+03  0.12499604603E+03 0.  0.
          2    1    1    2  501    0  0.12573827050E+02  0.77944965661E+02 -0.11627401878E+04  0.11654176347E+04  0.00000000000E+00 0. -1.
          1    1    1    2  502    0  0.28135296559E+02 -0.11877940493E+02  0.39239330816E+03  0.39357996477E+03  0.00000000000E+00 0. -1.
         22    1    3    3    0    0 -0.40182252487E+02  0.30568712357E+02  0.65530156058E+02  0.82724004636E+02  0.00000000000E+00 0.  1.
         22    1    3    3    0    0 -0.52687112265E+00 -0.96635737524E+02  0.12648659337E+03  0.15917789313E+03  0.00000000000E+00 0.  1.
</event>
<event>
 7    1  0.6105960E-006  0.1786171E+03  0.7818608E-02  0.1255285E+00
          2   -1    0    0  502    0  0.00000000000E+00  0.00000000000E+00  0.78262856932E+03  0.78262856932E+03  0.00000000000E+00 0. -1.
          1   -1    0    0  501    0 -0.00000000000E+00 -0.00000000000E+00 -0.54549095343E+03  0.54549095343E+03  0.00000000000E+00 0. -1.
         25    2    1    2    0    0 -0.16548396400E+03 -0.15614372267E+03 -0.15360803723E+03  0.30163625591E+03  0.12499278901E+03 0.  0.
          2    1    1    2  501    0  0.98013983368E+02  0.13288510753E+03 -0.29444601708E+03  0.33758502590E+03  0.00000000000E+00 0. -1.
          1    1    1    2  502    0  0.67469980631E+02  0.23258615141E+02  0.68519167020E+03  0.68889824095E+03  0.00000000000E+00 0. -1.
         22    1    3    3    0    0 -0.10514410093E+03 -0.15547242855E+03 -0.74017149251E+02  0.20175603183E+03  0.00000000000E+00 0. -1.
         22    1    3    3    0    0 -0.60339863071E+02 -0.67129412377E+00 -0.79590887983E+02  0.99880224074E+02  0.00000000000E+00 0. -1.
</event>
<event>
 7    1  0.6105960E-006  0.1286799E+03  0.7818608E-02  0.1258049E+00
          2   -1    0    0  502    0  0.00000000000E+00  0.00000000000E+00  0.12359621247E+04  0.12359621247E+04  0.00000000000E+00 0. -1.
          1   -1    0    0  501    0 -0.00000000000E+00 -0.00000000000E+00 -0.26461085748E+03  0.26461085748E+03  0.00000000000E+00 0. -1.
         25    2    1    2    0    0  0.68338992862E+02  0.13504926586E+03  0.18608641806E+03  0.27048427535E+03  0.12500026429E+03 0.  0.
          2    1    1    2  501    0 -0.11823644441E+03 -0.52575923396E+02 -0.20104039469E+03  0.23908434663E+03  0.00000000000E+00 0. -1.
          1    1    1    2  502    0  0.49897451548E+02 -0.82473342462E+02  0.98630524386E+03  0.99100436020E+03  0.00000000000E+00 0. -1.
         22    1    3    3    0    0 -0.28212319799E+01  0.35893923019E+02 -0.11884974653E+02  0.37915507145E+02  0.00000000000E+00 0.  1.
         22    1    3    3    0    0  0.71160224842E+02  0.99155342839E+02  0.19797139272E+03  0.23256876821E+03  0.00000000000E+00 0.  1.
</event>
<event>
 7    1  0.6105960E-006  0.5475702E+02  0.7818608E-02  0.1450869E+00
          2   -1    0    0  502    0  0.00000000000E+00  0.00000000000E+00  0.11533109899E+04  0.11533109899E+04  0.00000000000E+00 0. -1.
          1   -1    0    0  501    0 -0.00000000000E+00 -0.00000000000E+00 -0.51007590781E+02  0.51007590781E+02  0.00000000000E+00 0. -1.
         25    2    1    2    0    0 -0.66176554178E+02 -0.50220299658E+02  0.14260186310E+03  0.20703009006E+03  0.12499900804E+03 0.  0.
          2    1    1    2  501    0  0.43823522794E+02  0.72360541799E+00  0.86343264971E+01  0.44671874249E+02  0.00000000000E+00 0. -1.
          1    1    1    2  502    0  0.22353031384E+02  0.49496694240E+02  0.95106720951E+03  0.95261661636E+03  0.00000000000E+00 0. -1.
         22    1    3    3    0    0  0.24936088784E+01  0.24887543430E+01 -0.21344102398E+02  0.21632907585E+02  0.00000000000E+00 0.  1.
         22    1    3    3    0    0 -0.68670163057E+02 -0.52709054001E+02  0.16394596550E+03  0.18539718248E+03  0.00000000000E+00 0.  1.
</event>
<event>
 7    1  0.6105960E-006  0.1017860E+03  0.7818608E-02  0.1295128E+00
          2   -1    0    0  502    0  0.00000000000E+00  0.00000000000E+00  0.35597616653E+03  0.35597616653E+03  0.00000000000E+00 0. -1.
          1   -1    0    0  501    0 -0.00000000000E+00 -0.00000000000E+00 -0.25290221460E+03  0.25290221460E+03  0.00000000000E+00 0. -1.
         25    2    1    2    0    0  0.24652102734E+02 -0.16760592379E+03  0.82479024853E+02  0.22611326688E+03  0.12499979224E+03 0.  0.
          2    1    1    2  501    0  0.19735443056E+02  0.94576696762E+02 -0.15775964969E+03  0.18499282784E+03  0.00000000000E+00 0. -1.
          1    1    1    2  502    0 -0.44387545791E+02  0.73029227024E+02  0.17835457676E+03  0.19777228641E+03  0.00000000000E+00 0. -1.
         22    1    3    3    0    0  0.45120907777E+02 -0.63159357351E+02 -0.18068945368E+02  0.79696220276E+02  0.00000000000E+00 0.  1.
         22    1    3    3    0    0 -0.20468805043E+02 -0.10444656644E+03  0.10054797022E+03  0.14641704660E+03  0.00000000000E+00 0.  1.
</event>
<event>
 7    1  0.6105960E-006  0.5920633E+02  0.7818608E-02  0.1458550E+00
          2   -1    0    0  502    0  0.00000000000E+00  0.00000000000E+00  0.22890459034E+04  0.22890459034E+04  0.00000000000E+00 0. -1.
          1   -1    0    0  501    0 -0.00000000000E+00 -0.00000000000E+00 -0.65682696365E+02  0.65682696365E+02  0.00000000000E+00 0. -1.
         25    2    1    2    0    0 -0.36393004625E+02 -0.61290936627E+02  0.76849556899E+02  0.16312633226E+03  0.12499326454E+03 0.  0.
          2    1    1    2  501    0  0.38261097398E+02  0.21237290551E+01 -0.55541936736E+01  0.38720419246E+02  0.00000000000E+00 0. -1.
          1    1    1    2  502    0 -0.18680927728E+01  0.59167207572E+02  0.21520678438E+04  0.21528818482E+04  0.00000000000E+00 0. -1.
         22    1    3    3    0    0 -0.33149876972E+01 -0.94139340642E+02  0.66687832462E+02  0.11541434745E+03  0.00000000000E+00 0.  1.
         22    1    3    3    0    0 -0.33078016928E+02  0.32848404014E+02  0.10161724437E+02  0.47711984802E+02  0.00000000000E+00 0.  1.
</event>
<event>
 7    1  0.6105960E-006  0.5747790E+02  0.7818608E-02  0.1419819E+00
          2   -1    0    0  502    0  0.00000000000E+00  0.00000000000E+00  0.27136581827E+04  0.27136581827E+04  0.00000000000E+00 0. -1.
          1   -1    0    0  501    0 -0.00000000000E+00 -0.00000000000E+00 -0.36333260936E+03  0.36333260936E+03  0.00000000000E+00 0. -1.
         25    2    1    2    0    0 -0.62364794781E+02 -0.80714164412E+02  0.44092199347E+03  0.46951223463E+03  0.12500156072E+03 0.  0.
          2    1    1    2  501    0  0.45435595693E+02  0.26783647400E+02 -0.34668902061E+03  0.35067796357E+03  0.00000000000E+00 0. -1.
          1    1    1    2  502    0  0.16929199089E+02  0.53930517012E+02  0.22560926005E+04  0.22568005938E+04  0.00000000000E+00 0. -1.
         22    1    3    3    0    0 -0.85318610248E+02 -0.97741989364E+02  0.39130217160E+03  0.41225010762E+03  0.00000000000E+00 0. -1.
         22    1    3    3    0    0  0.22953815467E+02  0.17027824952E+02  0.49619821868E+02  0.57262127007E+02  0.00000000000E+00 0. -1.
</event>
<event>
 7    1  0.6105960E-006  0.5660468E+02  0.7818608E-02  0.1498254E+00
          2   -1    0    0  502    0  0.00000000000E+00  0.00000000000E+00  0.18208074510E+04  0.18208074510E+04  0.00000000000E+00 0. -1.
          1   -1    0    0  501    0 -0.00000000000E+00 -0.00000000000E+00 -0.89645454357E+01  0.89645454357E+01  0.00000000000E+00 0. -1.
         25    2    1    2    0    0 -0.11333715175E+02 -0.54301828444E+02  0.65645936484E+03  0.67055247285E+03  0.12499831795E+03 0.  0.
          2    1    1    2  501    0  0.40492881719E+02  0.46218990829E+02  0.63813869488E+03  0.64109036999E+03  0.00000000000E+00 0. -1.
          1    1    1    2  502    0 -0.29159166543E+02  0.80828376150E+01  0.51724484586E+03  0.51812915361E+03  0.00000000000E+00 0. -1.
         22    1    3    3    0    0  0.30290600664E+02 -0.74650269137E+02  0.28343627496E+03  0.29466303660E+03  0.00000000000E+00 0.  1.
         22    1    3    3    0    0 -0.41624315840E+02  0.20348440693E+02  0.37302308987E+03  0.37588943625E+03  0.00000000000E+00 0.  1.
</event>
<event>
 7    1  0.6105960E-006  0.5489562E+02  0.7818608E-02  0.1430594E+00
          2   -1    0    0  502    0  0.00000000000E+00  0.00000000000E+00  0.13224551386E+03  0.13224551386E+03  0.00000000000E+00 0. -1.
          1   -1    0    0  501    0 -0.00000000000E+00 -0.00000000000E+00 -0.37737887108E+03  0.37737887108E+03  0.00000000000E+00 0. -1.
         25    2    1    2    0    0 -0.22217008443E+02  0.19696541554E+02 -0.20565625077E+03  0.24248878761E+03  0.12499907768E+03 0.  0.
          2    1    1    2  501    0 -0.29719691718E+02 -0.41277346078E+02 -0.14165049024E+03  0.15050561704E+03  0.00000000000E+00 0. -1.
          1    1    1    2  502    0  0.51936700161E+02  0.21580804523E+02  0.10217338379E+03  0.11662998029E+03  0.00000000000E+00 0. -1.
         22    1    3    3    0    0 -0.15314931758E+02  0.59788083499E+02 -0.44011643552E+02  0.75803606981E+02  0.00000000000E+00 0.  1.
         22    1    3    3    0    0 -0.69020766849E+01 -0.40091541944E+02 -0.16164460722E+03  0.16668518063E+03  0.00000000000E+00 0.  1.
</event>
<event>
 7    1  0.6105960E-006  0.5967644E+02  0.7818608E-02  0.1525026E+00
          2   -1    0    0  502    0  0.00000000000E+00  0.00000000000E+00  0.21375140223E+03  0.21375140223E+03  0.00000000000E+00 0. -1.
          1   -1    0    0  501    0 -0.00000000000E+00 -0.00000000000E+00 -0.38766568672E+04  0.38766568672E+04  0.00000000000E+00 0. -1.
         25    2    1    2    0    0 -0.47888630683E+02  0.21373952843E+02 -0.19204759913E+03  0.23506606617E+03  0.12499443316E+03 0.  0.
          2    1    1    2  501    0  0.40382955763E+02 -0.44115069665E+02 -0.36621091221E+04  0.36625974587E+04  0.00000000000E+00 0. -1.
          1    1    1    2  502    0  0.75056749196E+01  0.22741116822E+02  0.19125125623E+03  0.19274474457E+03  0.00000000000E+00 0. -1.
         22    1    3    3    0    0 -0.85558186570E+02  0.66562005673E+01 -0.85667270090E+02  0.12125753362E+03  0.00000000000E+00 0. -1.
         22    1    3    3    0    0  0.37669555887E+02  0.14717752275E+02 -0.10638032904E+03  0.11380853255E+03  0.00000000000E+00 0. -1.
</event>
<event>
 7    1  0.6105960E-006  0.2030673E+03  0.7818608E-02  0.1372678E+00
          2   -1    0    0  502    0  0.00000000000E+00  0.00000000000E+00  0.20620161480E+04  0.20620161480E+04  0.00000000000E+00 0. -1.
          1   -1    0    0  501    0 -0.00000000000E+00 -0.00000000000E+00 -0.10657812657E+04  0.10657812657E+04  0.00000000000E+00 0. -1.
         25    2    1    2    0    0 -0.21204309591E+03 -0.39606970331E+02  0.11960619782E+04  0.12217692971E+04  0.12499989183E+03 0.  0.
          2    1    1    2  501    0  0.20194691030E+03  0.20364401717E+02 -0.10430047208E+04  0.10625705205E+04  0.00000000000E+00 0. -1.
          1    1    1    2  502    0  0.10096185604E+02  0.19242568614E+02  0.84317762485E+03  0.84345759612E+03  0.00000000000E+00 0. -1.
         22    1    3    3    0    0 -0.14620738636E+03 -0.25733242689E+02  0.10560150996E+04  0.10663989357E+04  0.00000000000E+00 0. -1.
         22    1    3    3    0    0 -0.65835709550E+02 -0.13873727642E+02  0.14004687864E+03  0.15537036135E+03  0.00000000000E+00 0. -1.
</event>
<event>
 7    1  0.6105960E-006  0.1285128E+03  0.7818608E-02  0.1274670E+00
          2   -1    0    0  502    0  0.00000000000E+00  0.00000000000E+00  0.29346303526E+04  0.29346303526E+04  0.00000000000E+00 0. -1.
          1   -1    0    0  501    0 -0.00000000000E+00 -0.00000000000E+00 -0.22130695706E+03  0.22130695706E+03  0.00000000000E+00 0. -1.
         25    2    1    2    0    0 -0.11540006326E+03 -0.17360586935E+03 -0.19213972841E+02  0.24382599337E+03  0.12500306324E+03 0.  0.
          2    1    1    2  501    0  0.54447338549E+02  0.61461498972E+02 -0.69252992293E+02  0.10741510821E+03  0.00000000000E+00 0. -1.
          1    1    1    2  502    0  0.60952724708E+02  0.11214437038E+03  0.28017903607E+04  0.28046962081E+04  0.00000000000E+00 0. -1.
         22    1    3    3    0    0  0.23736676319E+01 -0.10795155427E+03 -0.30233468239E+01  0.10801996572E+03  0.00000000000E+00 0. -1.
         22    1    3    3    0    0 -0.11777373089E+03 -0.65654315077E+02 -0.16190626017E+02  0.13580602765E+03  0.00000000000E+00 0. -1.
</event>
<event>
 7    1  0.6105960E-006  0.1201008E+03  0.7818608E-02  0.1313617E+00
          2   -1    0    0  502    0  0.00000000000E+00  0.00000000000E+00  0.26532681505E+04  0.26532681505E+04  0.00000000000E+00 0. -1.
          1   -1    0    0  501    0 -0.00000000000E+00 -0.00000000000E+00 -0.31525516228E+03  0.31525516228E+03  0.00000000000E+00 0. -1.
         25    2    1    2    0    0  0.13393878364E+03  0.12104094668E+03  0.97793591433E+03  0.10022843602E+04  0.12499911052E+03 0.  0.
          2    1    1    2  501    0 -0.88945900604E+02 -0.79628482849E+02 -0.29073685333E+03  0.31429283543E+03  0.00000000000E+00 0. -1.
          1    1    1    2  502    0 -0.44992883039E+02 -0.41412463826E+02  0.16508139272E+04  0.16519461172E+04  0.00000000000E+00 0. -1.
         22    1    3    3    0    0  0.76106686483E+02  0.11979249911E+03  0.46714200183E+03  0.48822548115E+03  0.00000000000E+00 0. -1.
         22    1    3    3    0    0  0.57832097159E+02  0.12484475624E+01  0.51079391250E+03  0.51405887905E+03  0.00000000000E+00 0. -1.
</event>
<event>
 7    1  0.6105960E-006  0.7763619E+02  0.7818608E-02  0.1436226E+00
          2   -1    0    0  502    0  0.00000000000E+00  0.00000000000E+00  0.48655980647E+03  0.48655980647E+03  0.00000000000E+00 0. -1.
          1   -1    0    0  501    0 -0.00000000000E+00 -0.00000000000E+00 -0.73913747042E+03  0.73913747042E+03  0.00000000000E+00 0. -1.
         25    2    1    2    0    0  0.50466066961E+02 -0.97292659369E+02  0.82379150678E+02  0.18553898556E+03  0.12500282083E+03 0.  0.
          2    1    1    2  501    0 -0.15037111578E+02  0.31015853201E+02 -0.68311367277E+03  0.68398273941E+03  0.00000000000E+00 0. -1.
          1    1    1    2  502    0 -0.35428955383E+02  0.66276806168E+02  0.34815685814E+03  0.35617555192E+03  0.00000000000E+00 0. -1.
         22    1    3    3    0    0 -0.77984551124E+01 -0.41641284045E+01 -0.28269604391E+02  0.29619696149E+02  0.00000000000E+00 0. -1.
         22    1    3    3    0    0  0.58264522073E+02 -0.93128530965E+02  0.11064875507E+03  0.15591928941E+03  0.00000000000E+00 0. -1.
</event>
<event>
 7    1  0.6105960E-006  0.4436051E+03  0.7818608E-02  0.1133904E+00
          2   -1    0    0  502    0  0.00000000000E+00  0.00000000000E+00  0.21954105565E+04  0.21954105565E+04  0.00000000000E+00 0. -1.
          1   -1    0    0  501    0 -0.00000000000E+00 -0.00000000000E+00 -0.36290129226E+03  0.36290129226E+03  0.00000000000E+00 0. -1.
         25    2    1    2    0    0  0.28767990005E+03 -0.21794445129E+03  0.21898693689E+03  0.44027183526E+03  0.12499800661E+03 0.  0.
          2    1    1    2  501    0  0.61724481045E+02 -0.89934309178E+02 -0.20965110255E+03  0.23632959258E+03  0.00000000000E+00 0. -1.
          1    1    1    2  502    0 -0.34940438110E+03  0.30787876047E+03  0.18231734299E+04  0.18817104209E+04  0.00000000000E+00 0. -1.
         22    1    3    3    0    0  0.24959436862E+03 -0.17168169691E+03  0.22869198189E+03  0.37956814472E+03  0.00000000000E+00 0. -1.
         22    1    3    3    0    0  0.38085531428E+02 -0.46262754386E+02 -0.97050450061E+01  0.60703690548E+02  0.00000000000E+00 0. -1.
</event>
<event>
 7    1  0.6105960E-006  0.9178084E+02  0.7818608E-02  0.1320444E+00
          2   -1    0    0  502    0  0.00000000000E+00  0.00000000000E+00  0.49866096280E+02  0.49866096280E+02  0.00000000000E+00 0. -1.
          1   -1    0    0  501    0 -0.00000000000E+00 -0.00000000000E+00 -0.29761365082E+04  0.29761365082E+04  0.00000000000E+00 0. -1.
         25    2    1    2    0    0  0.70700997066E+02  0.43344426929E+02 -0.12200144286E+04  0.12292019372E+04  0.12499930422E+03 0.  0.
          2    1    1    2  501    0 -0.57161670590E+02  0.48959392845E+02 -0.17017362102E+04  0.17033997206E+04  0.00000000000E+00 0. -1.
          1    1    1    2  502    0 -0.13539326476E+02 -0.92303819775E+02 -0.45197730944E+01  0.93400946758E+02  0.00000000000E+00 0. -1.
         22    1    3    3    0    0  0.41649887605E+02  0.31153337341E+02 -0.11621769509E+04  0.11633402377E+04  0.00000000000E+00 0.  1.
         22    1    3    3    0    0  0.29051109461E+02  0.12191089588E+02 -0.57837477728E+02  0.65861699463E+02  0.00000000000E+00 0.  1.
</event>
<event>
 7    1  0.6105960E-006  0.7934305E+02  0.7818608E-02  0.1436367E+00
          2   -1    0    0  502    0  0.00000000000E+00  0.00000000000E+00  0.30776461166E+03  0.30776461166E+03  0.00000000000E+00 0. -1.
          1   -1    0    0  501    0 -0.00000000000E+00 -0.00000000000E+00 -0.49246598281E+03  0.49246598281E+03  0.00000000000E+00 0. -1.
         25    2    1    2    0    0 -0.25788193914E+02  0.51170785987E+02 -0.23950501301E+03  0.27617051432E+03  0.12499608569E+03 0.  0.
          2    1    1    2  501    0  0.18180337057E+02  0.28365341119E+02 -0.22785165269E+03  0.23032909687E+03  0.00000000000E+00 0. -1.
          1    1    1    2  502    0  0.76078568570E+01 -0.79536127107E+02  0.28265529455E+03  0.29373098328E+03  0.00000000000E+00 0. -1.
         22    1    3    3    0    0 -0.29697042917E+01  0.51299421846E+02 -0.24689439847E+03  0.25218503885E+03  0.00000000000E+00 0. -1.
         22    1    3    3    0    0 -0.22818489622E+02 -0.12863585831E+00  0.73893854610E+01  0.23985475466E+02  0.00000000000E+00 0. -1.
</event>
<event>
 7    1  0.6105960E-006  0.2376589E+03  0.7818608E-02  0.1175043E+00
          2   -1    0    0  502    0  0.00000000000E+00  0.00000000000E+00  0.15488960736E+04  0.15488960736E+04  0.00000000000E+00 0. -1.
          1   -1    0    0  501    0 -0.00000000000E+00 -0.00000000000E+00 -0.44901769828E+03  0.44901769828E+03  0.00000000000E+00 0. -1.
         25    2    1    2    0    0 -0.20367256835E+03 -0.69829977959E+02 -0.13127764883E+03  0.28145485619E+03  0.12499709625E+03 0.  0.
          2    1    1    2  501    0  0.50295042926E+02 -0.11500481759E+03 -0.21582888095E+03  0.24967539980E+03  0.00000000000E+00 0. -1.
          1    1    1    2  502    0  0.15337752543E+03  0.18483479555E+03  0.14469849051E+04  0.14667835159E+04  0.00000000000E+00 0. -1.
         22    1    3    3    0    0 -0.53934410917E+02 -0.76882360384E+02 -0.23447201504E+02  0.96796638772E+02  0.00000000000E+00 0. -1.
         22    1    3    3    0    0 -0.14973815744E+03  0.70523824253E+01 -0.10783044732E+03  0.18465821742E+03  0.00000000000E+00 0. -1.
</event>
<event>
 7    1  0.6105960E-006  0.1730341E+03  0.7818608E-02  0.1339299E+00
          2   -1    0    0  502    0  0.00000000000E+00  0.00000000000E+00  0.60789394401E+03  0.60789394401E+03  0.00000000000E+00 0. -1.
          1   -1    0    0  501    0 -0.00000000000E+00 -0.00000000000E+00 -0.84081060455E+03  0.84081060455E+03  0.00000000000E+00 0. -1.
         25    2    1    2    0    0 -0.81308952067E+02  0.13348200302E+03 -0.86378573715E+02  0.21797811521E+03  0.12499843958E+03 0.  0.
          2    1    1    2  501    0  0.65734305276E+02 -0.16350026020E+03 -0.67681124061E+03  0.69937600001E+03  0.00000000000E+00 0. -1.
          1    1    1    2  502    0  0.15574646791E+02  0.30018257186E+02  0.53027315379E+03  0.53135043334E+03  0.00000000000E+00 0. -1.
         22    1    3    3    0    0 -0.66375318391E+02  0.15531325871E+03 -0.56564013414E+02  0.17812180899E+03  0.00000000000E+00 0.  1.
         22    1    3    3    0    0 -0.14933633676E+02 -0.21831255695E+02 -0.29814560301E+02  0.39856306225E+02  0.00000000000E+00 0.  1.
</event>
<event>
 7    1  0.6105960E-006  0.1632185E+03  0.7818608E-02  0.1280478E+00
          2   -1    0    0  502    0  0.00000000000E+00  0.00000000000E+00  0.17665272802E+04  0.17665272802E+04  0.00000000000E+00 0. -1.
          1   -1    0    0  501    0 -0.00000000000E+00 -0.00000000000E+00 -0.44521319540E+02  0.44521319540E+02  0.00000000000E+00 0. -1.
         25    2    1    2    0    0  0.10945402818E+03  0.14797713760E+03  0.72222238177E+03  0.75571511679E+03  0.12499100558E+03 0.  0.
          2    1    1    2  501    0 -0.48381750103E+02 -0.15128009012E+03  0.21057242709E+03  0.26375596005E+03  0.00000000000E+00 0. -1.
          1    1    1    2  502    0 -0.61072278073E+02  0.33029525163E+01  0.78921115182E+03  0.79157752292E+03  0.00000000000E+00 0. -1.
         22    1    3    3    0    0  0.77245574067E+02  0.30480821061E+02  0.15804662598E+03  0.17853485696E+03  0.00000000000E+00 0. -1.
         22    1    3    3    0    0  0.32208454109E+02  0.11749631654E+03  0.56417575580E+03  0.57718025984E+03  0.00000000000E+00 0. -1.
</event>
<event>
 7    1  0.6105960E-006  0.1072833E+03  0.7818608E-02  0.1313587E+00
          2   -1    0    0  502    0  0.00000000000E+00  0.00000000000E+00  0.16200033772E+03  0.16200033772E+03  0.00000000000E+00 0. -1.
          1   -1    0    0  501    0 -0.00000000000E+00 -0.00000000000E+00 -0.79448147355E+03  0.79448147355E+03  0.00000000000E+00 0. -1.
         25    2    1    2    0    0  0.93144241151E+02  0.46473726560E+02 -0.22382084881E+03  0.27668877009E+03  0.12500098483E+03 0.  0.
          2    1    1    2  501    0 -0.11005558945E+03  0.19879488889E+02 -0.52934814757E+03  0.54103316736E+03  0.00000000000E+00 0. -1.
          1    1    1    2  502    0  0.16911348299E+02 -0.66353215449E+02  0.12068786055E+03  0.13875987383E+03  0.00000000000E+00 0. -1.
         22    1    3    3    0    0 -0.28967780766E+02  0.23504923317E+02 -0.38862745151E+02  0.53869534092E+02  0.00000000000E+00 0.  1.
         22    1    3    3    0    0  0.12211202192E+03  0.22968803243E+02 -0.18495810366E+03  0.22281923599E+03  0.00000000000E+00 0.  1.
</event>
<event>
 7    1  0.6105960E-006  0.1869647E+03  0.7818608E-02  0.1267489E+00
          2   -1    0    0  502    0  0.00000000000E+00  0.00000000000E+00  0.35088767830E+03  0.35088767830E+03  0.00000000000E+00 0. -1.
          1   -1    0    0  501    0 -0.00000000000E+00 -0.00000000000E+00 -0.13013794474E+04  0.13013794474E+04  0.00000000000E+00 0. -1.
         25    2    1    2    0    0  0.22991144469E+03  0.86064128913E+02  0.12548477982E+03  0.30271748999E+03  0.12500056839E+03 0.  0.
          2    1    1    2  501    0 -0.17378589695E+03 -0.63502127016E+02 -0.11986110814E+04  0.12128077270E+04  0.00000000000E+00 0. -1.
          1    1    1    2  502    0 -0.56125547735E+02 -0.22562001897E+02  0.12263453251E+03  0.13674190872E+03  0.00000000000E+00 0. -1.
         22    1    3    3    0    0  0.17601436340E+03  0.13087785745E+02  0.11665433081E+03  0.21156696140E+03  0.00000000000E+00 0.  1.
         22    1    3    3    0    0  0.53897081284E+02  0.72976343167E+02  0.88304490165E+01  0.91150528593E+02  0.00000000000E+00 0.  1.
</event>
<event>
 7    1  0.6105960E-006  0.5145290E+02  0.7818608E-02  0.1458466E+00
          2   -1    0    0  502    0  0.00000000000E+00  0.00000000000E+00  0.26625488721E+04  0.26625488721E+04  0.00000000000E+00 0. -1.
          1   -1    0    0  501    0 -0.00000000000E+00 -0.00000000000E+00 -0.83999661662E+02  0.83999661662E+02  0.00000000000E+00 0. -1.
         25    2    1    2    0    0  0.41838077876E+02  0.15763949695E+02  0.91540555799E+02  0.16125608744E+03  0.12499970204E+03 0.  0.
          2    1    1    2  501    0  0.13352455247E+01 -0.44101274087E+02 -0.38920999988E+02  0.58834934323E+02  0.00000000000E+00 0. -1.
          1    1    1    2  502    0 -0.43173323401E+02  0.28337324392E+02  0.25259296547E+04  0.25264575120E+04  0.00000000000E+00 0. -1.
         22    1    3    3    0    0  0.67757846022E+02 -0.28809399089E+02  0.26489087035E+02  0.78248187872E+02  0.00000000000E+00 0.  1.
         22    1    3    3    0    0 -0.25919768145E+02  0.44573348784E+02  0.65051468764E+02  0.83007899570E+02  0.00000000000E+00 0.  1.
</event>
<event>
 7    1  0.6105960E-006  0.1585803E+03  0.7818608E-02  0.1295695E+00
          2   -1    0    0  502    0  0.00000000000E+00  0.00000000000E+00  0.34092278073E+04  0.34092278073E+04  0.00000000000E+00 0. -1.
          1   -1    0    0  501    0 -0.00000000000E+00 -0.00000000000E+00 -0.92147604272E+02  0.92147604272E+02  0.00000000000E+00 0. -1.
         25    2    1    2    0    0 -0.88129756832E+02  0.12525474990E+03  0.17587573540E+04  0.17698329374E+04  0.12500235838E+03 0.  0.
          2    1    1    2  501    0  0.13060160907E+03 -0.90997800718E+02 -0.12597351935E+02  0.15967489879E+03  0.00000000000E+00 0. -1.
          1    1    1    2  502    0 -0.42471852235E+02 -0.34256949179E+02  0.15709202009E+04  0.15718675754E+04  0.00000000000E+00 0. -1.
         22    1    3    3    0    0 -0.71777922508E+02  0.91297239638E+02  0.16611045299E+04  0.16651593063E+04  0.00000000000E+00 0. -1.
         22    1    3    3    0    0 -0.16351834323E+02  0.33957510259E+02  0.97652824089E+02  0.10467363107E+03  0.00000000000E+00 0. -1.
</event>
<event>
 7    1  0.6105960E-006  0.5977988E+02  0.7818608E-02  0.1497644E+00
          2   -1    0    0  502    0  0.00000000000E+00  0.00000000000E+00  0.31527172624E+04  0.31527172624E+04  0.00000000000E+00 0. -1.
          1   -1    0    0  501    0 -0.00000000000E+00 -0.00000000000E+00 -0.30759063861E+02  0.30759063861E+02  0.00000000000E+00 0. -1.
         25    2    1    2    0    0  0.13579315283E+01  0.85195882759E+02  0.43661667216E+03  0.46208463437E+03  0.12501163347E+03 0.  0.
          2    1    1    2  501    0 -0.10578716651E+02 -0.26756983365E+02 -0.60072589108E+01  0.29392729788E+02  0.00000000000E+00 0. -1.
          1    1    1    2  502    0  0.92207851226E+01 -0.58438899393E+02  0.26913487853E+04  0.26919989621E+04  0.00000000000E+00 0. -1.
         22    1    3    3    0    0  0.29034968175E+02 -0.24335124087E+02  0.12537429053E+03  0.13097305207E+03  0.00000000000E+00 0.  1.
         22    1    3    3    0    0 -0.27677036647E+02  0.10953100685E+03  0.31124238162E+03  0.33111158230E+03  0.00000000000E+00 0.  1.
</event>
<event>
 7    1  0.6105960E-006  0.8849070E+02  0.7818608E-02  0.1401044E+00
          2   -1    0    0  502    0  0.00000000000E+00  0.00000000000E+00  0.10202294923E+03  0.10202294923E+03  0.00000000000E+00 0. -1.
          1   -1    0    0  501    0 -0.00000000000E+00 -0.00000000000E+00 -0.45905854147E+03  0.45905854147E+03  0.00000000000E+00 0. -1.
         25    2    1    2    0    0  0.24585084561E+01  0.55657560791E+02 -0.98593070966E+02  0.16866740996E+03  0.12499717278E+03 0.  0.
          2    1    1    2  501    0 -0.96796142531E+01 -0.94654394771E+02 -0.31176427102E+03  0.32596028909E+03  0.00000000000E+00 0. -1.
          1    1    1    2  502    0  0.72211057969E+01  0.38996833980E+02  0.53321749744E+02  0.66453791654E+02  0.00000000000E+00 0. -1.
         22    1    3    3    0    0  0.45921817348E+02 -0.13584237141E+02 -0.11569796016E+02  0.49266672174E+02  0.00000000000E+00 0. -1.
         22    1    3    3    0    0 -0.43463308892E+02  0.69241797931E+02 -0.87023274949E+02  0.11940073778E+03  0.00000000000E+00 0. -1.
</event>
<event>
 7    1  0.6105960E-006  0.1052521E+03  0.7818608E-02  0.1317462E+00
          2   -1    0    0  502    0  0.00000000000E+00  0.00000000000E+00  0.84980978178E+03  0.84980978178E+03  0.00000000000E+00 0. -1.
          1   -1    0    0  501    0 -0.00000000000E+00 -0.00000000000E+00 -0.12291032887E+03  0.12291032887E+03  0.00000000000E+00 0. -1.
         25    2    1    2    0    0 -0.11484188638E+03 -0.85392706193E+02  0.27237285066E+02  0.19195435229E+03  0.12499612205E+03 0.  0.
          2    1    1    2  501    0  0.48101739924E+02  0.75952684907E+02  0.13041112193E+02  0.90844143100E+02  0.00000000000E+00 0. -1.
          1    1    1    2  502    0  0.66740146453E+02  0.94400212856E+01  0.68662105565E+03  0.68992161526E+03  0.00000000000E+00 0. -1.
         22    1    3    3    0    0 -0.87649306176E+02 -0.97642221625E+02 -0.23308658443E+02  0.13326551645E+03  0.00000000000E+00 0. -1.
         22    1    3    3    0    0 -0.27192580200E+02  0.12249515432E+02  0.50545943510E+02  0.58688835834E+02  0.00000000000E+00 0. -1.
</event>
<event>
 7    1  0.6105960E-006  0.2145309E+03  0.7818608E-02  0.1138143E+00
          2   -1    0    0  502    0  0.00000000000E+00  0.00000000000E+00  0.22273664445E+04  0.22273664445E+04  0.00000000000E+00 0. -1.
          1   -1    0    0  501    0 -0.00000000000E+00 -0.00000000000E+00 -0.46638200296E+03  0.46638200296E+03  0.00000000000E+00 0. -1.
         25    2    1    2    0    0 -0.10906043284E+02 -0.19734031725E+03  0.13139846207E+04  0.13346319442E+04  0.12499880176E+03 0.  0.
          2    1    1    2  501    0 -0.21350259240E+03 -0.20979995105E+02 -0.40121224362E+03  0.45496679174E+03  0.00000000000E+00 0. -1.
          1    1    1    2  502    0  0.22440863569E+03  0.21832031236E+03  0.84821206442E+03  0.90414971148E+03  0.00000000000E+00 0. -1.
         22    1    3    3    0    0 -0.29312880017E+02 -0.48831853137E+01  0.36176424500E+03  0.36298272603E+03  0.00000000000E+00 0. -1.
         22    1    3    3    0    0  0.18406836733E+02 -0.19245713194E+03  0.95222037571E+03  0.97164921818E+03  0.00000000000E+00 0. -1.
</event>
<event>
 7    1  0.6105960E-006  0.4977865E+02  0.7818608E-02  0.1466445E+00
          2   -1    0    0  502    0  0.00000000000E+00  0.00000000000E+00  0.11232386063E+04  0.11232386063E+04  0.00000000000E+00 0. -1.
          1   -1    0    0  501    0 -0.00000000000E+00 -0.00000000000E+00 -0.24781062799E+03  0.24781062799E+03  0.00000000000E+00 0. -1.
         25    2    1    2    0    0  0.58043763895E+02 -0.63053474766E+02  0.49240329644E+03  0.51519972003E+03  0.12499970386E+03 0.  0.
          2    1    1    2  501    0 -0.18501606764E+02  0.46042686838E+02 -0.23304936256E+03  0.23827346443E+03  0.00000000000E+00 0. -1.
          1    1    1    2  502    0 -0.39542157130E+02  0.17010787927E+02  0.61607404445E+03  0.61757604985E+03  0.00000000000E+00 0. -1.
         22    1    3    3    0    0  0.17747270429E+02  0.38220196593E+02  0.12065896768E+03  0.12780585088E+03  0.00000000000E+00 0.  1.
         22    1    3    3    0    0  0.40296493465E+02 -0.10127367136E+03  0.37174432875E+03  0.38739386915E+03  0.00000000000E+00 0.  1.
</event>
<event>
 7    1  0.6105960E-006  0.1310215E+03  0.7818608E-02  0.1261961E+00
          2   -1    0    0  502    0  0.00000000000E+00  0.00000000000E+00  0.13404729568E+04  0.13404729568E+04  0.00000000000E+00 0. -1.
          1   -1    0    0  501    0 -0.00000000000E+00 -0.00000000000E+00 -0.40463129012E+03  0.40463129012E+03  0.00000000000E+00 0. -1.
         25    2    1    2    0    0  0.69515922098E+02  0.14751805892E+03  0.13938414969E+03  0.24828842081E+03  0.12500063037E+03 0.  0.
          2    1    1    2  501    0  0.42581984719E+02 -0.80535474629E+02 -0.34045279313E+03  0.35243054982E+03  0.00000000000E+00 0. -1.
          1    1    1    2  502    0 -0.11209790682E+03 -0.66982584288E+02  0.11369103102E+04  0.11443852763E+04  0.00000000000E+00 0. -1.
         22    1    3    3    0    0  0.62488174694E+02  0.19489162432E+02  0.10151517690E+02  0.66239359450E+02  0.00000000000E+00 0. -1.
         22    1    3    3    0    0  0.70277474044E+01  0.12802889649E+03  0.12923263200E+03  0.18204906136E+03  0.00000000000E+00 0. -1.
</event>
<event>
 7    1  0.6105960E-006  0.2119050E+03  0.7818608E-02  0.1293883E+00
          2   -1    0    0  502    0  0.00000000000E+00  0.00000000000E+00  0.22507813141E+04  0.22507813141E+04  0.00000000000E+00 0. -1.
          1   -1    0    0  501    0 -0.00000000000E+00 -0.00000000000E+00 -0.11427432157E+03  0.11427432157E+03  0.00000000000E+00 0. -1.
         25    2    1    2    0    0  0.19567353788E+03  0.12619592964E+03  0.43727269839E+03  0.51092502472E+03  0.12499368804E+03 0.  0.
          2    1    1    2  501    0 -0.18785348250E+03 -0.85410807503E+02  0.60742967456E+02  0.21511309821E+03  0.00000000000E+00 0. -1.
          1    1    1    2  502    0 -0.78200553846E+01 -0.40785122134E+02  0.16384913267E+04  0.16390175127E+04  0.00000000000E+00 0. -1.
         22    1    3    3    0    0  0.60584778760E+02  0.43947720677E+02  0.27224945646E+03  0.28235028619E+03  0.00000000000E+00 0. -1.
         22    1    3    3    0    0  0.13508875912E+03  0.82248208961E+02  0.16502324193E+03  0.22857473854E+03  0.00000000000E+00 0. -1.
</event>
<event>
 7    1  0.6105960E-006  0.1005841E+03  0.7818608E-02  0.1291317E+00
          2   -1    0    0  502    0  0.00000000000E+00  0.00000000000E+00  0.10147128865E+04  0.10147128865E+04  0.00000000000E+00 0. -1.
          1   -1    0    0  501    0 -0.00000000000E+00 -0.00000000000E+00 -0.43760930658E+03  0.43760930658E+03  0.00000000000E+00 0. -1.
         25    2    1    2    0    0 -0.58779596014E+02  0.16626005936E+02  0.54393046254E+01  0.13923369412E+03  0.12499988225E+03 0.  0.
          2    1    1    2  501    0  0.33120434314E+02 -0.10248153968E+03 -0.36069605227E+03  0.37643202742E+03  0.00000000000E+00 0. -1.
          1    1    1    2  502    0  0.25659161700E+02  0.85855533742E+02  0.93236032758E+03  0.93665647155E+03  0.00000000000E+00 0. -1.
         22    1    3    3    0    0  0.12103066664E+02  0.56032000616E+02  0.91455637844E+01  0.58049208889E+02  0.00000000000E+00 0.  1.
         22    1    3    3    0    0 -0.70882662678E+02 -0.39405994681E+02 -0.37062591590E+01  0.81184485230E+02  0.00000000000E+00 0.  1.
</event>
<event>
 7    1  0.6105960E-006  0.3123771E+02  0.7818608E-02  0.1636925E+00
          2   -1    0    0  502    0  0.00000000000E+00  0.00000000000E+00  0.17435818311E+03  0.17435818311E+03  0.00000000000E+00 0. -1.
          1   -1    0    0  501    0 -0.00000000000E+00 -0.00000000000E+00 -0.13407980716E+03  0.13407980716E+03  0.00000000000E+00 0. -1.
         25    2    1    2    0    0 -0.40919526368E+01  0.10966387647E+02  0.25493971194E+02  0.12810974201E+03  0.12500063078E+03 0.  0.
          2    1    1    2  501    0 -0.60146569257E+01 -0.31544207756E+02 -0.78211926184E+02  0.84547729350E+02  0.00000000000E+00 0. -1.
          1    1    1    2  502    0  0.10106609563E+02  0.20577820109E+02  0.92996330932E+02  0.95780518917E+02  0.00000000000E+00 0. -1.
         22    1    3    3    0    0 -0.38700011445E+02  0.50381410246E+02  0.38214018877E+02  0.74136958549E+02  0.00000000000E+00 0. -1.
         22    1    3    3    0    0  0.34608058808E+02 -0.39415022599E+02 -0.12720047683E+02  0.53972783456E+02  0.00000000000E+00 0. -1.
</event>
<event>
 7    1  0.6105960E-006  0.1499830E+03  0.7818608E-02  0.1410195E+00
          2   -1    0    0  502    0  0.00000000000E+00  0.00000000000E+00  0.92559717814E+03  0.92559717814E+03  0.00000000000E+00 0. -1.
          1   -1    0    0  501    0 -0.00000000000E+00 -0.00000000000E+00 -0.12780701832E+04  0.12780701832E+04  0.00000000000E+00 0. -1.
         25    2    1    2    0    0  0.12367480603E+03  0.11405283984E+03 -0.64717118388E+03  0.68026485454E+03  0.12500489253E+03 0.  0.
          2    1    1    2  501    0 -0.64079322083E+01 -0.20812666524E+02 -0.60798318271E+03  0.60837305919E+03  0.00000000000E+00 0. -1.
          1    1    1    2  502    0 -0.11726687382E+03 -0.93240173319E+02  0.90268136151E+03  0.91502944763E+03  0.00000000000E+00 0. -1.
         22    1    3    3    0    0  0.34946093130E+02  0.69575582172E+02 -0.47660704421E+03  0.48292469977E+03  0.00000000000E+00 0.  1.
         22    1    3    3    0    0  0.88728712903E+02  0.44477257670E+02 -0.17056413967E+03  0.19734015477E+03  0.00000000000E+00 0.  1.
</event>
<event>
 7    1  0.6105960E-006  0.8654450E+02  0.7818608E-02  0.1339965E+00
          2   -1    0    0  502    0  0.00000000000E+00  0.00000000000E+00  0.15598180480E+04  0.15598180480E+04  0.00000000000E+00 0. -1.
          1   -1    0    0  501    0 -0.00000000000E+00 -0.00000000000E+00 -0.38407146207E+02  0.38407146207E+02  0.00000000000E+00 0. -1.
         25    2    1    2    0    0  0.89936606695E+02 -0.89318640561E+02  0.46767553450E+03  0.50041235899E+03  0.12500284271E+03 0.  0.
          2    1    1    2  501    0 -0.66641045491E+02  0.88462712031E+01  0.35285919283E+02  0.75923524404E+02  0.00000000000E+00 0. -1.
          1    1    1    2  502    0 -0.23295561204E+02  0.80472369358E+02  0.10184494480E+04  0.10218893108E+04  0.00000000000E+00 0. -1.
         22    1    3    3    0    0  0.11606328223E+03 -0.92666050078E+02  0.42562767359E+03  0.45079551778E+03  0.00000000000E+00 0.  1.
         22    1    3    3    0    0 -0.26126675538E+02  0.33474095170E+01  0.42047860909E+02  0.49616841215E+02  0.00000000000E+00 0.  1.
</event>
<event>
 7    1  0.6105960E-006  0.2044713E+03  0.7818608E-02  0.1216430E+00
          2   -1    0    0  502    0  0.00000000000E+00  0.00000000000E+00  0.16133705393E+04  0.16133705393E+04  0.00000000000E+00 0. -1.
          1   -1    0    0  501    0 -0.00000000000E+00 -0.00000000000E+00 -0.55748629449E+03  0.55748629449E+03  0.00000000000E+00 0. -1.
         25    2    1    2    0    0 -0.12636500235E+03 -0.21050050835E+02  0.45927169574E+03  0.49291115628E+03  0.12497879429E+03 0.  0.
          2    1    1    2  501    0  0.20626951101E+03 -0.26063860777E+02 -0.51868214828E+03  0.55880014939E+03  0.00000000000E+00 0. -1.
          1    1    1    2  502    0 -0.79904508665E+02  0.47113911612E+02  0.11152946973E+04  0.11191455281E+04  0.00000000000E+00 0. -1.
         22    1    3    3    0    0 -0.77103462641E+02 -0.49493169805E+02  0.13168691858E+03  0.16042431965E+03  0.00000000000E+00 0. -1.
         22    1    3    3    0    0 -0.49261539706E+02  0.28443118970E+02  0.32758477716E+03  0.33248683664E+03  0.00000000000E+00 0. -1.
</event>
<event>
 7    1  0.6105960E-006  0.7009186E+02  0.7818608E-02  0.1389702E+00
          2   -1    0    0  502    0  0.00000000000E+00  0.00000000000E+00  0.68320630430E+03  0.68320630430E+03  0.00000000000E+00 0. -1.
          1   -1    0    0  501    0 -0.00000000000E+00 -0.00000000000E+00 -0.79062019775E+02  0.79062019775E+02  0.00000000000E+00 0. -1.
         25    2    1    2    0    0 -0.29621005719E+02  0.23413585488E+02  0.18725555333E+03  0.22828676147E+03  0.12499841295E+03 0.  0.
          2    1    1    2  501    0 -0.46703828935E+02 -0.28682824877E+02 -0.41817137749E+02  0.68939285532E+02  0.00000000000E+00 0. -1.
          1    1    1    2  502    0  0.76324834655E+02  0.52692393883E+01  0.45870586893E+03  0.46504227707E+03  0.00000000000E+00 0. -1.
         22    1    3    3    0    0 -0.43527004831E+02  0.57689617415E+02  0.17497532684E+03  0.18931206277E+03  0.00000000000E+00 0. -1.
         22    1    3    3    0    0  0.13905999112E+02 -0.34276031927E+02  0.12280226497E+02  0.38974698700E+02  0.00000000000E+00 0. -1.
</event>
<event>
 7    1  0.6105960E-006  0.8191277E+02  0.7818608E-02  0.1419105E+00
          2   -1    0    0  502    0  0.00000000000E+00  0.00000000000E+00  0.53356278043E+03  0.53356278043E+03  0.00000000000E+00 0. -1.
          1   -1    0    0  501    0 -0.00000000000E+00 -0.00000000000E+00 -0.21890398736E+03  0.21890398736E+03  0.00000000000E+00 0. -1.
         25    2    1    2    0    0  0.40854327275E+02  0.23247193299E+02 -0.43436428589E+02  0.14043175743E+03  0.12499938844E+03 0.  0.
          2    1    1    2  501    0  0.36326922990E+02  0.80728414203E+01 -0.12056718654E+03  0.12617948555E+03  0.00000000000E+00 0. -1.
          1    1    1    2  502    0 -0.77181250265E+02 -0.31320034719E+02  0.47866240820E+03  0.48585552482E+03  0.00000000000E+00 0. -1.
         22    1    3    3    0    0  0.57913982927E+02  0.65521724541E+02 -0.22675100835E+02  0.90339836192E+02  0.00000000000E+00 0. -1.
         22    1    3    3    0    0 -0.17059655653E+02 -0.42274531242E+02 -0.20761327754E+02  0.50091921233E+02  0.00000000000E+00 0. -1.
</event>
<event>
 7    1  0.6105960E-006  0.1010208E+03  0.7818608E-02  0.1365663E+00
          2   -1    0    0  502    0  0.00000000000E+00  0.00000000000E+00  0.16976814008E+04  0.16976814008E+04  0.00000000000E+00 0. -1.
          1   -1    0    0  501    0 -0.00000000000E+00 -0.00000000000E+00 -0.17766244617E+04  0.17766244617E+04  0.00000000000E+00 0. -1.
         25    2    1    2    0    0  0.55780676880E+02 -0.12204191660E+03 -0.84318714027E+01  0.18357989932E+03  0.12499907863E+03 0.  0.
          2    1    1    2  501    0 -0.65023109547E+02  0.76677415845E+02 -0.16787816410E+04  0.16817892939E+04  0.00000000000E+00 0. -1.
          1    1    1    2  502    0  0.92424326675E+01  0.45364500757E+02  0.16082704515E+04  0.16089366693E+04  0.00000000000E+00 0. -1.
         22    1    3    3    0    0 -0.16949494492E+01  0.13981502495E+02 -0.31139381560E+02  0.34176254177E+02  0.00000000000E+00 0.  1.
         22    1    3    3    0    0  0.57475626329E+02 -0.13602341910E+03  0.22707510157E+02  0.14940364514E+03  0.00000000000E+00 0.  1.
</event>
<event>
 7    1  0.6105960E-006  0.1445407E+03  0.7818608E-02  0.1264345E+00
          2   -1    0    0  502    0  0.00000000000E+00  0.00000000000E+00  0.11545965190E+04  0.11545965190E+04  0.00000000000E+00 0. -1.
          1   -1    0    0  501    0 -0.00000000000E+00 -0.00000000000E+00 -0.18429304501E+03  0.18429304501E+03  0.00000000000E+00 0. -1.
         25    2    1    2    0    0 -0.36979318229E+02  0.20059167951E+03  0.26853874697E+03  0.35964017406E+03  0.12499401709E+03 0.  0.
          2    1    1    2  501    0 -0.13886473788E+02 -0.13797039433E+03 -0.10156166171E+03  0.17188203802E+03  0.00000000000E+00 0. -1.
          1    1    1    2  502    0  0.50865792017E+02 -0.62621285178E+02  0.80332638872E+03  0.80736735194E+03  0.00000000000E+00 0. -1.
         22    1    3    3    0    0  0.31789084569E+02  0.15369844955E+02  0.15394033635E+02  0.38519531452E+02  0.00000000000E+00 0. -1.
         22    1    3    3    0    0 -0.68768402799E+02  0.18522183455E+03  0.25314471333E+03  0.32112064260E+03  0.00000000000E+00 0. -1.
</event>
<event>
 7    1  0.6105960E-006  0.1378919E+03  0.7818608E-02  0.1241675E+00
          2   -1    0    0  502    0  0.00000000000E+00  0.00000000000E+00  0.11444514588E+04  0.11444514588E+04  0.00000000000E+00 0. -1.
          1   -1    0    0  501    0 -0.00000000000E+00 -0.00000000000E+00 -0.12714681479E+03  0.12714681479E+03  0.00000000000E+00 0. -1.
         25    2    1    2    0    0  0.16077006149E+03 -0.12582104778E+03  0.27948349128E+03  0.36798632855E+03  0.12499986947E+03 0.  0.
          2    1    1    2  501    0 -0.10578185366E+03  0.58291076193E+01 -0.41063887687E+02  0.11362227744E+03  0.00000000000E+00 0. -1.
          1    1    1    2  502    0 -0.54988207829E+02  0.11999194016E+03  0.77888504041E+03  0.78998966757E+03  0.00000000000E+00 0. -1.
         22    1    3    3    0    0  0.64668365620E+01  0.22418743796E+02  0.14799834360E+02  0.27630692094E+02  0.00000000000E+00 0.  1.
         22    1    3    3    0    0  0.15430322493E+03 -0.14823979158E+03  0.26468365692E+03  0.34035563646E+03  0.00000000000E+00 0.  1.
</event>
<event>
 7    1  0.6105960E-006  0.6601408E+02  0.7818608E-02  0.1380108E+00
          2   -1    0    0  502    0  0.00000000000E+00  0.00000000000E+00  0.23908152360E+03  0.23908152360E+03  0.00000000000E+00 0. -1.
          1   -1    0    0  501    0 -0.00000000000E+00 -0.00000000000E+00 -0.10934815282E+03  0.10934815282E+03  0.00000000000E+00 0. -1.
         25    2    1    2    0    0 -0.26133979482E+02 -0.19965235737E+02  0.76148058314E+02  0.15001365639E+03  0.12499589912E+03 0.  0.
          2    1    1    2  501    0 -0.57242234604E+02  0.26057830816E+02 -0.38738572082E+02  0.73867184434E+02  0.00000000000E+00 0. -1.
          1    1    1    2  502    0  0.83376214085E+02 -0.60925950787E+01  0.92323884552E+02  0.12454883560E+03  0.00000000000E+00 0. -1.
         22    1    3    3    0    0  0.12926301641E+02  0.48462533800E+02  0.24662084670E+02  0.55892082415E+02  0.00000000000E+00 0. -1.
         22    1    3    3    0    0 -0.39060281122E+02 -0.68427769537E+02  0.51485973643E+02  0.94121573973E+02  0.00000000000E+00 0. -1.
</event>
<event>
 7    1  0.6105960E-006  0.9469111E+02  0.7818608E-02  0.1340594E+00
          2   -1    0    0  502    0  0.00000000000E+00  0.00000000000E+00  0.27960695054E+03  0.27960695054E+03  0.00000000000E+00 0. -1.
          1   -1    0    0  501    0 -0.00000000000E+00 -0.00000000000E+00 -0.10605991370E+03  0.10605991370E+03  0.00000000000E+00 0. -1.
         25    2    1    2    0    0  0.52461717800E+01  0.68817041680E+02  0.10875461642E+03  0.17948773604E+03  0.12499989301E+03 0.  0.
          2    1    1    2  501    0  0.44382630786E+02  0.42004802546E+02 -0.12317619181E+02  0.62337349115E+02  0.00000000000E+00 0. -1.
          1    1    1    2  502    0 -0.49628802566E+02 -0.11082184423E+03  0.77110039605E+02  0.14384177908E+03  0.00000000000E+00 0. -1.
         22    1    3    3    0    0  0.62476705962E+02  0.51419844119E+02  0.77303187721E+02  0.11190675578E+03  0.00000000000E+00 0. -1.
         22    1    3    3    0    0 -0.57230534182E+02  0.17397197561E+02  0.31451428704E+02  0.67580980263E+02  0.00000000000E+00 0. -1.
</event>
<event>
 7    1  0.6105960E-006  0.6001682E+02  0.7818608E-02  0.1405252E+00
          2   -1    0    0  502    0  0.00000000000E+00  0.00000000000E+00  0.13741495378E+03  0.13741495378E+03  0.00000000000E+00 0. -1.
          1   -1    0    0  501    0 -0.00000000000E+00 -0.00000000000E+00 -0.30510620634E+03  0.30510620634E+03  0.00000000000E+00 0. -1.
         25    2    1    2    0    0  0.71905058255E+02 -0.80730816781E+02  0.42081705957E+02  0.17054185759E+03  0.12500341209E+03 0.  0.
          2    1    1    2  501    0 -0.21989209317E+02  0.54115944124E+02 -0.20728328658E+03  0.21535649892E+03  0.00000000000E+00 0. -1.
          1    1    1    2  502    0 -0.49915848938E+02  0.26614872657E+02 -0.24896719399E+01  0.56622803605E+02  0.00000000000E+00 0. -1.
         22    1    3    3    0    0  0.13897571662E+01  0.31851717122E+02  0.27588157910E+01  0.32001162060E+02  0.00000000000E+00 0. -1.
         22    1    3    3    0    0  0.70515301089E+02 -0.11258253390E+03  0.39322890166E+02  0.13854069553E+03  0.00000000000E+00 0. -1.
</event>
<event>
 7    1  0.6105960E-006  0.1240332E+03  0.7818608E-02  0.1379150E+00
          2   -1    0    0  502    0  0.00000000000E+00  0.00000000000E+00  0.19245522499E+04  0.19245522499E+04  0.00000000000E+00 0. -1.
          1   -1    0    0  501    0 -0.00000000000E+00 -0.00000000000E+00 -0.19089661577E+04  0.19089661577E+04  0.00000000000E+00 0. -1.
         25    2    1    2    0    0 -0.12730932424E+03  0.12338000810E+02  0.40037201886E+03  0.43850048018E+03  0.12500010933E+03 0.  0.
          2    1    1    2  501    0  0.11365755165E+02  0.31764840620E+02 -0.18871949611E+04  0.18874964918E+04  0.00000000000E+00 0. -1.
          1    1    1    2  502    0  0.11594356907E+03 -0.44102841430E+02  0.15024090345E+04  0.15075214356E+04  0.00000000000E+00 0. -1.
         22    1    3    3    0    0 -0.10866963706E+03 -0.19740822259E+02  0.38092028179E+03  0.39660944412E+03  0.00000000000E+00 0.  1.
         22    1    3    3    0    0 -0.18639687179E+02  0.32078823068E+02  0.19451737066E+02  0.41891036063E+02  0.00000000000E+00 0.  1.
</event>
<event>
 7    1  0.6105960E-006  0.1426727E+03  0.7818608E-02  0.1293673E+00
          2   -1    0    0  502    0  0.00000000000E+00  0.00000000000E+00  0.54088554662E+03  0.54088554662E+03  0.00000000000E+00 0. -1.
          1   -1    0    0  501    0 -0.00000000000E+00 -0.00000000000E+00 -0.56297142309E+03  0.56297142309E+03  0.00000000000E+00 0. -1.
         25    2    1    2    0    0  0.41473552661E+02 -0.89488455349E+02  0.53595412180E+02  0.16800553023E+03  0.12500060307E+03 0.  0.
          2    1    1    2  501    0 -0.10048111780E+03  0.10785539558E+03 -0.49269986157E+03  0.51427851888E+03  0.00000000000E+00 0. -1.
          1    1    1    2  502    0  0.59007565140E+02 -0.18366940227E+02  0.41701857292E+03  0.42157292061E+03  0.00000000000E+00 0. -1.
         22    1    3    3    0    0  0.33011066137E+02  0.13898266850E+02  0.53367594547E+02  0.64272797175E+02  0.00000000000E+00 0.  1.
         22    1    3    3    0    0  0.84624865234E+01 -0.10338672220E+03  0.22781763294E+00  0.10373273305E+03  0.00000000000E+00 0.  1.
</event>
<event>
 7    1  0.6105960E-006  0.5468035E+02  0.7818608E-02  0.1439465E+00
          2   -1    0    0  502    0  0.00000000000E+00  0.00000000000E+00  0.20426268902E+04  0.20426268902E+04  0.00000000000E+00 0. -1.
          1   -1    0    0  501    0 -0.00000000000E+00 -0.00000000000E+00 -0.61260993125E+03  0.61260993125E+03  0.00000000000E+00 0. -1.
         25    2    1    2    0    0 -0.13745704559E+02 -0.94654336992E+02  0.57447034003E+03  0.59564430246E+03  0.12501030188E+03 0.  0.
          2    1    1    2  501    0  0.22139872116E+02  0.42324472946E+02 -0.60059265790E+03  0.60248906685E+03  0.00000000000E+00 0. -1.
          1    1    1    2  502    0 -0.83941675567E+01  0.52329864046E+02  0.14561392768E+04  0.14571034522E+04  0.00000000000E+00 0. -1.
         22    1    3    3    0    0 -0.40790576684E+01 -0.85165461004E+02  0.57575860314E+03  0.58203759634E+03  0.00000000000E+00 0. -1.
         22    1    3    3    0    0 -0.96666468909E+01 -0.94888759884E+01 -0.12882631144E+01  0.13606706122E+02  0.00000000000E+00 0. -1.
</event>
<event>
 7    1  0.6105960E-006  0.9000258E+02  0.7818608E-02  0.1471658E+00
          2   -1    0    0  502    0  0.00000000000E+00  0.00000000000E+00  0.70970478038E+02  0.70970478038E+02  0.00000000000E+00 0. -1.
          1   -1    0    0  501    0 -0.00000000000E+00 -0.00000000000E+00 -0.13694138983E+04  0.13694138983E+04  0.00000000000E+00 0. -1.
         25    2    1    2    0    0  0.10336440786E+03  0.37550548217E+02 -0.23910118262E+03  0.29135717570E+03  0.12500153526E+03 0.  0.
          2    1    1    2  501    0 -0.80431449963E+02 -0.37310342065E+02 -0.10993459815E+04  0.11029156209E+04  0.00000000000E+00 0. -1.
          1    1    1    2  502    0 -0.22932957899E+02 -0.24020615208E+00  0.40003743898E+02  0.46111579705E+02  0.00000000000E+00 0. -1.
         22    1    3    3    0    0  0.69995896095E+02  0.18814255848E+02 -0.29438538566E+02  0.78230615786E+02  0.00000000000E+00 0. -1.
         22    1    3    3    0    0  0.33368511767E+02  0.18736292369E+02 -0.20966264405E+03  0.21312655991E+03  0.00000000000E+00 0. -1.
</event>
<event>
 7    1  0.6105960E-006  0.7715435E+02  0.7818608E-02  0.1432681E+00
          2   -1    0    0  502    0  0.00000000000E+00  0.00000000000E+00  0.24273355684E+04  0.24273355684E+04  0.00000000000E+00 0. -1.
          1   -1    0    0  501    0 -0.00000000000E+00 -0.00000000000E+00 -0.23132717045E+03  0.23132717045E+03  0.00000000000E+00 0. -1.
         25    2    1    2    0    0 -0.50171224159E+02  0.31482247817E+02  0.35188580505E+03  0.37809714489E+03  0.12500219006E+03 0.  0.
          2    1    1    2  501    0  0.40985029274E+02 -0.65900099204E+02 -0.21116263763E+03  0.22497167650E+03  0.00000000000E+00 0. -1.
          1    1    1    2  502    0  0.91861948847E+01  0.34417851387E+02  0.20552852305E+04  0.20555939174E+04  0.00000000000E+00 0. -1.
         22    1    3    3    0    0 -0.72998272125E+02  0.64727917852E+02  0.23488274178E+03  0.25433905219E+03  0.00000000000E+00 0. -1.
         22    1    3    3    0    0  0.22827047966E+02 -0.33245670035E+02  0.11700306327E+03  0.12375809270E+03  0.00000000000E+00 0. -1.
</event>
<event>
 7    1  0.6105960E-006  0.1339991E+03  0.7818608E-02  0.1423965E+00
          2   -1    0    0  502    0  0.00000000000E+00  0.00000000000E+00  0.51682914051E+03  0.51682914051E+03  0.00000000000E+00 0. -1.
          1   -1    0    0  501    0 -0.00000000000E+00 -0.00000000000E+00 -0.13304687224E+03  0.13304687224E+03  0.00000000000E+00 0. -1.
         25    2    1    2    0    0  0.12827605103E+02  0.12638414546E+03 -0.22134433741E+02  0.17958954100E+03  0.12499988161E+03 0.  0.
          2    1    1    2  501    0  0.21540578434E+02  0.40361314056E+01 -0.16131039225E+02  0.27212080083E+02  0.00000000000E+00 0. -1.
          1    1    1    2  502    0 -0.34368183537E+02 -0.13042027687E+03  0.42204774124E+03  0.44307439166E+03  0.00000000000E+00 0. -1.
         22    1    3    3    0    0  0.68076761313E+01  0.10474418810E+03 -0.70376532144E+02  0.12637462432E+03  0.00000000000E+00 0. -1.
         22    1    3    3    0    0  0.60199289718E+01  0.21639957364E+02  0.48242098403E+02  0.53214916685E+02  0.00000000000E+00 0. -1.
</event>
<event>
 7    1  0.6105960E-006  0.5046029E+02  0.7818608E-02  0.1504295E+00
          2   -1    0    0  502    0  0.00000000000E+00  0.00000000000E+00  0.99206546081E+03  0.99206546081E+03  0.00000000000E+00 0. -1.
          1   -1    0    0  501    0 -0.00000000000E+00 -0.00000000000E+00 -0.38229159849E+02  0.38229159849E+02  0.00000000000E+00 0. -1.
         25    2    1    2    0    0  0.54625472630E+02  0.83088326216E+01  0.38504130355E+03  0.40857617883E+03  0.12499883802E+03 0.  0.
          2    1    1    2  501    0 -0.18068129973E+02  0.27093460272E+02 -0.14897801301E+02  0.35811414296E+02  0.00000000000E+00 0. -1.
          1    1    1    2  502    0 -0.36557342657E+02 -0.35402292894E+02  0.58369279870E+03  0.58590702753E+03  0.00000000000E+00 0. -1.
         22    1    3    3    0    0  0.74251496508E+02  0.31420806759E+02  0.36096296636E+03  0.36985783068E+03  0.00000000000E+00 0.  1.
         22    1    3    3    0    0 -0.19626023878E+02 -0.23111974138E+02  0.24078337197E+02  0.38718348156E+02  0.00000000000E+00 0.  1.
</event>
<event>
 7    1  0.6105960E-006  0.4901868E+02  0.7818608E-02  0.1450877E+00
          2   -1    0    0  502    0  0.00000000000E+00  0.00000000000E+00  0.19507905162E+04  0.19507905162E+04  0.00000000000E+00 0. -1.
          1   -1    0    0  501    0 -0.00000000000E+00 -0.00000000000E+00 -0.19045866401E+02  0.19045866401E+02  0.00000000000E+00 0. -1.
         25    2    1    2    0    0  0.60839596061E+02 -0.60757845751E+01  0.26921681163E+03  0.30305337020E+03  0.12500112766E+03 0.  0.
          2    1    1    2  501    0 -0.33969182172E+02 -0.35255440176E+02  0.35894618139E+03  0.36226953023E+03  0.00000000000E+00 0. -1.
          1    1    1    2  502    0 -0.26870413889E+02  0.41331224751E+02  0.13035816567E+04  0.13045134821E+04  0.00000000000E+00 0. -1.
         22    1    3    3    0    0  0.67082445673E+02 -0.42100568585E+02  0.88877049431E+02  0.11904470718E+03  0.00000000000E+00 0.  1.
         22    1    3    3    0    0 -0.62428496112E+01  0.36024784010E+02  0.18033976220E+03  0.18400866301E+03  0.00000000000E+00 0.  1.
</event>
<event>
 7    1  0.6105960E-006  0.2578956E+02  0.7818608E-02  0.1651796E+00
          2   -1    0    0  502    0  0.00000000000E+00  0.00000000000E+00  0.14909318864E+04  0.14909318864E+04  0.00000000000E+00 0. -1.
          1   -1    0    0  501    0 -0.00000000000E+00 -0.00000000000E+00 -0.27740139825E+03  0.27740139825E+03  0.00000000000E+00 0. -1.
         25    2    1    2    0    0 -0.99748049888E+01 -0.66720784848E+01  0.80007061879E+03  0.80986656099E+03  0.12500735258E+03 0.  0.
          2    1    1    2  501    0  0.16467131699E+02 -0.19492496383E+02 -0.27164040121E+03  0.27283627217E+03  0.00000000000E+00 0. -1.
          1    1    1    2  502    0 -0.64923267103E+01  0.26164574867E+02  0.68510027057E+03  0.68563045149E+03  0.00000000000E+00 0. -1.
         22    1    3    3    0    0 -0.43468212750E+02  0.11011429418E+02  0.11043333957E+03  0.11919001462E+03  0.00000000000E+00 0.  1.
         22    1    3    3    0    0  0.33493407762E+02 -0.17683507903E+02  0.68963727922E+03  0.69067654637E+03  0.00000000000E+00 0.  1.
</event>
<event>
 7    1  0.6105960E-006  0.7614774E+02  0.7818608E-02  0.1394109E+00
          2   -1    0    0  502    0  0.00000000000E+00  0.00000000000E+00  0.15763839601E+04  0.15763839601E+04  0.00000000000E+00 0. -1.
          1   -1    0    0  501    0 -0.00000000000E+00 -0.00000000000E+00 -0.18981686150E+03  0.18981686150E+03  0.00000000000E+00 0. -1.
         25    2    1    2    0    0  0.41065569069E+02  0.73640634603E+02  0.72946066894E+02  0.16752949817E+03  0.12504271293E+03 0.  0.
          2    1    1    2  501    0  0.27499114427E+02 -0.40192205451E+02 -0.13733361578E+03  0.14571251386E+03  0.00000000000E+00 0. -1.
          1    1    1    2  502    0 -0.68564683495E+02 -0.33448429152E+02  0.14509546475E+04  0.14529588096E+04  0.00000000000E+00 0. -1.
         22    1    3    3    0    0  0.71979182258E+02  0.31936695772E+02  0.83262809428E+02  0.11460214068E+03  0.00000000000E+00 0. -1.
         22    1    3    3    0    0 -0.30913613190E+02  0.41703938831E+02 -0.10316742535E+02  0.52927357491E+02  0.00000000000E+00 0. -1.
</event>
<event>
 7    1  0.6105960E-006  0.4171273E+02  0.7818608E-02  0.1497196E+00
          2   -1    0    0  502    0  0.00000000000E+00  0.00000000000E+00  0.30261161848E+03  0.30261161848E+03  0.00000000000E+00 0. -1.
          1   -1    0    0  501    0 -0.00000000000E+00 -0.00000000000E+00 -0.98887162930E+03  0.98887162930E+03  0.00000000000E+00 0. -1.
         25    2    1    2    0    0 -0.96786637738E+01  0.15288713863E+02 -0.56424849169E+03  0.57821230478E+03  0.12500275084E+03 0.  0.
          2    1    1    2  501    0 -0.22359386089E+02 -0.42000411812E+02 -0.41480300652E+03  0.41752306638E+03  0.00000000000E+00 0. -1.
          1    1    1    2  502    0  0.32038049863E+02  0.26711697949E+02  0.29279148738E+03  0.29574787663E+03  0.00000000000E+00 0. -1.
         22    1    3    3    0    0  0.20476792387E+02  0.30432399055E+02 -0.52571092984E+03  0.52698900528E+03  0.00000000000E+00 0.  1.
         22    1    3    3    0    0 -0.30155456161E+02 -0.15143685193E+02 -0.38537561850E+02  0.51223299492E+02  0.00000000000E+00 0.  1.
</event>
<event>
 7    1  0.6105960E-006  0.2054102E+03  0.7818608E-02  0.1218476E+00
          2   -1    0    0  502    0  0.00000000000E+00  0.00000000000E+00  0.15737955227E+04  0.15737955227E+04  0.00000000000E+00 0. -1.
          1   -1    0    0  501    0 -0.00000000000E+00 -0.00000000000E+00 -0.61913121818E+03  0.61913121818E+03  0.00000000000E+00 0. -1.
         25    2    1    2    0    0 -0.18128776464E+03  0.12395617831E+03  0.99936798221E+02  0.27174204617E+03  0.12500395301E+03 0.  0.
          2    1    1    2  501    0 -0.21242687112E+02 -0.87833523853E+02 -0.52169962086E+03  0.52946810487E+03  0.00000000000E+00 0. -1.
          1    1    1    2  502    0  0.20253045175E+03 -0.36122654453E+02  0.13764271272E+04  0.13917165899E+04  0.00000000000E+00 0. -1.
         22    1    3    3    0    0  0.16569872761E+02 -0.32647302883E+01  0.22592791635E+01  0.17038881698E+02  0.00000000000E+00 0.  1.
         22    1    3    3    0    0 -0.19785763740E+03  0.12722090859E+03  0.97677519058E+02  0.25470316447E+03  0.00000000000E+00 0.  1.
</event>
<event>
 7    1  0.6105960E-006  0.8707818E+02  0.7818608E-02  0.1370742E+00
          2   -1    0    0  502    0  0.00000000000E+00  0.00000000000E+00  0.20026830269E+04  0.20026830269E+04  0.00000000000E+00 0. -1.
          1   -1    0    0  501    0 -0.00000000000E+00 -0.00000000000E+00 -0.13068576942E+03  0.13068576942E+03  0.00000000000E+00 0. -1.
         25    2    1    2    0    0 -0.85004403274E+01  0.86133376915E+02  0.12179205890E+03  0.19480839329E+03  0.12500315348E+03 0.  0.
          2    1    1    2  501    0  0.50622608892E+02 -0.94227058936E+01 -0.86018305415E+02  0.10025260487E+03  0.00000000000E+00 0. -1.
          1    1    1    2  502    0 -0.42122168565E+02 -0.76710671021E+02  0.18362235040E+04  0.18383077981E+04  0.00000000000E+00 0. -1.
         22    1    3    3    0    0 -0.53161428166E+02  0.72513377129E+02  0.11745051913E+03  0.14791535333E+03  0.00000000000E+00 0. -1.
         22    1    3    3    0    0  0.44660987839E+02  0.13619999786E+02  0.43415397707E+01  0.46893039958E+02  0.00000000000E+00 0. -1.
</event>
<event>
 7    1  0.6105960E-006  0.9249770E+02  0.7818608E-02  0.1328021E+00
          2   -1    0    0  502    0  0.00000000000E+00  0.00000000000E+00  0.40583570237E+03  0.40583570237E+03  0.00000000000E+00 0. -1.
          1   -1    0    0  501    0 -0.00000000000E+00 -0.00000000000E+00 -0.28167664016E+04  0.28167664016E+04  0.00000000000E+00 0. -1.
         25    2    1    2    0    0  0.10976266750E+03 -0.11731899473E+03 -0.29706273680E+03  0.36011589996E+03  0.12500240840E+03 0.  0.
          2    1    1    2  501    0 -0.42874757332E+02  0.55108125249E+02 -0.24821057742E+04  0.24830876393E+04  0.00000000000E+00 0. -1.
          1    1    1    2  502    0 -0.66887910166E+02  0.62210869481E+02  0.36823781181E+03  0.37939856464E+03  0.00000000000E+00 0. -1.
         22    1    3    3    0    0  0.64090490515E+01  0.13987683485E+02  0.39018519361E+01  0.15873110834E+02  0.00000000000E+00 0.  1.
         22    1    3    3    0    0  0.10335361845E+03 -0.13130667822E+03 -0.30096458874E+03  0.34424278912E+03  0.00000000000E+00 0.  1.
</event>
<event>
 7    1  0.6105960E-006  0.1126960E+03  0.7818608E-02  0.1288445E+00
          2   -1    0    0  502    0  0.00000000000E+00  0.00000000000E+00  0.42243751871E+02  0.42243751871E+02  0.00000000000E+00 0. -1.
          1   -1    0    0  501    0 -0.00000000000E+00 -0.00000000000E+00 -0.21535885975E+04  0.21535885975E+04  0.00000000000E+00 0. -1.
         25    2    1    2    0    0 -0.78092235765E+02  0.15632752023E+03 -0.76306055284E+03  0.79273137911E+03  0.12499976502E+03 0.  0.
          2    1    1    2  501    0  0.74127887060E+02 -0.74264951348E+02 -0.13069050803E+04  0.13111106420E+04  0.00000000000E+00 0. -1.
          1    1    1    2  502    0  0.39643487051E+01 -0.82062568883E+02 -0.41379212527E+02  0.91990328305E+02  0.00000000000E+00 0. -1.
         22    1    3    3    0    0 -0.22466217405E+02  0.45947614600E+02 -0.49396413000E+03  0.49660494957E+03  0.00000000000E+00 0.  1.
         22    1    3    3    0    0 -0.55626018360E+02  0.11037990563E+03 -0.26909642284E+03  0.29612642953E+03  0.00000000000E+00 0.  1.
</event>
<event>
 7    1  0.6105960E-006  0.2221903E+03  0.7818608E-02  0.1258884E+00
          2   -1    0    0  502    0  0.00000000000E+00  0.00000000000E+00  0.21254286351E+04  0.21254286351E+04  0.00000000000E+00 0. -1.
          1   -1    0    0  501    0 -0.00000000000E+00 -0.00000000000E+00 -0.71573255626E+03  0.71573255626E+03  0.00000000000E+00 0. -1.
         25    2    1    2    0    0  0.26641196782E+03  0.23560976320E+02 -0.41959655167E+02  0.29818551738E+03  0.12499413551E+03 0.  0.
          2    1    1    2  501    0 -0.21478029611E+03 -0.35671058358E+01 -0.52411606215E+03  0.56642823592E+03  0.00000000000E+00 0. -1.
          1    1    1    2  502    0 -0.51631671715E+02 -0.19993870484E+02  0.19757717962E+04  0.19765474381E+04  0.00000000000E+00 0. -1.
         22    1    3    3    0    0 -0.37548896304E+01  0.12136786414E+02 -0.24032221405E+02  0.27183606204E+02  0.00000000000E+00 0.  1.
         22    1    3    3    0    0  0.27016685745E+03  0.11424189906E+02 -0.17927433762E+02  0.27100191118E+03  0.00000000000E+00 0.  1.
</event>
<event>
 7    1  0.6105960E-006  0.1391921E+03  0.7818608E-02  0.1260098E+00
          2   -1    0    0  502    0  0.00000000000E+00  0.00000000000E+00  0.25169218600E+03  0.25169218600E+03  0.00000000000E+00 0. -1.
          1   -1    0    0  501    0 -0.00000000000E+00 -0.00000000000E+00 -0.83555594871E+03  0.83555594871E+03  0.00000000000E+00 0. -1.
         25    2    1    2    0    0  0.23958467469E+02 -0.20393552766E+03  0.15143165095E+02  0.24086562539E+03  0.12499290556E+03 0.  0.
          2    1    1    2  501    0 -0.57809086409E+02  0.12342886728E+03 -0.69983884898E+03  0.71298737036E+03  0.00000000000E+00 0. -1.
          1    1    1    2  502    0  0.33850618940E+02  0.80506660379E+02  0.10083192118E+03  0.13339513896E+03  0.00000000000E+00 0. -1.
         22    1    3    3    0    0  0.35642301583E+02 -0.17955237221E+03 -0.32659274788E+02  0.18594638006E+03  0.00000000000E+00 0. -1.
         22    1    3    3    0    0 -0.11683834114E+02 -0.24383155457E+02  0.47802439883E+02  0.54919245337E+02  0.00000000000E+00 0. -1.
</event>
<event>
 7    1  0.6105960E-006  0.1209795E+03  0.7818608E-02  0.1437630E+00
          2   -1    0    0  502    0  0.00000000000E+00  0.00000000000E+00  0.71011103992E+03  0.71011103992E+03  0.00000000000E+00 0. -1.
          1   -1    0    0  501    0 -0.00000000000E+00 -0.00000000000E+00 -0.31646529244E+03  0.31646529244E+03  0.00000000000E+00 0. -1.
         25    2    1    2    0    0  0.35029299536E+02 -0.12316201414E+03 -0.62231284845E+02  0.18945712904E+03  0.12500134950E+03 0.  0.
          2    1    1    2  501    0 -0.21657552330E+02  0.31666292573E+01 -0.18433078001E+03  0.18562573522E+03  0.00000000000E+00 0. -1.
          1    1    1    2  502    0 -0.13371747207E+02  0.11999538488E+03  0.64020781233E+03  0.65149346811E+03  0.00000000000E+00 0. -1.
         22    1    3    3    0    0  0.47970832641E+02 -0.10009181390E+02 -0.57388012925E+02  0.75463690102E+02  0.00000000000E+00 0.  1.
         22    1    3    3    0    0 -0.12941533104E+02 -0.11315283275E+03 -0.48432719202E+01  0.11399343894E+03  0.00000000000E+00 0.  1.
</event>
<event>
 7    1  0.6105960E-006  0.2086175E+03  0.7818608E-02  0.1315281E+00
          2   -1    0    0  502    0  0.00000000000E+00  0.00000000000E+00  0.85735408691E+03  0.85735408691E+03  0.00000000000E+00 0. -1.
          1   -1    0    0  501    0 -0.00000000000E+00 -0.00000000000E+00 -0.20483211768E+03  0.20483211768E+03  0.00000000000E+00 0. -1.
         25    2    1    2    0    0  0.80348493334E+02  0.18598693890E+03  0.18237644813E+03  0.29988770440E+03  0.12499777836E+03 0.  0.
          2    1    1    2  501    0 -0.11403515278E+03 -0.17774543976E+03 -0.68901482648E+02  0.22213705619E+03  0.00000000000E+00 0. -1.
          1    1    1    2  502    0  0.33686659441E+02 -0.82414991397E+01  0.53904700375E+03  0.54016144400E+03  0.00000000000E+00 0. -1.
         22    1    3    3    0    0  0.57326105733E+02  0.17223605900E+03  0.19818842847E+03  0.26875675917E+03  0.00000000000E+00 0. -1.
         22    1    3    3    0    0  0.23022387601E+02  0.13750879900E+02 -0.15811980339E+02  0.31130945234E+02  0.00000000000E+00 0. -1.
</event>
<event>
 7    1  0.6105960E-006  0.9778056E+02  0.7818608E-02  0.1299580E+00
          2   -1    0    0  502    0  0.00000000000E+00  0.00000000000E+00  0.23689663081E+03  0.23689663081E+03  0.00000000000E+00 0. -1.
          1   -1    0    0  501    0 -0.00000000000E+00 -0.00000000000E+00 -0.21563257285E+03  0.21563257285E+03  0.00000000000E+00 0. -1.
         25    2    1    2    0    0 -0.30070330479E+02  0.12656313132E+02  0.83986013445E+01  0.12945881166E+03  0.12499856149E+03 0.  0.
          2    1    1    2  501    0  0.77365035793E+02  0.72925517060E+02 -0.11856800721E+03  0.15925404904E+03  0.00000000000E+00 0. -1.
          1    1    1    2  502    0 -0.47294705314E+02 -0.85581830192E+02  0.13143346382E+03  0.16381634296E+03  0.00000000000E+00 0. -1.
         22    1    3    3    0    0 -0.12765944589E+02  0.24900558786E+02  0.64055996805E+02  0.69901200961E+02  0.00000000000E+00 0. -1.
         22    1    3    3    0    0 -0.17304385890E+02 -0.12244245654E+02 -0.55657395460E+02  0.59557610698E+02  0.00000000000E+00 0. -1.
</event>
<event>
 7    1  0.6105960E-006  0.6413660E+02  0.7818608E-02  0.1438950E+00
          2   -1    0    0  502    0  0.00000000000E+00  0.00000000000E+00  0.16349686560E+04  0.16349686560E+04  0.00000000000E+00 0. -1.
          1   -1    0    0  501    0 -0.00000000000E+00 -0.00000000000E+00 -0.19331439841E+03  0.19331439841E+03  0.00000000000E+00 0. -1.
         25    2    1    2    0    0  0.42467971636E+01  0.10214991165E+03  0.28791774323E+03  0.33011148273E+03  0.12499729767E+03 0.  0.
          2    1    1    2  501    0  0.75010647361E+01 -0.62993936802E+02 -0.16604810275E+03  0.17775397175E+03  0.00000000000E+00 0. -1.
          1    1    1    2  502    0 -0.11747861900E+02 -0.39155974846E+02  0.13197846171E+04  0.13204175999E+04  0.00000000000E+00 0. -1.
         22    1    3    3    0    0 -0.87769688059E+01  0.35928942039E+02  0.24995716846E+03  0.25267866971E+03  0.00000000000E+00 0. -1.
         22    1    3    3    0    0  0.13023765970E+02  0.66220969609E+02  0.37960574767E+02  0.77432813022E+02  0.00000000000E+00 0. -1.
</event>
<event>
 7    1  0.6105960E-006  0.7039258E+02  0.7818608E-02  0.1408601E+00
          2   -1    0    0  502    0  0.00000000000E+00  0.00000000000E+00  0.28519792199E+03  0.28519792199E+03  0.00000000000E+00 0. -1.
          1   -1    0    0  501    0 -0.00000000000E+00 -0.00000000000E+00 -0.19370066227E+03  0.19370066227E+03  0.00000000000E+00 0. -1.
         25    2    1    2    0    0  0.28521268077E+02 -0.34805181459E+01 -0.94615072363E+01  0.12861609481E+03  0.12500801168E+03 0.  0.
          2    1    1    2  501    0  0.40548096707E+02 -0.23728276659E+02 -0.11376734558E+03  0.12308610068E+03  0.00000000000E+00 0. -1.
          1    1    1    2  502    0 -0.69069364784E+02  0.27208794805E+02  0.21472611253E+03  0.22719638877E+03  0.00000000000E+00 0. -1.
         22    1    3    3    0    0 -0.49130168891E+02 -0.47490344808E+01 -0.12420688270E+02  0.50897940242E+02  0.00000000000E+00 0.  1.
         22    1    3    3    0    0  0.77651436968E+02  0.12685163349E+01  0.29591810340E+01  0.77718154566E+02  0.00000000000E+00 0.  1.
</event>
<event>
 7    1  0.6105960E-006  0.5569331E+02  0.7818608E-02  0.1547238E+00
          2   -1    0    0  502    0  0.00000000000E+00  0.00000000000E+00  0.30961756549E+04  0.30961756549E+04  0.00000000000E+00 0. -1.
          1   -1    0    0  501    0 -0.00000000000E+00 -0.00000000000E+00 -0.37290144704E+03  0.37290144704E+03  0.00000000000E+00 0. -1.
         25    2    1    2    0    0  0.71783405807E+02 -0.87932174608E+01  0.13889820241E+04  0.13964694619E+04  0.12500286707E+03 0.  0.
          2    1    1    2  501    0 -0.20603921098E+02 -0.82367517315E+01 -0.36839683923E+03  0.36906448867E+03  0.00000000000E+00 0. -1.
          1    1    1    2  502    0 -0.51179484708E+02  0.17029969192E+02  0.17026890230E+04  0.17035431513E+04  0.00000000000E+00 0. -1.
         22    1    3    3    0    0  0.42323865490E+02  0.27714528495E+02  0.19152811121E+03  0.19809700165E+03  0.00000000000E+00 0.  1.
         22    1    3    3    0    0  0.29459540317E+02 -0.36507745956E+02  0.11974539129E+04  0.11983724603E+04  0.00000000000E+00 0.  1.
</event>
<event>
 7    1  0.6105960E-006  0.6135079E+02  0.7818608E-02  0.1404409E+00
          2   -1    0    0  502    0  0.00000000000E+00  0.00000000000E+00  0.82087398418E+02  0.82087398418E+02  0.00000000000E+00 0. -1.
          1   -1    0    0  501    0 -0.00000000000E+00 -0.00000000000E+00 -0.25259047864E+04  0.25259047864E+04  0.00000000000E+00 0. -1.
         25    2    1    2    0    0 -0.14442792687E+01 -0.35276233690E+02 -0.15919802096E+04  0.15972700667E+04  0.12499671809E+03 0.  0.
          2    1    1    2  501    0  0.55440594414E+02  0.54297328695E+01 -0.91832848781E+03  0.92001649606E+03  0.00000000000E+00 0. -1.
          1    1    1    2  502    0 -0.53996315146E+02  0.29846500820E+02  0.66491309385E+02  0.90705622121E+02  0.00000000000E+00 0. -1.
         22    1    3    3    0    0 -0.50279134953E+02 -0.57011544728E+02 -0.87071895831E+03  0.87403078436E+03  0.00000000000E+00 0. -1.
         22    1    3    3    0    0  0.48834855684E+02  0.21735311039E+02 -0.72126125127E+03  0.72323928230E+03  0.00000000000E+00 0. -1.
</event>
<event>
 7    1  0.6105960E-006  0.9924103E+02  0.7818608E-02  0.1318853E+00
          2   -1    0    0  502    0  0.00000000000E+00  0.00000000000E+00  0.10524506933E+04  0.10524506933E+04  0.00000000000E+00 0. -1.
          1   -1    0    0  501    0 -0.00000000000E+00 -0.00000000000E+00 -0.33244345136E+03  0.33244345136E+03  0.00000000000E+00 0. -1.
         25    2    1    2    0    0 -0.54055241098E+02  0.27535748930E+02  0.92644545558E+02  0.16699905649E+03  0.12500194594E+03 0.  0.
          2    1    1    2  501    0 -0.46035201462E+02 -0.53529444449E+02 -0.28809262287E+03  0.29661759986E+03  0.00000000000E+00 0. -1.
          1    1    1    2  502    0  0.10009044256E+03  0.25993695518E+02  0.91545531925E+03  0.92127748830E+03  0.00000000000E+00 0. -1.
         22    1    3    3    0    0 -0.77790436113E+02  0.53384905610E+02  0.37271108395E+02  0.10144178438E+03  0.00000000000E+00 0. -1.
         22    1    3    3    0    0  0.23735195015E+02 -0.25849156680E+02  0.55373437163E+02  0.65557272111E+02  0.00000000000E+00 0. -1.
</event>
<event>
 7    1  0.6105960E-006  0.6818384E+02  0.7818608E-02  0.1430576E+00
          2   -1    0    0  502    0  0.00000000000E+00  0.00000000000E+00  0.22314545481E+04  0.22314545481E+04  0.00000000000E+00 0. -1.
          1   -1    0    0  501    0 -0.00000000000E+00 -0.00000000000E+00 -0.70945271263E+02  0.70945271263E+02  0.00000000000E+00 0. -1.
         25    2    1    2    0    0 -0.46653157803E+02 -0.39865114765E+02  0.73106969970E+03  0.74421201080E+03  0.12499146649E+03 0.  0.
          2    1    1    2  501    0  0.68446361366E+02  0.51885092452E+01 -0.45710141610E+02  0.82469643254E+02  0.00000000000E+00 0. -1.
          1    1    1    2  502    0 -0.21793203563E+02  0.34676605520E+02  0.14751497187E+04  0.14757181653E+04  0.00000000000E+00 0. -1.
         22    1    3    3    0    0  0.13191815689E+02  0.80095546173E+01  0.85577766230E+01  0.17646883778E+02  0.00000000000E+00 0. -1.
         22    1    3    3    0    0 -0.59844973492E+02 -0.47874669382E+02  0.72251192308E+03  0.72656512703E+03  0.00000000000E+00 0. -1.
</event>
<event>
 7    1  0.6105960E-006  0.5780452E+02  0.7818608E-02  0.1439176E+00
          2   -1    0    0  502    0  0.00000000000E+00  0.00000000000E+00  0.22464355191E+04  0.22464355191E+04  0.00000000000E+00 0. -1.
          1   -1    0    0  501    0 -0.00000000000E+00 -0.00000000000E+00 -0.10993452130E+03  0.10993452130E+03  0.00000000000E+00 0. -1.
         25    2    1    2    0    0 -0.34365983764E+02 -0.33184788642E+02  0.12565958451E+03  0.18357036736E+03  0.12500199021E+03 0.  0.
          2    1    1    2  501    0 -0.23551131766E+02  0.38675237738E+02 -0.74211405631E+02  0.86935392950E+02  0.00000000000E+00 0. -1.
          1    1    1    2  502    0  0.57917115530E+02 -0.54904490964E+01  0.20850528189E+04  0.20858642801E+04  0.00000000000E+00 0. -1.
         22    1    3    3    0    0 -0.25001232699E+02 -0.81119911820E+02  0.76440991115E+02  0.11423102404E+03  0.00000000000E+00 0. -1.
         22    1    3    3    0    0 -0.93647510655E+01  0.47935123178E+02  0.49218593400E+02  0.69339343326E+02  0.00000000000E+00 0. -1.
</event>
<event>
 7    1  0.1014476E-005  0.7599400E+02  0.7818608E-02  0.1341284E+00
          2   -1    0    0  502    0  0.00000000000E+00  0.00000000000E+00  0.23021790654E+04  0.23021790654E+04  0.00000000000E+00 0. -1.
          1   -1    0    0  501    0 -0.00000000000E+00 -0.00000000000E+00 -0.22168697580E+04  0.22168697580E+04  0.00000000000E+00 0. -1.
         25    2    1    2    0    0  0.10602400298E+02 -0.20699064252E+02 -0.29260339371E+03  0.31903162926E+03  0.12499428908E+03 0.  0.
          2    1    1    2  501    0  0.56169434790E+02  0.56984193188E+02 -0.19095834623E+04  0.19112590623E+04  0.00000000000E+00 0. -1.
          1    1    1    2  502    0 -0.66771835087E+02 -0.36285128936E+02  0.22874961634E+04  0.22887581319E+04  0.00000000000E+00 0. -1.
         22    1    3    3    0    0  0.31234804233E+02  0.32096098210E+02 -0.39683593221E+02  0.59837781432E+02  0.00000000000E+00 0.  1.
         22    1    3    3    0    0 -0.20632403936E+02 -0.52795162462E+02 -0.25291980049E+03  0.25919384783E+03  0.00000000000E+00 0.  1.
</event>
<event>
 7    1  0.6105960E-006  0.3687457E+02  0.7818608E-02  0.1604000E+00
          2   -1    0    0  502    0  0.00000000000E+00  0.00000000000E+00  0.12539077727E+04  0.12539077727E+04  0.00000000000E+00 0. -1.
          1   -1    0    0  501    0 -0.00000000000E+00 -0.00000000000E+00 -0.10331079317E+04  0.10331079317E+04  0.00000000000E+00 0. -1.
         25    2    1    2    0    0  0.32502886969E+02 -0.46123768059E+02  0.72468080008E+03  0.73754443463E+03  0.12500276561E+03 0.  0.
          2    1    1    2  501    0 -0.19302530717E+02  0.13500641894E+02 -0.10259485160E+04  0.10262188911E+04  0.00000000000E+00 0. -1.
          1    1    1    2  502    0 -0.13200356252E+02  0.32623126164E+02  0.52206755692E+03  0.52325237864E+03  0.00000000000E+00 0. -1.
         22    1    3    3    0    0  0.60464233960E+01 -0.68272388071E+01 -0.19873237108E+01  0.93338031447E+01  0.00000000000E+00 0. -1.
         22    1    3    3    0    0  0.26456463573E+02 -0.39296529252E+02  0.72666812379E+03  0.72821063149E+03  0.00000000000E+00 0. -1.
</event>
<event>
 7    1  0.6105960E-006  0.6151990E+02  0.7818608E-02  0.1520623E+00
          2   -1    0    0  502    0  0.00000000000E+00  0.00000000000E+00  0.63667877773E+03  0.63667877773E+03  0.00000000000E+00 0. -1.
          1   -1    0    0  501    0 -0.00000000000E+00 -0.00000000000E+00 -0.67423512058E+03  0.67423512058E+03  0.00000000000E+00 0. -1.
         25    2    1    2    0    0 -0.27764403480E+02  0.31415615883E+02 -0.12501971448E+03  0.18169850071E+03  0.12500645236E+03 0.  0.
          2    1    1    2  501    0 -0.23784773721E+02  0.25531527300E+01 -0.51903359596E+03  0.51958455306E+03  0.00000000000E+00 0. -1.
          1    1    1    2  502    0  0.51549177202E+02 -0.33968768613E+02  0.60649696758E+03  0.60963084453E+03  0.00000000000E+00 0. -1.
         22    1    3    3    0    0  0.30337191810E+02 -0.30603688274E+02 -0.22754178454E+02  0.48730725215E+02  0.00000000000E+00 0. -1.
         22    1    3    3    0    0 -0.58101595291E+02  0.62019304157E+02 -0.10226553602E+03  0.13296777550E+03  0.00000000000E+00 0. -1.
</event>
<event>
 7    1  0.6105960E-006  0.4448882E+02  0.7818608E-02  0.1546085E+00
          2   -1    0    0  502    0  0.00000000000E+00  0.00000000000E+00  0.78612425811E+03  0.78612425811E+03  0.00000000000E+00 0. -1.
          1   -1    0    0  501    0 -0.00000000000E+00 -0.00000000000E+00 -0.33613856245E+03  0.33613856245E+03  0.00000000000E+00 0. -1.
         25    2    1    2    0    0  0.44070833039E+02  0.55464570151E+02  0.27029083518E+03  0.30610504964E+03  0.12499843586E+03 0.  0.
          2    1    1    2  501    0 -0.32807396223E+02 -0.29846189299E+02 -0.31628974428E+03  0.31938428671E+03  0.00000000000E+00 0. -1.
          1    1    1    2  502    0 -0.11263436817E+02 -0.25618380852E+02  0.49598460476E+03  0.49677348420E+03  0.00000000000E+00 0. -1.
         22    1    3    3    0    0 -0.17629934192E+02  0.76441814059E+02  0.14324289286E+03  0.16331776348E+03  0.00000000000E+00 0. -1.
         22    1    3    3    0    0  0.61700767231E+02 -0.20977243908E+02  0.12704794232E+03  0.14278728615E+03  0.00000000000E+00 0. -1.
</event>
<event>
 7    1  0.6105960E-006  0.2295416E+03  0.7818608E-02  0.1231227E+00
          2   -1    0    0  502    0  0.00000000000E+00  0.00000000000E+00  0.38324044972E+04  0.38324044972E+04  0.00000000000E+00 0. -1.
          1   -1    0    0  501    0 -0.00000000000E+00 -0.00000000000E+00 -0.74072546817E+03  0.74072546817E+03  0.00000000000E+00 0. -1.
         25    2    1    2    0    0  0.37287694728E+01 -0.22159584414E+03  0.16456787944E+04  0.16652332511E+04  0.12499785766E+03 0.  0.
          2    1    1    2  501    0 -0.70371014126E+02 -0.78789772179E+01 -0.72265520642E+03  0.72611617891E+03  0.00000000000E+00 0. -1.
          1    1    1    2  502    0  0.66642244653E+02  0.22947482136E+03  0.21686554411E+04  0.21817805354E+04  0.00000000000E+00 0. -1.
         22    1    3    3    0    0 -0.49795131964E+02 -0.64758044517E+02  0.74217789523E+03  0.74666002148E+03  0.00000000000E+00 0.  1.
         22    1    3    3    0    0  0.53523901436E+02 -0.15683779962E+03  0.90350089915E+03  0.91857322963E+03  0.00000000000E+00 0.  1.
</event>
<event>
 7    1  0.6105960E-006  0.4461211E+02  0.7818608E-02  0.1589766E+00
          2   -1    0    0  502    0  0.00000000000E+00  0.00000000000E+00  0.11422285092E+04  0.11422285092E+04  0.00000000000E+00 0. -1.
          1   -1    0    0  501    0 -0.00000000000E+00 -0.00000000000E+00 -0.41799093173E+02  0.41799093173E+02  0.00000000000E+00 0. -1.
         25    2    1    2    0    0  0.51134321486E+02  0.30782377168E+02  0.70038743394E+03  0.71395240316E+03  0.12499281089E+03 0.  0.
          2    1    1    2  501    0 -0.42915018226E+02 -0.11220904576E+02 -0.20593427824E+02  0.48904976827E+02  0.00000000000E+00 0. -1.
          1    1    1    2  502    0 -0.82193032596E+01 -0.19561472591E+02  0.42063540988E+03  0.42117022236E+03  0.00000000000E+00 0. -1.
         22    1    3    3    0    0 -0.21023681370E+02 -0.34519224692E+02  0.17276070950E+03  0.17742557538E+03  0.00000000000E+00 0. -1.
         22    1    3    3    0    0  0.72158002856E+02  0.65301601860E+02  0.52762672444E+03  0.53652682778E+03  0.00000000000E+00 0. -1.
</event>
<event>
 7    1  0.6105960E-006  0.1964088E+03  0.7818608E-02  0.1212583E+00
          2   -1    0    0  502    0  0.00000000000E+00  0.00000000000E+00  0.31792674671E+04  0.31792674671E+04  0.00000000000E+00 0. -1.
          1   -1    0    0  501    0 -0.00000000000E+00 -0.00000000000E+00 -0.39082814443E+03  0.39082814443E+03  0.00000000000E+00 0. -1.
         25    2    1    2    0    0  0.16458479840E+03  0.11213173015E+03  0.61983183365E+03  0.66293214827E+03  0.12500340166E+03 0.  0.
          2    1    1    2  501    0  0.34493149800E+02 -0.94486256832E+02 -0.35840907243E+03  0.37225595135E+03  0.00000000000E+00 0. -1.
          1    1    1    2  502    0 -0.19907794820E+03 -0.17645473314E+02  0.25270165615E+04  0.25349075119E+04  0.00000000000E+00 0. -1.
         22    1    3    3    0    0  0.15531876110E+03  0.42391254965E+02  0.48209052602E+03  0.50826391896E+03  0.00000000000E+00 0. -1.
         22    1    3    3    0    0  0.92660372934E+01  0.69740475181E+02  0.13774130764E+03  0.15466822930E+03  0.00000000000E+00 0. -1.
</event>
<event>
 7    1  0.6105960E-006  0.6637757E+02  0.7818608E-02  0.1474818E+00
          2   -1    0    0  502    0  0.00000000000E+00  0.00000000000E+00  0.23658155130E+03  0.23658155130E+03  0.00000000000E+00 0. -1.
          1   -1    0    0  501    0 -0.00000000000E+00 -0.00000000000E+00 -0.98587835998E+03  0.98587835998E+03  0.00000000000E+00 0. -1.
         25    2    1    2    0    0  0.50122323472E+02  0.77708162729E+02 -0.17907497319E+03  0.23715493276E+03  0.12499524090E+03 0.  0.
          2    1    1    2  501    0 -0.44278536653E+02 -0.47871066395E+02 -0.77527371445E+03  0.77801128535E+03  0.00000000000E+00 0. -1.
          1    1    1    2  502    0 -0.58437868182E+01 -0.29837096334E+02  0.20505187896E+03  0.20729369317E+03  0.00000000000E+00 0. -1.
         22    1    3    3    0    0  0.89689129199E+02  0.37519850656E+02 -0.95100972362E+02  0.13600027218E+03  0.00000000000E+00 0. -1.
         22    1    3    3    0    0 -0.39566805728E+02  0.40188312073E+02 -0.83974000825E+02  0.10115466058E+03  0.00000000000E+00 0. -1.
</event>
<event>
 7    1  0.6105960E-006  0.7443498E+02  0.7818608E-02  0.1416247E+00
          2   -1    0    0  502    0  0.00000000000E+00  0.00000000000E+00  0.72065036336E+03  0.72065036336E+03  0.00000000000E+00 0. -1.
          1   -1    0    0  501    0 -0.00000000000E+00 -0.00000000000E+00 -0.20052215404E+03  0.20052215404E+03  0.00000000000E+00 0. -1.
         25    2    1    2    0    0  0.56084198061E+02  0.29164918867E+02  0.13586739014E+03  0.19512420657E+03  0.12496991046E+03 0.  0.
          2    1    1    2  501    0 -0.36451603296E+02 -0.66140560784E+02 -0.16170974921E+03  0.17847502950E+03  0.00000000000E+00 0. -1.
          1    1    1    2  502    0 -0.19632594765E+02  0.36975641917E+02  0.54597056840E+03  0.54757328133E+03  0.00000000000E+00 0. -1.
         22    1    3    3    0    0 -0.98649265540E+01 -0.54551573113E+01 -0.19670515473E+02  0.22671671667E+02  0.00000000000E+00 0.  1.
         22    1    3    3    0    0  0.65949124615E+02  0.34620076178E+02  0.15553790561E+03  0.17245253490E+03  0.00000000000E+00 0.  1.
</event>
<event>
 7    1  0.6105960E-006  0.9798771E+02  0.7818608E-02  0.1323236E+00
          2   -1    0    0  502    0  0.00000000000E+00  0.00000000000E+00  0.10161258130E+04  0.10161258130E+04  0.00000000000E+00 0. -1.
          1   -1    0    0  501    0 -0.00000000000E+00 -0.00000000000E+00 -0.19594760827E+04  0.19594760827E+04  0.00000000000E+00 0. -1.
         25    2    1    2    0    0  0.15249297209E+03 -0.13965499007E+02 -0.15059846003E+03  0.24850365978E+03  0.12500012424E+03 0.  0.
          2    1    1    2  501    0 -0.94086017082E+02 -0.22325106669E+02 -0.17573719346E+04  0.17600303138E+04  0.00000000000E+00 0. -1.
          1    1    1    2  502    0 -0.58406955010E+02  0.36290605676E+02  0.96462012500E+03  0.96706792212E+03  0.00000000000E+00 0. -1.
         22    1    3    3    0    0  0.39678170179E+02 -0.48394915902E+02 -0.10461729473E+03  0.12190653564E+03  0.00000000000E+00 0.  1.
         22    1    3    3    0    0  0.11281480191E+03  0.34429416895E+02 -0.45981165297E+02  0.12659712414E+03  0.00000000000E+00 0.  1.
</event>
<event>
 7    1  0.6105960E-006  0.5032329E+02  0.7818608E-02  0.1462755E+00
          2   -1    0    0  502    0  0.00000000000E+00  0.00000000000E+00  0.30679106439E+03  0.30679106439E+03  0.00000000000E+00 0. -1.
          1   -1    0    0  501    0 -0.00000000000E+00 -0.00000000000E+00 -0.14988304322E+03  0.14988304322E+03  0.00000000000E+00 0. -1.
         25    2    1    2    0    0 -0.44406342255E+02 -0.75282421039E+02 -0.20593547931E+02  0.15391093856E+03  0.12500046657E+03 0.  0.
          2    1    1    2  501    0  0.34431348811E+02  0.26957875640E+02 -0.52042517646E+02  0.67975499136E+02  0.00000000000E+00 0. -1.
          1    1    1    2  502    0  0.99749934437E+01  0.48324545399E+02  0.22954408675E+03  0.23478766991E+03  0.00000000000E+00 0. -1.
         22    1    3    3    0    0 -0.39493473339E+02  0.20476226193E+02 -0.35448596935E+02  0.56882451601E+02  0.00000000000E+00 0. -1.
         22    1    3    3    0    0 -0.49128689155E+01 -0.95758647232E+02  0.14855049004E+02  0.97028486960E+02  0.00000000000E+00 0. -1.
</event>
<event>
 7    1  0.6105960E-006  0.1646992E+03  0.7818608E-02  0.1273329E+00
          2   -1    0    0  502    0  0.00000000000E+00  0.00000000000E+00  0.97986502107E+03  0.97986502107E+03  0.00000000000E+00 0. -1.
          1   -1    0    0  501    0 -0.00000000000E+00 -0.00000000000E+00 -0.97194115149E+03  0.97194115149E+03  0.00000000000E+00 0. -1.
         25    2    1    2    0    0 -0.13623365436E+03 -0.82768732105E+02 -0.30675362871E+03  0.36760540507E+03  0.12500269403E+03 0.  0.
          2    1    1    2  501    0  0.16802395131E+03  0.26187760257E+02 -0.62222962908E+03  0.64504849299E+03  0.00000000000E+00 0. -1.
          1    1    1    2  502    0 -0.31790296947E+02  0.56580971849E+02  0.93690712738E+03  0.93915227449E+03  0.00000000000E+00 0. -1.
         22    1    3    3    0    0 -0.13710266573E+03 -0.58475659945E+02 -0.30912305090E+03  0.34318159093E+03  0.00000000000E+00 0.  1.
         22    1    3    3    0    0  0.86901136126E+00 -0.24293072160E+02  0.23694221886E+01  0.24423814142E+02  0.00000000000E+00 0.  1.
</event>
<event>
 7    1  0.6105960E-006  0.1571289E+03  0.7818608E-02  0.1368978E+00
          2   -1    0    0  502    0  0.00000000000E+00  0.00000000000E+00  0.11452356534E+03  0.11452356534E+03  0.00000000000E+00 0. -1.
          1   -1    0    0  501    0 -0.00000000000E+00 -0.00000000000E+00 -0.33614216925E+03  0.33614216925E+03  0.00000000000E+00 0. -1.
         25    2    1    2    0    0 -0.14078710677E+03  0.24908750530E+02 -0.12406723868E+03  0.22684564558E+03  0.12499924767E+03 0.  0.
          2    1    1    2  501    0  0.16747631495E+03 -0.36138969050E+02 -0.91520576785E+02  0.19424303624E+03  0.00000000000E+00 0. -1.
          1    1    1    2  502    0 -0.26689208179E+02  0.11230218519E+02 -0.60307884413E+01  0.29577052768E+02  0.00000000000E+00 0. -1.
         22    1    3    3    0    0 -0.15789411212E+02 -0.19845921519E+01  0.25511487909E+02  0.30067925232E+02  0.00000000000E+00 0. -1.
         22    1    3    3    0    0 -0.12499769556E+03  0.26893342682E+02 -0.14957872659E+03  0.19677772034E+03  0.00000000000E+00 0. -1.
</event>
<event>
 7    1  0.6105960E-006  0.9157779E+02  0.7818608E-02  0.1303068E+00
          2   -1    0    0  502    0  0.00000000000E+00  0.00000000000E+00  0.11314232247E+04  0.11314232247E+04  0.00000000000E+00 0. -1.
          1   -1    0    0  501    0 -0.00000000000E+00 -0.00000000000E+00 -0.56502263332E+02  0.56502263332E+02  0.00000000000E+00 0. -1.
         25    2    1    2    0    0 -0.12780344787E+03  0.35658858572E+02  0.39176100436E+03  0.43209782343E+03  0.12500627580E+03 0.  0.
          2    1    1    2  501    0  0.78986849192E+02  0.39412745385E+02  0.25197897639E+02  0.91799895912E+02  0.00000000000E+00 0. -1.
          1    1    1    2  502    0  0.48816598679E+02 -0.75071603958E+02  0.65796205934E+03  0.66402776866E+03  0.00000000000E+00 0. -1.
         22    1    3    3    0    0 -0.10258062237E+03  0.68956065019E+02  0.35687644093E+03  0.37767514755E+03  0.00000000000E+00 0.  1.
         22    1    3    3    0    0 -0.25222825506E+02 -0.33297206447E+02  0.34884563434E+02  0.54422675877E+02  0.00000000000E+00 0.  1.
</event>
<event>
 7    1  0.6105960E-006  0.7704223E+02  0.7818608E-02  0.1404134E+00
          2   -1    0    0  502    0  0.00000000000E+00  0.00000000000E+00  0.19973552568E+04  0.19973552568E+04  0.00000000000E+00 0. -1.
          1   -1    0    0  501    0 -0.00000000000E+00 -0.00000000000E+00 -0.63995057949E+02  0.63995057949E+02  0.00000000000E+00 0. -1.
         25    2    1    2    0    0  0.27517980197E+01 -0.10829274357E+03  0.89907838859E+02  0.18826206715E+03  0.12499718291E+03 0.  0.
          2    1    1    2  501    0  0.24904424797E+02  0.36825880861E+02  0.21247986074E+02  0.49273246167E+02  0.00000000000E+00 0. -1.
          1    1    1    2  502    0 -0.27656222817E+02  0.71466862711E+02  0.18222043740E+04  0.18238150015E+04  0.00000000000E+00 0. -1.
         22    1    3    3    0    0 -0.19420825890E+02  0.16531582508E+02 -0.94394406750E+01  0.27194939579E+02  0.00000000000E+00 0.  1.
         22    1    3    3    0    0  0.22172623910E+02 -0.12482432608E+03  0.99347279534E+02  0.16106712757E+03  0.00000000000E+00 0.  1.
</event>
<event>
 7    1  0.6105960E-006  0.1815411E+03  0.7818608E-02  0.1339446E+00
          2   -1    0    0  502    0  0.00000000000E+00  0.00000000000E+00  0.18354994357E+04  0.18354994357E+04  0.00000000000E+00 0. -1.
          1   -1    0    0  501    0 -0.00000000000E+00 -0.00000000000E+00 -0.49734384837E+03  0.49734384837E+03  0.00000000000E+00 0. -1.
         25    2    1    2    0    0 -0.18739812325E+03 -0.19235472264E+02  0.30610310452E+03  0.38054406349E+03  0.12500645451E+03 0.  0.
          2    1    1    2  501    0  0.13172697985E+02 -0.29374066851E+02 -0.45406990756E+03  0.45520966238E+03  0.00000000000E+00 0. -1.
          1    1    1    2  502    0  0.17422542527E+03  0.48609539115E+02  0.14861223903E+04  0.14970895582E+04  0.00000000000E+00 0. -1.
         22    1    3    3    0    0 -0.72223531502E+02 -0.57281534925E+02  0.72310197930E+02  0.11715877035E+03  0.00000000000E+00 0.  1.
         22    1    3    3    0    0 -0.11517459175E+03  0.38046062661E+02  0.23379290659E+03  0.26338529314E+03  0.00000000000E+00 0.  1.
</event>
<event>
 7    1  0.6105960E-006  0.2647706E+03  0.7818608E-02  0.1227141E+00
          2   -1    0    0  502    0  0.00000000000E+00  0.00000000000E+00  0.16202392845E+04  0.16202392845E+04  0.00000000000E+00 0. -1.
          1   -1    0    0  501    0 -0.00000000000E+00 -0.00000000000E+00 -0.33523262442E+04  0.33523262442E+04  0.00000000000E+00 0. -1.
         25    2    1    2    0    0  0.67353755567E+02  0.30241039590E+03 -0.34309130434E+03  0.47887858908E+03  0.12499793613E+03 0.  0.
          2    1    1    2  501    0 -0.18941699308E+02 -0.26049250139E+03 -0.29348791268E+04  0.29464776633E+04  0.00000000000E+00 0. -1.
          1    1    1    2  502    0 -0.48412056259E+02 -0.41917894510E+02  0.15458834715E+04  0.15472092762E+04  0.00000000000E+00 0. -1.
         22    1    3    3    0    0  0.28169773770E+02  0.29152553013E+03 -0.30972278768E+03  0.42627324111E+03  0.00000000000E+00 0.  1.
         22    1    3    3    0    0  0.39183981797E+02  0.10884865762E+02 -0.33368516651E+02  0.52605347975E+02  0.00000000000E+00 0.  1.
</event>
<event>
 7    1  0.6105960E-006  0.3273656E+02  0.7818608E-02  0.1596865E+00
          2   -1    0    0  502    0  0.00000000000E+00  0.00000000000E+00  0.45909832213E+03  0.45909832213E+03  0.00000000000E+00 0. -1.
          1   -1    0    0  501    0 -0.00000000000E+00 -0.00000000000E+00 -0.90374158999E+03  0.90374158999E+03  0.00000000000E+00 0. -1.
         25    2    1    2    0    0 -0.15168269982E+02 -0.14363818931E+02  0.33467135420E+03  0.35786403999E+03  0.12500144036E+03 0.  0.
          2    1    1    2  501    0 -0.22257513940E+02  0.16482594617E+02 -0.88881010868E+03  0.88924152070E+03  0.00000000000E+00 0. -1.
          1    1    1    2  502    0  0.37425783922E+02 -0.21187756855E+01  0.10949548661E+03  0.11573435143E+03  0.00000000000E+00 0. -1.
         22    1    3    3    0    0 -0.66704054154E+02  0.13495234801E+02  0.17290104889E+03  0.18581260697E+03  0.00000000000E+00 0.  1.
         22    1    3    3    0    0  0.51535784172E+02 -0.27859053732E+02  0.16177030531E+03  0.17205143302E+03  0.00000000000E+00 0.  1.
</event>
<event>
 7    1  0.6105960E-006  0.1030009E+03  0.7818608E-02  0.1393697E+00
          2   -1    0    0  502    0  0.00000000000E+00  0.00000000000E+00  0.19531534357E+03  0.19531534357E+03  0.00000000000E+00 0. -1.
          1   -1    0    0  501    0 -0.00000000000E+00 -0.00000000000E+00 -0.21969887007E+03  0.21969887007E+03  0.00000000000E+00 0. -1.
         25    2    1    2    0    0  0.11964184615E+03  0.24386901650E+02 -0.96330424300E+02  0.19953125150E+03  0.12499710939E+03 0.  0.
          2    1    1    2  501    0 -0.85244920595E+02 -0.35415630067E+02 -0.37947183823E+02  0.99804569537E+02  0.00000000000E+00 0. -1.
          1    1    1    2  502    0 -0.34396925558E+02  0.11028728417E+02  0.10989408162E+03  0.11567839260E+03  0.00000000000E+00 0. -1.
         22    1    3    3    0    0  0.76944558490E+02  0.16821928012E+02 -0.12485946209E+03  0.14762563333E+03  0.00000000000E+00 0. -1.
         22    1    3    3    0    0  0.42697287663E+02  0.75649736376E+01  0.28529037791E+02  0.51905618166E+02  0.00000000000E+00 0. -1.
</event>
<event>
 7    1  0.6105960E-006  0.1159616E+03  0.7818608E-02  0.1381018E+00
          2   -1    0    0  502    0  0.00000000000E+00  0.00000000000E+00  0.14842723070E+04  0.14842723070E+04  0.00000000000E+00 0. -1.
          1   -1    0    0  501    0 -0.00000000000E+00 -0.00000000000E+00 -0.34010136688E+03  0.34010136688E+03  0.00000000000E+00 0. -1.
         25    2    1    2    0    0  0.58201733574E+02  0.12626082953E+03  0.66657497827E+02  0.19848496328E+03  0.12499527898E+03 0.  0.
          2    1    1    2  501    0 -0.26054560274E+02 -0.11110732979E+03 -0.26206695187E+03  0.28583695721E+03  0.00000000000E+00 0. -1.
          1    1    1    2  502    0 -0.32147173299E+02 -0.15153499749E+02  0.13395803942E+04  0.13400517534E+04  0.00000000000E+00 0. -1.
         22    1    3    3    0    0 -0.23924034160E+02  0.69747963272E+02  0.65743684437E+02  0.98789522898E+02  0.00000000000E+00 0.  1.
         22    1    3    3    0    0  0.82125767734E+02  0.56512866262E+02  0.91381339026E+00  0.99695440387E+02  0.00000000000E+00 0.  1.
</event>
<event>
 7    1  0.6105960E-006  0.1333310E+03  0.7818608E-02  0.1237062E+00
          2   -1    0    0  502    0  0.00000000000E+00  0.00000000000E+00  0.11876175666E+04  0.11876175666E+04  0.00000000000E+00 0. -1.
          1   -1    0    0  501    0 -0.00000000000E+00 -0.00000000000E+00 -0.18731751454E+03  0.18731751454E+03  0.00000000000E+00 0. -1.
         25    2    1    2    0    0  0.76152798839E+02  0.19175367954E+03  0.52835294206E+03  0.58081862644E+03  0.12499889218E+03 0.  0.
          2    1    1    2  501    0  0.20300023066E+02 -0.12944823296E+03 -0.12806246419E+03  0.18321825970E+03  0.00000000000E+00 0. -1.
          1    1    1    2  502    0 -0.96452821905E+02 -0.62305446578E+02  0.60000957420E+03  0.61089819501E+03  0.00000000000E+00 0. -1.
         22    1    3    3    0    0  0.41148354472E+02  0.13554222820E+03  0.19538653382E+03  0.24133126673E+03  0.00000000000E+00 0.  1.
         22    1    3    3    0    0  0.35004444367E+02  0.56211451338E+02  0.33296640825E+03  0.33948735972E+03  0.00000000000E+00 0.  1.
</event>
<event>
 7    1  0.6105960E-006  0.5725736E+02  0.7818608E-02  0.1448317E+00
          2   -1    0    0  502    0  0.00000000000E+00  0.00000000000E+00  0.17135713371E+04  0.17135713371E+04  0.00000000000E+00 0. -1.
          1   -1    0    0  501    0 -0.00000000000E+00 -0.00000000000E+00 -0.23220740712E+03  0.23220740712E+03  0.00000000000E+00 0. -1.
         25    2    1    2    0    0 -0.94620641533E+02 -0.17485364791E+02  0.12988137730E+03  0.20433523218E+03  0.12499964462E+03 0.  0.
          2    1    1    2  501    0  0.52097278966E+02  0.21489246432E+02 -0.19060651303E+03  0.19876306749E+03  0.00000000000E+00 0. -1.
          1    1    1    2  502    0  0.42523362567E+02 -0.40038816412E+01  0.15420890657E+04  0.15426804446E+04  0.00000000000E+00 0. -1.
         22    1    3    3    0    0 -0.11966329777E+03  0.43108462794E+01  0.78559847454E+02  0.14321151441E+03  0.00000000000E+00 0. -1.
         22    1    3    3    0    0  0.25042656235E+02 -0.21796211070E+02  0.51321529843E+02  0.61123717767E+02  0.00000000000E+00 0. -1.
</event>
<event>
 7    1  0.6105960E-006  0.8480666E+02  0.7818608E-02  0.1464741E+00
          2   -1    0    0  502    0  0.00000000000E+00  0.00000000000E+00  0.92770483945E+03  0.92770483945E+03  0.00000000000E+00 0. -1.
          1   -1    0    0  501    0 -0.00000000000E+00 -0.00000000000E+00 -0.75424264504E+02  0.75424264504E+02  0.00000000000E+00 0. -1.
         25    2    1    2    0    0  0.67249941934E+02  0.78814263202E+02  0.22721791946E+03  0.27926233077E+03  0.12500089475E+03 0.  0.
          2    1    1    2  501    0 -0.37027845341E+01 -0.25309410882E+02 -0.43338013676E+02  0.50323556332E+02  0.00000000000E+00 0. -1.
          1    1    1    2  502    0 -0.63547157399E+02 -0.53504852320E+02  0.66840066917E+03  0.67354321686E+03  0.00000000000E+00 0. -1.
         22    1    3    3    0    0  0.21795191265E+01 -0.16253802558E+02 -0.73191174858E+01  0.17958448763E+02  0.00000000000E+00 0. -1.
         22    1    3    3    0    0  0.65070422807E+02  0.95068065760E+02  0.23453703694E+03  0.26130388200E+03  0.00000000000E+00 0. -1.
</event>
<event>
 7    1  0.6105960E-006  0.7365630E+02  0.7818608E-02  0.1457892E+00
          2   -1    0    0  502    0  0.00000000000E+00  0.00000000000E+00  0.48572016016E+03  0.48572016016E+03  0.00000000000E+00 0. -1.
          1   -1    0    0  501    0 -0.00000000000E+00 -0.00000000000E+00 -0.47403456463E+03  0.47403456463E+03  0.00000000000E+00 0. -1.
         25    2    1    2    0    0  0.89185733725E+02  0.52235177809E+02  0.24281568853E+03  0.29200377843E+03  0.12499655644E+03 0.  0.
          2    1    1    2  501    0 -0.66226628670E+02 -0.31479487506E+02 -0.44532995591E+03  0.45132659362E+03  0.00000000000E+00 0. -1.
          1    1    1    2  502    0 -0.22959105054E+02 -0.20755690303E+02  0.21419986291E+03  0.21642435273E+03  0.00000000000E+00 0. -1.
         22    1    3    3    0    0  0.23836836412E+02 -0.41531174815E+02  0.73585682899E+02  0.87794566913E+02  0.00000000000E+00 0. -1.
         22    1    3    3    0    0  0.65348897312E+02  0.93766352623E+02  0.16923000563E+03  0.20420921152E+03  0.00000000000E+00 0. -1.
</event>
<event>
 7    1  0.6105960E-006  0.6284708E+02  0.7818608E-02  0.1438676E+00
          2   -1    0    0  502    0  0.00000000000E+00  0.00000000000E+00  0.56407954269E+03  0.56407954269E+03  0.00000000000E+00 0. -1.
          1   -1    0    0  501    0 -0.00000000000E+00 -0.00000000000E+00 -0.63374306095E+02  0.63374306095E+02  0.00000000000E+00 0. -1.
         25    2    1    2    0    0  0.82072907463E+02 -0.79720520758E+01  0.85375630727E+02  0.17237606966E+03  0.12499998126E+03 0.  0.
          2    1    1    2  501    0 -0.31115176573E+02 -0.27919099285E+02  0.74499091153E+01  0.42463295490E+02  0.00000000000E+00 0. -1.
          1    1    1    2  502    0 -0.50957730890E+02  0.35891151361E+02  0.40787969675E+03  0.41261448364E+03  0.00000000000E+00 0. -1.
         22    1    3    3    0    0 -0.13263956038E+02  0.33223114910E+02 -0.31482725749E+01  0.35911272802E+02  0.00000000000E+00 0. -1.
         22    1    3    3    0    0  0.95336863501E+02 -0.41195166986E+02  0.88523903301E+02  0.13646479686E+03  0.00000000000E+00 0. -1.
</event>
<event>
 7    1  0.7983462E-006  0.9931491E+02  0.7818608E-02  0.1303667E+00
          2   -1    0    0  502    0  0.00000000000E+00  0.00000000000E+00  0.90647128585E+03  0.90647128585E+03  0.00000000000E+00 0. -1.
          1   -1    0    0  501    0 -0.00000000000E+00 -0.00000000000E+00 -0.12974524620E+04  0.12974524620E+04  0.00000000000E+00 0. -1.
         25    2    1    2    0    0  0.50093935967E+01  0.13995254643E+03 -0.20492523674E+03  0.27790565947E+03  0.12500157452E+03 0.  0.
          2    1    1    2  501    0  0.52488874459E+02 -0.82969840183E+02 -0.10518629575E+04  0.10564349283E+04  0.00000000000E+00 0. -1.
          1    1    1    2  502    0 -0.57498268055E+02 -0.56982706249E+02  0.86580701813E+03  0.86958316007E+03  0.00000000000E+00 0. -1.
         22    1    3    3    0    0  0.59536669587E+02  0.94946113333E+02 -0.15535175800E+03  0.19155560074E+03  0.00000000000E+00 0.  1.
         22    1    3    3    0    0 -0.54527275991E+02  0.45006433098E+02 -0.49573478745E+02  0.86350058727E+02  0.00000000000E+00 0.  1.
</event>
<event>
 7    1  0.6105960E-006  0.5412260E+02  0.7818608E-02  0.1459625E+00
          2   -1    0    0  502    0  0.00000000000E+00  0.00000000000E+00  0.84607146593E+03  0.84607146593E+03  0.00000000000E+00 0. -1.
          1   -1    0    0  501    0 -0.00000000000E+00 -0.00000000000E+00 -0.50565354634E+03  0.50565354634E+03  0.00000000000E+00 0. -1.
         25    2    1    2    0    0  0.25986259371E+02  0.44764843196E+02  0.15320377190E+03  0.20439531199E+03  0.12500748368E+03 0.  0.
          2    1    1    2  501    0  0.14940059600E+02 -0.52181773563E+02 -0.47787178473E+03  0.48094447238E+03  0.00000000000E+00 0. -1.
          1    1    1    2  502    0 -0.40926318971E+02  0.74169303670E+01  0.66508593242E+03  0.66638522789E+03  0.00000000000E+00 0. -1.
         22    1    3    3    0    0 -0.58967758690E+01  0.36497282904E+02 -0.96782547377E+01  0.38216387059E+02  0.00000000000E+00 0.  1.
         22    1    3    3    0    0  0.31883035240E+02  0.82675602914E+01  0.16288202664E+03  0.16617892493E+03  0.00000000000E+00 0.  1.
</event>
<event>
 7    1  0.6105960E-006  0.2275136E+03  0.7818608E-02  0.1170226E+00
          2   -1    0    0  502    0  0.00000000000E+00  0.00000000000E+00  0.23538003708E+04  0.23538003708E+04  0.00000000000E+00 0. -1.
          1   -1    0    0  501    0 -0.00000000000E+00 -0.00000000000E+00 -0.52527936649E+02  0.52527936649E+02  0.00000000000E+00 0. -1.
         25    2    1    2    0    0  0.94021709731E+02  0.17026405360E+03  0.71411541369E+03  0.75061051736E+03  0.12500157938E+03 0.  0.
          2    1    1    2  501    0  0.36555044872E+01 -0.26846949544E+03  0.58060944391E+03  0.63968473411E+03  0.00000000000E+00 0. -1.
          1    1    1    2  502    0 -0.97677214218E+02  0.98205441842E+02  0.10065475765E+04  0.10160330560E+04  0.00000000000E+00 0. -1.
         22    1    3    3    0    0 -0.49823219914E+01  0.90208372343E+02  0.42820463889E+03  0.43763179356E+03  0.00000000000E+00 0. -1.
         22    1    3    3    0    0  0.99004031723E+02  0.80055681258E+02  0.28591077480E+03  0.31297872380E+03  0.00000000000E+00 0. -1.
</event>
<event>
 7    1  0.7760132E-006  0.5600141E+02  0.7818608E-02  0.1439473E+00
          2   -1    0    0  502    0  0.00000000000E+00  0.00000000000E+00  0.11991535429E+04  0.11991535429E+04  0.00000000000E+00 0. -1.
          1   -1    0    0  501    0 -0.00000000000E+00 -0.00000000000E+00 -0.88136136801E+03  0.88136136801E+03  0.00000000000E+00 0. -1.
         25    2    1    2    0    0 -0.60055085722E+02  0.56964311508E+02 -0.14006784137E+03  0.20517122486E+03  0.12499874087E+03 0.  0.
          2    1    1    2  501    0  0.51228537757E+01 -0.46353705288E+02 -0.70730271260E+03  0.70883851255E+03  0.00000000000E+00 0. -1.
          1    1    1    2  502    0  0.54932231946E+02 -0.10610606220E+02  0.11651627289E+04  0.11665051735E+04  0.00000000000E+00 0. -1.
         22    1    3    3    0    0 -0.79912740642E+02  0.28697321219E+02 -0.30393464709E+02  0.90185060066E+02  0.00000000000E+00 0.  1.
         22    1    3    3    0    0  0.19857654920E+02  0.28266990288E+02 -0.10967437666E+03  0.11498616480E+03  0.00000000000E+00 0.  1.
</event>
<event>
 7    1  0.6105960E-006  0.5621578E+02  0.7818608E-02  0.1501906E+00
          2   -1    0    0  502    0  0.00000000000E+00  0.00000000000E+00  0.17645698177E+03  0.17645698177E+03  0.00000000000E+00 0. -1.
          1   -1    0    0  501    0 -0.00000000000E+00 -0.00000000000E+00 -0.84417470879E+03  0.84417470879E+03  0.00000000000E+00 0. -1.
         25    2    1    2    0    0 -0.28656942073E+02  0.78356323728E+02 -0.26097119429E+03  0.30115299250E+03  0.12500490728E+03 0.  0.
          2    1    1    2  501    0  0.18013320673E+02 -0.23630335125E+02 -0.55773509494E+03  0.55852601425E+03  0.00000000000E+00 0. -1.
          1    1    1    2  502    0  0.10643621400E+02 -0.54725988603E+02  0.15098856222E+03  0.16095268381E+03  0.00000000000E+00 0. -1.
         22    1    3    3    0    0  0.13255800207E+01  0.10718597823E+03 -0.20597467549E+03  0.23219853151E+03  0.00000000000E+00 0. -1.
         22    1    3    3    0    0 -0.29982522094E+02 -0.28829654506E+02 -0.54996518802E+02  0.68954460990E+02  0.00000000000E+00 0. -1.
</event>
<event>
 7    1  0.6105960E-006  0.7846385E+02  0.7818608E-02  0.1363466E+00
          2   -1    0    0  502    0  0.00000000000E+00  0.00000000000E+00  0.65475126225E+03  0.65475126225E+03  0.00000000000E+00 0. -1.
          1   -1    0    0  501    0 -0.00000000000E+00 -0.00000000000E+00 -0.57986374161E+03  0.57986374161E+03  0.00000000000E+00 0. -1.
         25    2    1    2    0    0 -0.10677385280E+03 -0.57442174145E+02 -0.29721617048E+03  0.34447334407E+03  0.12499669504E+03 0.  0.
          2    1    1    2  501    0  0.70318020431E+02  0.88982500576E+01 -0.25267112649E+03  0.26242427672E+03  0.00000000000E+00 0. -1.
          1    1    1    2  502    0  0.36455832370E+02  0.48543924087E+02  0.62477481761E+03  0.62771738306E+03  0.00000000000E+00 0. -1.
         22    1    3    3    0    0 -0.13391881282E+03 -0.35031980579E+02 -0.24708598588E+03  0.28321894800E+03  0.00000000000E+00 0. -1.
         22    1    3    3    0    0  0.27144960017E+02 -0.22410193566E+02 -0.50130184597E+02  0.61254396068E+02  0.00000000000E+00 0. -1.
</event>
<event>
 7    1  0.6105960E-006  0.7860181E+02  0.7818608E-02  0.1358429E+00
          2   -1    0    0  502    0  0.00000000000E+00  0.00000000000E+00  0.10111233125E+03  0.10111233125E+03  0.00000000000E+00 0. -1.
          1   -1    0    0  501    0 -0.00000000000E+00 -0.00000000000E+00 -0.10862043415E+04  0.10862043415E+04  0.00000000000E+00 0. -1.
         25    2    1    2    0    0 -0.46155940735E+02 -0.29014472946E+01 -0.51580497955E+03  0.53274629461E+03  0.12500019294E+03 0.  0.
          2    1    1    2  501    0  0.61018403122E+00 -0.63215188838E+02 -0.54234646544E+03  0.54601851709E+03  0.00000000000E+00 0. -1.
          1    1    1    2  502    0  0.45545756703E+02  0.66116636133E+02  0.73059434760E+02  0.10855186104E+03  0.00000000000E+00 0. -1.
         22    1    3    3    0    0 -0.43464530282E+02 -0.25984449046E+02 -0.50426161978E+03  0.50679792636E+03  0.00000000000E+00 0.  1.
         22    1    3    3    0    0 -0.26914104526E+01  0.23083001751E+02 -0.11543359772E+02  0.25948368251E+02  0.00000000000E+00 0.  1.
</event>
<event>
 7    1  0.6105960E-006  0.7172338E+02  0.7818608E-02  0.1378180E+00
          2   -1    0    0  502    0  0.00000000000E+00  0.00000000000E+00  0.21698855560E+04  0.21698855560E+04  0.00000000000E+00 0. -1.
          1   -1    0    0  501    0 -0.00000000000E+00 -0.00000000000E+00 -0.63049645466E+02  0.63049645466E+02  0.00000000000E+00 0. -1.
         25    2    1    2    0    0  0.11484064923E+03 -0.25803762640E+02  0.44128562774E+03  0.47351202659E+03  0.12500570065E+03 0.  0.
          2    1    1    2  501    0 -0.45725565971E+02  0.36978179578E+02 -0.27504920635E+02  0.64920981257E+02  0.00000000000E+00 0. -1.
          1    1    1    2  502    0 -0.69115083256E+02 -0.11174416938E+02  0.16930552034E+04  0.16945021936E+04  0.00000000000E+00 0. -1.
         22    1    3    3    0    0  0.43104040249E+02  0.34079696141E+02  0.29394813506E+03  0.29903994730E+03  0.00000000000E+00 0. -1.
         22    1    3    3    0    0  0.71736608977E+02 -0.59883458780E+02  0.14733749268E+03  0.17447207929E+03  0.00000000000E+00 0. -1.
</event>
<event>
 7    1  0.6105960E-006  0.1207687E+03  0.7818608E-02  0.1335564E+00
          2   -1    0    0  502    0  0.00000000000E+00  0.00000000000E+00  0.51408503895E+03  0.51408503895E+03  0.00000000000E+00 0. -1.
          1   -1    0    0  501    0 -0.00000000000E+00 -0.00000000000E+00 -0.12934972741E+03  0.12934972741E+03  0.00000000000E+00 0. -1.
         25    2    1    2    0    0 -0.29930307973E+02  0.82291726990E+02  0.15495240816E+02  0.15341262769E+03  0.12501032030E+03 0.  0.
          2    1    1    2  501    0  0.24827537217E+02  0.43461775929E+02 -0.38597400813E+02  0.63206739519E+02  0.00000000000E+00 0. -1.
          1    1    1    2  502    0  0.51027707567E+01 -0.12575350292E+03  0.40783747153E+03  0.42681539915E+03  0.00000000000E+00 0. -1.
         22    1    3    3    0    0 -0.42998486307E+02  0.88110874534E+02 -0.32532774772E+02  0.10329945532E+03  0.00000000000E+00 0.  1.
         22    1    3    3    0    0  0.13068178334E+02 -0.58191475440E+01  0.48028015589E+02  0.50113172365E+02  0.00000000000E+00 0.  1.
</event>
<event>
 7    1  0.6105960E-006  0.1404151E+03  0.7818608E-02  0.1403308E+00
          2   -1    0    0  502    0  0.00000000000E+00  0.00000000000E+00  0.16998563720E+03  0.16998563720E+03  0.00000000000E+00 0. -1.
          1   -1    0    0  501    0 -0.00000000000E+00 -0.00000000000E+00 -0.94399086836E+03  0.94399086836E+03  0.00000000000E+00 0. -1.
         25    2    1    2    0    0  0.12081205329E+03 -0.13080550970E+02 -0.16694882412E+03  0.24137852597E+03  0.12500011957E+03 0.  0.
          2    1    1    2  501    0  0.20932110946E+02 -0.12830101844E+02 -0.70045355468E+03  0.70088369010E+03  0.00000000000E+00 0. -1.
          1    1    1    2  502    0 -0.14174416424E+03  0.25910652815E+02  0.93397147641E+02  0.17171428948E+03  0.00000000000E+00 0. -1.
         22    1    3    3    0    0  0.82703815079E+00 -0.28074480459E+02  0.75456922860E+01  0.29082605062E+02  0.00000000000E+00 0. -1.
         22    1    3    3    0    0  0.11998501514E+03  0.14993929488E+02 -0.17449451640E+03  0.21229592091E+03  0.00000000000E+00 0. -1.
</event>
<event>
 7    1  0.6105960E-006  0.6996887E+02  0.7818608E-02  0.1485597E+00
          2   -1    0    0  502    0  0.00000000000E+00  0.00000000000E+00  0.57034036814E+03  0.57034036814E+03  0.00000000000E+00 0. -1.
          1   -1    0    0  501    0 -0.00000000000E+00 -0.00000000000E+00 -0.69948436325E+02  0.69948436325E+02  0.00000000000E+00 0. -1.
         25    2    1    2    0    0 -0.77137485675E+02 -0.35508803300E+02  0.35311743948E+03  0.38409430293E+03  0.12500176264E+03 0.  0.
          2    1    1    2  501    0  0.52301575638E+02  0.45390484686E+02 -0.31038664236E+02  0.75889061081E+02  0.00000000000E+00 0. -1.
          1    1    1    2  502    0  0.24835910037E+02 -0.98816813851E+01  0.17831315657E+03  0.18030544046E+03  0.00000000000E+00 0. -1.
         22    1    3    3    0    0 -0.48627630455E+02 -0.77812702373E+02  0.28214098802E+03  0.29668670381E+03  0.00000000000E+00 0.  1.
         22    1    3    3    0    0 -0.28509855220E+02  0.42303899072E+02  0.70976451464E+02  0.87407599120E+02  0.00000000000E+00 0.  1.
</event>
<event>
 7    1  0.6105960E-006  0.6117508E+02  0.7818608E-02  0.1454267E+00
          2   -1    0    0  502    0  0.00000000000E+00  0.00000000000E+00  0.25265850864E+03  0.25265850864E+03  0.00000000000E+00 0. -1.
          1   -1    0    0  501    0 -0.00000000000E+00 -0.00000000000E+00 -0.10759788839E+03  0.10759788839E+03  0.00000000000E+00 0. -1.
         25    2    1    2    0    0 -0.33553369474E+01 -0.49152748594E+02  0.52250741306E+02  0.14415960556E+03  0.12499840370E+03 0.  0.
          2    1    1    2  501    0  0.41615576717E+02  0.49743261316E+02 -0.41130194989E+02  0.76798054739E+02  0.00000000000E+00 0. -1.
          1    1    1    2  502    0 -0.38260239770E+02 -0.59051272205E+00  0.13394007393E+03  0.13929873674E+03  0.00000000000E+00 0. -1.
         22    1    3    3    0    0 -0.60579103891E+02 -0.41373034609E+02  0.13440908455E+02  0.74580251013E+02  0.00000000000E+00 0.  1.
         22    1    3    3    0    0  0.57223766944E+02 -0.77797139848E+01  0.38809832851E+02  0.69579354544E+02  0.00000000000E+00 0.  1.
</event>
<event>
 7    1  0.6105960E-006  0.4316534E+02  0.7818608E-02  0.1525341E+00
          2   -1    0    0  502    0  0.00000000000E+00  0.00000000000E+00  0.52324475684E+02  0.52324475684E+02  0.00000000000E+00 0. -1.
          1   -1    0    0  501    0 -0.00000000000E+00 -0.00000000000E+00 -0.55208607398E+03  0.55208607398E+03  0.00000000000E+00 0. -1.
         25    2    1    2    0    0  0.34343338141E+02  0.55333659428E+02 -0.18049508961E+03  0.22900166515E+03  0.12498802554E+03 0.  0.
          2    1    1    2  501    0  0.11228352989E+01 -0.33019680003E+02 -0.33040431736E+03  0.33205206362E+03  0.00000000000E+00 0. -1.
          1    1    1    2  502    0 -0.35466173440E+02 -0.22313979424E+02  0.11137808669E+02  0.43356820896E+02  0.00000000000E+00 0. -1.
         22    1    3    3    0    0  0.49013502885E+02 -0.17191379946E+02 -0.12840213110E+03  0.13850983460E+03  0.00000000000E+00 0.  1.
         22    1    3    3    0    0 -0.14670164744E+02  0.72525039373E+02 -0.52092958502E+02  0.90491830544E+02  0.00000000000E+00 0.  1.
</event>
<event>
 7    1  0.6105960E-006  0.9461969E+02  0.7818608E-02  0.1350420E+00
          2   -1    0    0  502    0  0.00000000000E+00  0.00000000000E+00  0.14058446598E+04  0.14058446598E+04  0.00000000000E+00 0. -1.
          1   -1    0    0  501    0 -0.00000000000E+00 -0.00000000000E+00 -0.33343190705E+03  0.33343190705E+03  0.00000000000E+00 0. -1.
         25    2    1    2    0    0  0.37875581331E+02  0.43458936168E+02  0.34325400173E+03  0.36982543996E+03  0.12499723015E+03 0.  0.
          2    1    1    2  501    0 -0.10132194586E+02  0.55283745924E+02 -0.31514754148E+03  0.32012017561E+03  0.00000000000E+00 0. -1.
          1    1    1    2  502    0 -0.27743386746E+02 -0.98742682093E+02  0.10443062925E+04  0.10493309513E+04  0.00000000000E+00 0. -1.
         22    1    3    3    0    0  0.61116503701E+02 -0.24478229220E+02  0.16181682094E+03  0.17469715015E+03  0.00000000000E+00 0.  1.
         22    1    3    3    0    0 -0.23240922369E+02  0.67937165388E+02  0.18143718079E+03  0.19512828981E+03  0.00000000000E+00 0.  1.
</event>
<event>
 7    1  0.6105960E-006  0.3320098E+02  0.7818608E-02  0.1620240E+00
          2   -1    0    0  502    0  0.00000000000E+00  0.00000000000E+00  0.14405102270E+03  0.14405102270E+03  0.00000000000E+00 0. -1.
          1   -1    0    0  501    0 -0.00000000000E+00 -0.00000000000E+00 -0.44459312371E+03  0.44459312371E+03  0.00000000000E+00 0. -1.
         25    2    1    2    0    0 -0.15321657696E+02 -0.26923225565E+02 -0.17678965296E+03  0.21873314970E+03  0.12501998286E+03 0.  0.
          2    1    1    2  501    0  0.23123503584E+02 -0.54722648608E+01 -0.24398857950E+03  0.24514295631E+03  0.00000000000E+00 0. -1.
          1    1    1    2  502    0 -0.78018458875E+01  0.32395490426E+02  0.12023613145E+03  0.12476804040E+03  0.00000000000E+00 0. -1.
         22    1    3    3    0    0 -0.34417234700E+02 -0.34724700582E+02 -0.90399460994E+01  0.49719930616E+02  0.00000000000E+00 0.  1.
         22    1    3    3    0    0  0.19095577004E+02  0.78014750168E+01 -0.16774970686E+03  0.16901321908E+03  0.00000000000E+00 0.  1.
</event>
<event>
 7    1  0.6105960E-006  0.5384556E+02  0.7818608E-02  0.1426177E+00
          2   -1    0    0  502    0  0.00000000000E+00  0.00000000000E+00  0.16331559363E+04  0.16331559363E+04  0.00000000000E+00 0. -1.
          1   -1    0    0  501    0 -0.00000000000E+00 -0.00000000000E+00 -0.79631725528E+02  0.79631725528E+02  0.00000000000E+00 0. -1.
         25    2    1    2    0    0  0.16084957487E+02  0.11862376569E+02  0.69582168679E+02  0.14444792612E+03  0.12499633326E+03 0.  0.
          2    1    1    2  501    0  0.24406051979E+02 -0.47996758434E+02 -0.24333181847E+02  0.59088475460E+02  0.00000000000E+00 0. -1.
          1    1    1    2  502    0 -0.40491009466E+02  0.36134381864E+02  0.15082752239E+04  0.15092512602E+04  0.00000000000E+00 0. -1.
         22    1    3    3    0    0 -0.14505647764E+02 -0.30387922936E+02 -0.21168986299E+02  0.39773931894E+02  0.00000000000E+00 0. -1.
         22    1    3    3    0    0  0.30590605251E+02  0.42250299505E+02  0.90751154978E+02  0.10467399423E+03  0.00000000000E+00 0. -1.
</event>
<event>
 7    1  0.6105960E-006  0.3875875E+02  0.7818608E-02  0.1580062E+00
          2   -1    0    0  502    0  0.00000000000E+00  0.00000000000E+00  0.14287606975E+04  0.14287606975E+04  0.00000000000E+00 0. -1.
          1   -1    0    0  501    0 -0.00000000000E+00 -0.00000000000E+00 -0.47703707688E+03  0.47703707688E+03  0.00000000000E+00 0. -1.
         25    2    1    2    0    0  0.15992304644E+02  0.44756569503E+02  0.41082172950E+03  0.43204174803E+03  0.12500669699E+03 0.  0.
          2    1    1    2  501    0 -0.24931379760E+02 -0.70927587762E+01 -0.46569463409E+03  0.46641545123E+03  0.00000000000E+00 0. -1.
          1    1    1    2  502    0  0.89390751162E+01 -0.37663810727E+02  0.10065965252E+04  0.10073405751E+04  0.00000000000E+00 0. -1.
         22    1    3    3    0    0 -0.21874504949E+01  0.67140433644E+02  0.10362134600E+03  0.12349091512E+03  0.00000000000E+00 0. -1.
         22    1    3    3    0    0  0.18179755139E+02 -0.22383864141E+02  0.30720038350E+03  0.30855083291E+03  0.00000000000E+00 0. -1.
</event>
<event>
 7    1  0.6105960E-006  0.1041915E+03  0.7818608E-02  0.1455960E+00
          2   -1    0    0  502    0  0.00000000000E+00  0.00000000000E+00  0.11976096479E+04  0.11976096479E+04  0.00000000000E+00 0. -1.
          1   -1    0    0  501    0 -0.00000000000E+00 -0.00000000000E+00 -0.20108845879E+03  0.20108845879E+03  0.00000000000E+00 0. -1.
         25    2    1    2    0    0 -0.89448110593E+02 -0.18295445115E+02  0.57675161641E+02  0.16518850323E+03  0.12500051811E+03 0.  0.
          2    1    1    2  501    0 -0.78795888296E+01 -0.20744326897E+02 -0.14394856002E+03  0.14564890302E+03  0.00000000000E+00 0. -1.
          1    1    1    2  502    0  0.97327699423E+02  0.39039772012E+02  0.10827945875E+04  0.10878607004E+04  0.00000000000E+00 0. -1.
         22    1    3    3    0    0 -0.28201038770E+02 -0.16017315220E+02  0.90164631355E+02  0.95820215623E+02  0.00000000000E+00 0. -1.
         22    1    3    3    0    0 -0.61247071823E+02 -0.22781298950E+01 -0.32489469715E+02  0.69368287603E+02  0.00000000000E+00 0. -1.
</event>
<event>
 7    1  0.6105960E-006  0.1104475E+03  0.7818608E-02  0.1339902E+00
          2   -1    0    0  502    0  0.00000000000E+00  0.00000000000E+00  0.13992444743E+04  0.13992444743E+04  0.00000000000E+00 0. -1.
          1   -1    0    0  501    0 -0.00000000000E+00 -0.00000000000E+00 -0.24447212874E+03  0.24447212874E+03  0.00000000000E+00 0. -1.
         25    2    1    2    0    0  0.12440147494E+03 -0.55668023437E+02  0.34654251205E+02  0.18815360346E+03  0.12500482218E+03 0.  0.
          2    1    1    2  501    0 -0.14580854425E+02  0.50648208140E+02 -0.16116917740E+03  0.16956811624E+03  0.00000000000E+00 0. -1.
          1    1    1    2  502    0 -0.10982062052E+03  0.50198152971E+01  0.12812872718E+04  0.12859948834E+04  0.00000000000E+00 0. -1.
         22    1    3    3    0    0  0.67707225235E+02 -0.26661446154E+02  0.81378577759E+02  0.10916764163E+03  0.00000000000E+00 0. -1.
         22    1    3    3    0    0  0.56694249707E+02 -0.29006577283E+02 -0.46724326554E+02  0.78985961838E+02  0.00000000000E+00 0. -1.
</event>
<event>
 7    1  0.8089986E-006  0.8218070E+02  0.7818608E-02  0.1329338E+00
          2   -1    0    0  502    0  0.00000000000E+00  0.00000000000E+00  0.24718354584E+04  0.24718354584E+04  0.00000000000E+00 0. -1.
          1   -1    0    0  501    0 -0.00000000000E+00 -0.00000000000E+00 -0.45864670175E+03  0.45864670175E+03  0.00000000000E+00 0. -1.
         25    2    1    2    0    0  0.56802318198E+02  0.28685364661E+01 -0.21441441206E+03  0.25461665407E+03  0.12498547345E+03 0.  0.
          2    1    1    2  501    0 -0.25597004282E+02  0.73342297885E+02 -0.21668606492E+03  0.23018937859E+03  0.00000000000E+00 0. -1.
          1    1    1    2  502    0 -0.31205313916E+02 -0.76210834351E+02  0.24442892336E+04  0.24456761275E+04  0.00000000000E+00 0. -1.
         22    1    3    3    0    0 -0.18127174229E+01  0.50386265275E+02 -0.39264119043E+02  0.63904089987E+02  0.00000000000E+00 0.  1.
         22    1    3    3    0    0  0.58615035621E+02 -0.47517728809E+02 -0.17515029302E+03  0.19071256408E+03  0.00000000000E+00 0.  1.
</event>
<event>
 7    1  0.6105960E-006  0.6786182E+02  0.7818608E-02  0.1385170E+00
          2   -1    0    0  502    0  0.00000000000E+00  0.00000000000E+00  0.25785045922E+04  0.25785045922E+04  0.00000000000E+00 0. -1.
          1   -1    0    0  501    0 -0.00000000000E+00 -0.00000000000E+00 -0.51131918541E+03  0.51131918541E+03  0.00000000000E+00 0. -1.
         25    2    1    2    0    0  0.33679767346E+02 -0.27014871653E+02  0.17698840450E+03  0.22094132874E+03  0.12500418152E+03 0.  0.
          2    1    1    2  501    0 -0.41637939658E+02 -0.41400174472E+02 -0.48708075648E+03  0.49060712979E+03  0.00000000000E+00 0. -1.
          1    1    1    2  502    0  0.79581723121E+01  0.68415046124E+02  0.23772777587E+04  0.23782753191E+04  0.00000000000E+00 0. -1.
         22    1    3    3    0    0  0.67140665431E+02  0.19724957905E+02  0.12588208934E+03  0.14402514828E+03  0.00000000000E+00 0. -1.
         22    1    3    3    0    0 -0.33460898085E+02 -0.46739829557E+02  0.51106315162E+02  0.76916180464E+02  0.00000000000E+00 0. -1.
</event>
<event>
 7    1  0.6105960E-006  0.6562992E+02  0.7818608E-02  0.1460787E+00
          2   -1    0    0  502    0  0.00000000000E+00  0.00000000000E+00  0.10795238002E+04  0.10795238002E+04  0.00000000000E+00 0. -1.
          1   -1    0    0  501    0 -0.00000000000E+00 -0.00000000000E+00 -0.81610783705E+02  0.81610783705E+02  0.00000000000E+00 0. -1.
         25    2    1    2    0    0  0.20394841840E+02 -0.54499811590E+02  0.57972615328E+03  0.59589760942E+03  0.12500147630E+03 0.  0.
          2    1    1    2  501    0  0.32716482742E+02  0.92978468080E+01 -0.66959896399E+02  0.75102902234E+02  0.00000000000E+00 0. -1.
          1    1    1    2  502    0 -0.53111324582E+02  0.45201964782E+02  0.48514675958E+03  0.49013407222E+03  0.00000000000E+00 0. -1.
         22    1    3    3    0    0  0.42554764067E+02 -0.87855274760E+02  0.39549285230E+03  0.40736231229E+03  0.00000000000E+00 0.  1.
         22    1    3    3    0    0 -0.22159922227E+02  0.33355463170E+02  0.18423330098E+03  0.18853529713E+03  0.00000000000E+00 0.  1.
</event>
<event>
 7    1  0.6105960E-006  0.2182280E+02  0.7818608E-02  0.1726633E+00
          2   -1    0    0  502    0  0.00000000000E+00  0.00000000000E+00  0.12023106178E+03  0.12023106178E+03  0.00000000000E+00 0. -1.
          1   -1    0    0  501    0 -0.00000000000E+00 -0.00000000000E+00 -0.35285998962E+03  0.35285998962E+03  0.00000000000E+00 0. -1.
         25    2    1    2    0    0  0.73282017550E+01 -0.40500834683E+02 -0.19923420286E+03  0.23877797283E+03  0.12500653009E+03 0.  0.
          2    1    1    2  501    0 -0.33032884097E+01  0.20749366500E+02 -0.13200348708E+03  0.13366513579E+03  0.00000000000E+00 0. -1.
          1    1    1    2  502    0 -0.40249133453E+01  0.19751468183E+02  0.98608762102E+02  0.10064794278E+03  0.00000000000E+00 0. -1.
         22    1    3    3    0    0  0.33224615359E+02  0.35276273632E+02 -0.10112176959E+03  0.11213341532E+03  0.00000000000E+00 0. -1.
         22    1    3    3    0    0 -0.25896413604E+02 -0.75777108314E+02 -0.98112433273E+02  0.12664455750E+03  0.00000000000E+00 0. -1.
</event>
<event>
 7    1  0.6105960E-006  0.4250577E+02  0.7818608E-02  0.1600900E+00
          2   -1    0    0  502    0  0.00000000000E+00  0.00000000000E+00  0.23410700478E+04  0.23410700478E+04  0.00000000000E+00 0. -1.
          1   -1    0    0  501    0 -0.00000000000E+00 -0.00000000000E+00 -0.69319305897E+01  0.69319305897E+01  0.00000000000E+00 0. -1.
         25    2    1    2    0    0  0.70459149541E+01  0.28312219868E+02  0.15487656502E+04  0.15540741111E+04  0.12498030637E+03 0.  0.
          2    1    1    2  501    0 -0.10525787636E+02  0.17961229512E+02  0.26792345451E+02  0.33929747210E+02  0.00000000000E+00 0. -1.
          1    1    1    2  502    0  0.34798726823E+01 -0.46273449380E+02  0.75858012157E+03  0.75999812004E+03  0.00000000000E+00 0. -1.
         22    1    3    3    0    0 -0.62627719811E+01  0.76947135435E+02  0.85489683842E+03  0.85837561027E+03  0.00000000000E+00 0. -1.
         22    1    3    3    0    0  0.13308686935E+02 -0.48634915567E+02  0.69386881178E+03  0.69569850088E+03  0.00000000000E+00 0. -1.
</event>
<event>
 7    1  0.6105960E-006  0.5484876E+02  0.7818608E-02  0.1534290E+00
          2   -1    0    0  502    0  0.00000000000E+00  0.00000000000E+00  0.15481536576E+03  0.15481536576E+03  0.00000000000E+00 0. -1.
          1   -1    0    0  501    0 -0.00000000000E+00 -0.00000000000E+00 -0.21810341541E+03  0.21810341541E+03  0.00000000000E+00 0. -1.
         25    2    1    2    0    0  0.32648657782E+02  0.58023903107E+00 -0.25133716479E+02  0.13161937909E+03  0.12500274283E+03 0.  0.
          2    1    1    2  501    0  0.24466689267E+02  0.14599172488E+01 -0.13045484284E+03  0.13273739587E+03  0.00000000000E+00 0. -1.
          1    1    1    2  502    0 -0.57115347049E+02 -0.20401562799E+01  0.92300509667E+02  0.10856200620E+03  0.00000000000E+00 0. -1.
         22    1    3    3    0    0  0.56158944901E+02  0.21840558891E+02 -0.59628463251E+02  0.84772582447E+02  0.00000000000E+00 0. -1.
         22    1    3    3    0    0 -0.23510287119E+02 -0.21260319860E+02  0.34494746772E+02  0.46846796644E+02  0.00000000000E+00 0. -1.
</event>
<event>
 7    1  0.6105960E-006  0.8294299E+02  0.7818608E-02  0.1431448E+00
          2   -1    0    0  502    0  0.00000000000E+00  0.00000000000E+00  0.94265882985E+03  0.94265882985E+03  0.00000000000E+00 0. -1.
          1   -1    0    0  501    0 -0.00000000000E+00 -0.00000000000E+00 -0.81480106608E+03  0.81480106608E+03  0.00000000000E+00 0. -1.
         25    2    1    2    0    0 -0.17804874076E+02  0.10908784775E+03  0.11033623272E+03  0.20004191098E+03  0.12500203931E+03 0.  0.
          2    1    1    2  501    0 -0.95023824473E+01 -0.32068599893E+02 -0.76746303643E+03  0.76819151431E+03  0.00000000000E+00 0. -1.
          1    1    1    2  502    0  0.27307256523E+02 -0.77019247852E+02  0.78498456747E+03  0.78922647064E+03  0.00000000000E+00 0. -1.
         22    1    3    3    0    0  0.99107005511E+01  0.11851743745E+03  0.12025385845E+03  0.16913188770E+03  0.00000000000E+00 0.  1.
         22    1    3    3    0    0 -0.27715574627E+02 -0.94295897080E+01 -0.99176257305E+01  0.30910023279E+02  0.00000000000E+00 0.  1.
</event>
<event>
 7    1  0.6105960E-006  0.6918846E+02  0.7818608E-02  0.1514908E+00
          2   -1    0    0  502    0  0.00000000000E+00  0.00000000000E+00  0.93903763157E+03  0.93903763157E+03  0.00000000000E+00 0. -1.
          1   -1    0    0  501    0 -0.00000000000E+00 -0.00000000000E+00 -0.54235988842E+03  0.54235988842E+03  0.00000000000E+00 0. -1.
         25    2    1    2    0    0 -0.48960473971E+02 -0.12145237779E+02 -0.18546205937E+03  0.22927170610E+03  0.12499881974E+03 0.  0.
          2    1    1    2  501    0 -0.20271859281E+02  0.88044107184E+01 -0.33331692580E+03  0.33404885713E+03  0.00000000000E+00 0. -1.
          1    1    1    2  502    0  0.69232333252E+02  0.33408270608E+01  0.91545672832E+03  0.91807695675E+03  0.00000000000E+00 0. -1.
         22    1    3    3    0    0 -0.32011011931E+01 -0.26070762886E+02 -0.17910375027E+03  0.18101957100E+03  0.00000000000E+00 0. -1.
         22    1    3    3    0    0 -0.45759372778E+02  0.13925525107E+02 -0.63583091073E+01  0.48252135096E+02  0.00000000000E+00 0. -1.
</event>
<event>
 7    1  0.6105960E-006  0.6710639E+02  0.7818608E-02  0.1381037E+00
          2   -1    0    0  502    0  0.00000000000E+00  0.00000000000E+00  0.94630129160E+03  0.94630129160E+03  0.00000000000E+00 0. -1.
          1   -1    0    0  501    0 -0.00000000000E+00 -0.00000000000E+00 -0.46607706304E+03  0.46607706304E+03  0.00000000000E+00 0. -1.
         25    2    1    2    0    0  0.76348339915E+02 -0.27061754436E+02 -0.34729861710E+02  0.15294539105E+03  0.12499888714E+03 0.  0.
          2    1    1    2  501    0 -0.59642609771E+02 -0.32026199642E+02 -0.36808647826E+03  0.37426003506E+03  0.00000000000E+00 0. -1.
          1    1    1    2  502    0 -0.16705730144E+02  0.59087954078E+02  0.88304056853E+03  0.88517292853E+03  0.00000000000E+00 0. -1.
         22    1    3    3    0    0  0.94872108985E+02 -0.10609315408E+01  0.12749890664E+02  0.95730885042E+02  0.00000000000E+00 0. -1.
         22    1    3    3    0    0 -0.18523769070E+02 -0.26000822896E+02 -0.47479752373E+02  0.57214506004E+02  0.00000000000E+00 0. -1.
</event>
<event>
 7    1  0.6105960E-006  0.5076758E+02  0.7818608E-02  0.1497097E+00
          2   -1    0    0  502    0  0.00000000000E+00  0.00000000000E+00  0.15338168936E+04  0.15338168936E+04  0.00000000000E+00 0. -1.
          1   -1    0    0  501    0 -0.00000000000E+00 -0.00000000000E+00 -0.24222784223E+03  0.24222784223E+03  0.00000000000E+00 0. -1.
         25    2    1    2    0    0 -0.18769965697E+02 -0.26358450617E+02 -0.54981169440E+02  0.14033909997E+03  0.12500021782E+03 0.  0.
          2    1    1    2  501    0  0.23816643177E+02 -0.24275680444E+02 -0.14212697960E+03  0.14613904161E+03  0.00000000000E+00 0. -1.
          1    1    1    2  502    0 -0.50466774794E+01  0.50634131061E+02  0.14886972004E+04  0.14895665943E+04  0.00000000000E+00 0. -1.
         22    1    3    3    0    0 -0.38621451483E+01  0.35630809206E+02 -0.66507003738E+02  0.75549005791E+02  0.00000000000E+00 0. -1.
         22    1    3    3    0    0 -0.14907820549E+02 -0.61989259823E+02  0.11525834299E+02  0.64790094175E+02  0.00000000000E+00 0. -1.
</event>
<event>
 7    1  0.6105960E-006  0.6058679E+02  0.7818608E-02  0.1434276E+00
          2   -1    0    0  502    0  0.00000000000E+00  0.00000000000E+00  0.96928638101E+03  0.96928638101E+03  0.00000000000E+00 0. -1.
          1   -1    0    0  501    0 -0.00000000000E+00 -0.00000000000E+00 -0.42734352333E+03  0.42734352333E+03  0.00000000000E+00 0. -1.
         25    2    1    2    0    0 -0.57500307811E+02 -0.40824592770E+02 -0.95324114731E+02  0.17228896390E+03  0.12499546976E+03 0.  0.
          2    1    1    2  501    0  0.60839151881E+02 -0.38721670905E+01 -0.28982453172E+03  0.29616660052E+03  0.00000000000E+00 0. -1.
          1    1    1    2  502    0 -0.33388440694E+01  0.44696759861E+02  0.92709150414E+03  0.92817433991E+03  0.00000000000E+00 0. -1.
         22    1    3    3    0    0 -0.12648823706E+02 -0.79599421395E+01  0.30919879378E+02  0.34342282404E+02  0.00000000000E+00 0. -1.
         22    1    3    3    0    0 -0.44851484105E+02 -0.32864650631E+02 -0.12624399411E+03  0.13794668150E+03  0.00000000000E+00 0. -1.
</event>
<event>
 7    1  0.6105960E-006  0.5808644E+02  0.7818608E-02  0.1518352E+00
          2   -1    0    0  502    0  0.00000000000E+00  0.00000000000E+00  0.39452530081E+02  0.39452530081E+02  0.00000000000E+00 0. -1.
          1   -1    0    0  501    0 -0.00000000000E+00 -0.00000000000E+00 -0.41753257485E+03  0.41753257485E+03  0.00000000000E+00 0. -1.
         25    2    1    2    0    0 -0.55149900922E+02  0.28976194962E+02 -0.15953577086E+03  0.21202831494E+03  0.12499285062E+03 0.  0.
          2    1    1    2  501    0  0.35763114574E+02 -0.45883246362E+02 -0.20991123209E+03  0.21782331836E+03  0.00000000000E+00 0. -1.
          1    1    1    2  502    0  0.19386786348E+02  0.16907051400E+02 -0.86330418143E+01  0.27133471634E+02  0.00000000000E+00 0. -1.
         22    1    3    3    0    0 -0.73448080586E+02  0.56299674889E+02 -0.68216573083E+02  0.11496858170E+03  0.00000000000E+00 0. -1.
         22    1    3    3    0    0  0.18298179664E+02 -0.27323479927E+02 -0.91319197778E+02  0.97059733242E+02  0.00000000000E+00 0. -1.
</event>
<event>
 7    1  0.6105960E-006  0.4067286E+02  0.7818608E-02  0.1567992E+00
          2   -1    0    0  502    0  0.00000000000E+00  0.00000000000E+00  0.12845217943E+04  0.12845217943E+04  0.00000000000E+00 0. -1.
          1   -1    0    0  501    0 -0.00000000000E+00 -0.00000000000E+00 -0.35783823237E+03  0.35783823237E+03  0.00000000000E+00 0. -1.
         25    2    1    2    0    0  0.11278207941E+02 -0.21817124111E+02  0.45576039653E+03  0.47322839182E+03  0.12499754760E+03 0.  0.
          2    1    1    2  501    0 -0.18038697875E+02 -0.19586369739E+02 -0.34805882376E+03  0.34907587327E+03  0.00000000000E+00 0. -1.
          1    1    1    2  502    0  0.67604899347E+01  0.41403493850E+02  0.81898198912E+03  0.82005576154E+03  0.00000000000E+00 0. -1.
         22    1    3    3    0    0 -0.56381651440E+02 -0.89231774370E+00  0.18970394621E+03  0.19790723599E+03  0.00000000000E+00 0.  1.
         22    1    3    3    0    0  0.67659859381E+02 -0.20924806367E+02  0.26605645032E+03  0.27532115583E+03  0.00000000000E+00 0.  1.
</event>
<event>
 7    1  0.6105960E-006  0.9481302E+02  0.7818608E-02  0.1381901E+00
          2   -1    0    0  502    0  0.00000000000E+00  0.00000000000E+00  0.22306065229E+04  0.22306065229E+04  0.00000000000E+00 0. -1.
          1   -1    0    0  501    0 -0.00000000000E+00 -0.00000000000E+00 -0.27159919050E+03  0.27159919050E+03  0.00000000000E+00 0. -1.
         25    2    1    2    0    0 -0.11439084654E+03 -0.50908664371E+01  0.33016099499E+03  0.37113666343E+03  0.12499983053E+03 0.  0.
          2    1    1    2  501    0  0.25190427056E+02  0.35040878806E+02 -0.24806988428E+03  0.25179572730E+03  0.00000000000E+00 0. -1.
          1    1    1    2  502    0  0.89200419488E+02 -0.29950012368E+02  0.18769162217E+04  0.18792733226E+04  0.00000000000E+00 0. -1.
         22    1    3    3    0    0  0.66477533488E+01  0.39362709062E+02  0.64866942452E+02  0.76166499935E+02  0.00000000000E+00 0. -1.
         22    1    3    3    0    0 -0.12103859989E+03 -0.44453575499E+02  0.26529405254E+03  0.29497016349E+03  0.00000000000E+00 0. -1.
</event>
<event>
 7    1  0.6105960E-006  0.1404497E+03  0.7818608E-02  0.1240511E+00
          2   -1    0    0  502    0  0.00000000000E+00  0.00000000000E+00  0.83751316116E+02  0.83751316116E+02  0.00000000000E+00 0. -1.
          1   -1    0    0  501    0 -0.00000000000E+00 -0.00000000000E+00 -0.10840586549E+04  0.10840586549E+04  0.00000000000E+00 0. -1.
         25    2    1    2    0    0  0.32651963282E+02 -0.51387355395E+01 -0.13629951741E+03  0.18786955758E+03  0.12499941964E+03 0.  0.
          2    1    1    2  501    0  0.13002599451E+03  0.53097742778E+02 -0.77649184515E+03  0.78909170261E+03  0.00000000000E+00 0. -1.
          1    1    1    2  502    0 -0.16267795779E+03 -0.47959007238E+02 -0.87515976216E+02  0.19084871082E+03  0.00000000000E+00 0. -1.
         22    1    3    3    0    0  0.39068367579E+02  0.22860770157E+02 -0.14953919779E+03  0.15623995594E+03  0.00000000000E+00 0. -1.
         22    1    3    3    0    0 -0.64164042971E+01 -0.27999505696E+02  0.13239680381E+02  0.31629601640E+02  0.00000000000E+00 0. -1.
</event>
<event>
 7    1  0.8255771E-006  0.7041790E+02  0.7818608E-02  0.1376936E+00
          2   -1    0    0  502    0  0.00000000000E+00  0.00000000000E+00  0.17215849076E+04  0.17215849076E+04  0.00000000000E+00 0. -1.
          1   -1    0    0  501    0 -0.00000000000E+00 -0.00000000000E+00 -0.34230340903E+03  0.34230340903E+03  0.00000000000E+00 0. -1.
         25    2    1    2    0    0  0.15227921539E+02  0.68279294488E+01 -0.53627307476E+02  0.13703911994E+03  0.12500128828E+03 0.  0.
          2    1    1    2  501    0  0.87487859627E+01  0.59873942054E+02 -0.24250323289E+03  0.24993848875E+03  0.00000000000E+00 0. -1.
          1    1    1    2  502    0 -0.23976707502E+02 -0.66701871503E+02  0.16754120390E+04  0.16769107080E+04  0.00000000000E+00 0. -1.
         22    1    3    3    0    0  0.53640280103E+02 -0.27224325412E+02  0.34770157885E+01  0.60253905952E+02  0.00000000000E+00 0.  1.
         22    1    3    3    0    0 -0.38412358563E+02  0.34052254861E+02 -0.57104323264E+02  0.76785213987E+02  0.00000000000E+00 0.  1.
</event>
<event>
 7    1  0.6105960E-006  0.1141138E+03  0.7818608E-02  0.1422973E+00
          2   -1    0    0  502    0  0.00000000000E+00  0.00000000000E+00  0.41019182421E+03  0.41019182421E+03  0.00000000000E+00 0. -1.
          1   -1    0    0  501    0 -0.00000000000E+00 -0.00000000000E+00 -0.19071833134E+04  0.19071833134E+04  0.00000000000E+00 0. -1.
         25    2    1    2    0    0  0.90026290961E+02  0.22250672740E+02 -0.29889974697E+02  0.15848737488E+03  0.12500004763E+03 0.  0.
          2    1    1    2  501    0  0.25220413669E+02 -0.60261165305E+01 -0.18031088767E+04  0.18032953182E+04  0.00000000000E+00 0. -1.
          1    1    1    2  502    0 -0.11524670463E+03 -0.16224556209E+02  0.33600736222E+03  0.35559244454E+03  0.00000000000E+00 0. -1.
         22    1    3    3    0    0  0.49016021005E+02 -0.49899548005E+02  0.94555654216E+00  0.69953050566E+02  0.00000000000E+00 0. -1.
         22    1    3    3    0    0  0.41010269956E+02  0.72150220745E+02 -0.30835531239E+02  0.88534324317E+02  0.00000000000E+00 0. -1.
</event>
<event>
 7    1  0.6105960E-006  0.3240234E+02  0.7818608E-02  0.1594356E+00
          2   -1    0    0  502    0  0.00000000000E+00  0.00000000000E+00  0.43227580454E+03  0.43227580454E+03  0.00000000000E+00 0. -1.
          1   -1    0    0  501    0 -0.00000000000E+00 -0.00000000000E+00 -0.46161390993E+03  0.46161390993E+03  0.00000000000E+00 0. -1.
         25    2    1    2    0    0 -0.57742990007E+02 -0.16196377258E+02 -0.36626637474E+02  0.14339851587E+03  0.12500019299E+03 0.  0.
          2    1    1    2  501    0  0.31672414185E+02  0.49076634782E+01 -0.37037573455E+03  0.37175988450E+03  0.00000000000E+00 0. -1.
          1    1    1    2  502    0  0.26070575822E+02  0.11288713780E+02  0.37766426664E+03  0.37873131410E+03  0.00000000000E+00 0. -1.
         22    1    3    3    0    0 -0.51028114155E+02 -0.13750262538E+02  0.40100081288E+02  0.66339691538E+02  0.00000000000E+00 0.  1.
         22    1    3    3    0    0 -0.67148758528E+01 -0.24461147197E+01 -0.76726718762E+02  0.77058824328E+02  0.00000000000E+00 0.  1.
</event>
<event>
 7    1  0.6105960E-006  0.8272338E+02  0.7818608E-02  0.1380687E+00
          2   -1    0    0  502    0  0.00000000000E+00  0.00000000000E+00  0.83897725055E+03  0.83897725055E+03  0.00000000000E+00 0. -1.
          1   -1    0    0  501    0 -0.00000000000E+00 -0.00000000000E+00 -0.19976964724E+03  0.19976964724E+03  0.00000000000E+00 0. -1.
         25    2    1    2    0    0  0.12403329001E+03  0.35893712185E+02  0.17313332007E+03  0.24954481294E+03  0.12499940616E+03 0.  0.
          2    1    1    2  501    0 -0.46184252336E+02 -0.19037111375E+02 -0.15509775967E+03  0.16294389165E+03  0.00000000000E+00 0. -1.
          1    1    1    2  502    0 -0.77849037672E+02 -0.16856600811E+02  0.62117204290E+03  0.62625819319E+03  0.00000000000E+00 0. -1.
         22    1    3    3    0    0  0.14587881209E+03  0.10556742787E+02  0.14110629316E+03  0.20323153940E+03  0.00000000000E+00 0.  1.
         22    1    3    3    0    0 -0.21845522083E+02  0.25336969398E+02  0.32027026909E+02  0.46313273540E+02  0.00000000000E+00 0.  1.
</event>
<event>
 7    1  0.6105960E-006  0.5998892E+02  0.7818608E-02  0.1419632E+00
          2   -1    0    0  502    0  0.00000000000E+00  0.00000000000E+00  0.12103484298E+04  0.12103484298E+04  0.00000000000E+00 0. -1.
          1   -1    0    0  501    0 -0.00000000000E+00 -0.00000000000E+00 -0.35700945680E+03  0.35700945680E+03  0.00000000000E+00 0. -1.
         25    2    1    2    0    0 -0.11571893235E+02 -0.19954850012E+00  0.11363878857E+03  0.16933326691E+03  0.12500412986E+03 0.  0.
          2    1    1    2  501    0 -0.46905932307E+02 -0.18998712488E+02 -0.32632411685E+03  0.33022499420E+03  0.00000000000E+00 0. -1.
          1    1    1    2  502    0  0.58477825542E+02  0.19198260988E+02  0.10660243013E+04  0.10677996255E+04  0.00000000000E+00 0. -1.
         22    1    3    3    0    0  0.23978793957E+02 -0.45380638220E+02  0.96569592379E+02  0.10936210979E+03  0.00000000000E+00 0. -1.
         22    1    3    3    0    0 -0.35550687191E+02  0.45181089720E+02  0.17069196196E+02  0.59971157124E+02  0.00000000000E+00 0. -1.
</event>
<event>
 7    1  0.6105960E-006  0.1209826E+03  0.7818608E-02  0.1303474E+00
          2   -1    0    0  502    0  0.00000000000E+00  0.00000000000E+00  0.32247592324E+03  0.32247592324E+03  0.00000000000E+00 0. -1.
          1   -1    0    0  501    0 -0.00000000000E+00 -0.00000000000E+00 -0.11691028389E+04  0.11691028389E+04  0.00000000000E+00 0. -1.
         25    2    1    2    0    0 -0.15902396041E+03  0.63202662306E+02  0.20150164190E+02  0.21287097721E+03  0.12499930926E+03 0.  0.
          2    1    1    2  501    0  0.66524546638E+02  0.24851336468E+01 -0.10559915782E+04  0.10580878529E+04  0.00000000000E+00 0. -1.
          1    1    1    2  502    0  0.92499413769E+02 -0.65687795953E+02  0.18921449828E+03  0.22061993211E+03  0.00000000000E+00 0. -1.
         22    1    3    3    0    0 -0.55603381464E+01  0.57691926135E+02 -0.24656084653E+00  0.57959783417E+02  0.00000000000E+00 0. -1.
         22    1    3    3    0    0 -0.15346362226E+03  0.55107361709E+01  0.20396725036E+02  0.15491119379E+03  0.00000000000E+00 0. -1.
</event>
<event>
 7    1  0.6105960E-006  0.6878773E+03  0.7818608E-02  0.1224053E+00
          2   -1    0    0  502    0  0.00000000000E+00  0.00000000000E+00  0.18928617695E+04  0.18928617695E+04  0.00000000000E+00 0. -1.
          1   -1    0    0  501    0 -0.00000000000E+00 -0.00000000000E+00 -0.17020341595E+04  0.17020341595E+04  0.00000000000E+00 0. -1.
         25    2    1    2    0    0 -0.32063247634E+03  0.61702271277E+03 -0.66084472201E+03  0.96740027596E+03  0.12500133742E+03 0.  0.
          2    1    1    2  501    0  0.25207225038E+02  0.35303232893E+01 -0.81982208104E+03  0.82021711268E+03  0.00000000000E+00 0. -1.
          1    1    1    2  502    0  0.29542525130E+03 -0.62055303606E+03  0.16714944130E+04  0.18072785403E+04  0.00000000000E+00 0. -1.
         22    1    3    3    0    0 -0.86273207592E+02  0.24535803818E+03 -0.31326219217E+03  0.40715701430E+03  0.00000000000E+00 0. -1.
         22    1    3    3    0    0 -0.23435926875E+03  0.37166467459E+03 -0.34758252984E+03  0.56024326166E+03  0.00000000000E+00 0. -1.
</event>
<event>
 7    1  0.6105960E-006  0.6574724E+02  0.7818608E-02  0.1468440E+00
          2   -1    0    0  502    0  0.00000000000E+00  0.00000000000E+00  0.10475878455E+04  0.10475878455E+04  0.00000000000E+00 0. -1.
          1   -1    0    0  501    0 -0.00000000000E+00 -0.00000000000E+00 -0.43135052092E+03  0.43135052092E+03  0.00000000000E+00 0. -1.
         25    2    1    2    0    0  0.11878901180E+02 -0.91839143925E+02  0.55740726528E+03  0.57870737725E+03  0.12499532970E+03 0.  0.
          2    1    1    2  501    0  0.74515705825E-01  0.32127022047E+02 -0.41814842871E+03  0.41938080492E+03  0.00000000000E+00 0. -1.
          1    1    1    2  502    0 -0.11953416886E+02  0.59712121879E+02  0.47697848798E+03  0.48085018423E+03  0.00000000000E+00 0. -1.
         22    1    3    3    0    0 -0.34614002834E+02 -0.96167780213E+02  0.45214761699E+03  0.46355564790E+03  0.00000000000E+00 0.  1.
         22    1    3    3    0    0  0.46492904015E+02  0.43286362876E+01  0.10525964828E+03  0.11515172935E+03  0.00000000000E+00 0.  1.
</event>
<event>
 7    1  0.6105960E-006  0.1741757E+03  0.7818608E-02  0.1331183E+00
          2   -1    0    0  502    0  0.00000000000E+00  0.00000000000E+00  0.29928659563E+03  0.29928659563E+03  0.00000000000E+00 0. -1.
          1   -1    0    0  501    0 -0.00000000000E+00 -0.00000000000E+00 -0.16290374856E+04  0.16290374856E+04  0.00000000000E+00 0. -1.
         25    2    1    2    0    0  0.30415102511E+02 -0.13841234344E+03 -0.79462238032E+03  0.81678076355E+03  0.12499213227E+03 0.  0.
          2    1    1    2  501    0 -0.72764805539E+01 -0.35320455879E+02 -0.79624386096E+03  0.79706007796E+03  0.00000000000E+00 0. -1.
          1    1    1    2  502    0 -0.23138621957E+02  0.17373279931E+03  0.26111535130E+03  0.31448323972E+03  0.00000000000E+00 0. -1.
         22    1    3    3    0    0 -0.12518262782E+00 -0.47989555777E+02 -0.64224069079E+02  0.80173213628E+02  0.00000000000E+00 0.  1.
         22    1    3    3    0    0  0.30540285139E+02 -0.90422787658E+02 -0.73039831124E+03  0.73660754992E+03  0.00000000000E+00 0.  1.
</event>
<event>
 7    1  0.6105960E-006  0.1025594E+03  0.7818608E-02  0.1358932E+00
          2   -1    0    0  502    0  0.00000000000E+00  0.00000000000E+00  0.23271726642E+04  0.23271726642E+04  0.00000000000E+00 0. -1.
          1   -1    0    0  501    0 -0.00000000000E+00 -0.00000000000E+00 -0.40391989032E+02  0.40391989032E+02  0.00000000000E+00 0. -1.
         25    2    1    2    0    0 -0.65930354761E+02  0.18942984003E+02  0.94905665885E+03  0.95970792094E+03  0.12500041391E+03 0.  0.
          2    1    1    2  501    0  0.10543158697E+03  0.87578622594E+01  0.46217628655E+02  0.11544950793E+03  0.00000000000E+00 0. -1.
          1    1    1    2  502    0 -0.39501232207E+02 -0.27700846262E+02  0.12915063877E+04  0.12924072244E+04  0.00000000000E+00 0. -1.
         22    1    3    3    0    0  0.31097278667E+02  0.88902255794E+01  0.45287859468E+03  0.45403204554E+03  0.00000000000E+00 0.  1.
         22    1    3    3    0    0 -0.97027633428E+02  0.10052758423E+02  0.49617806417E+03  0.50567587540E+03  0.00000000000E+00 0.  1.
</event>
<event>
 7    1  0.6105960E-006  0.6552530E+02  0.7818608E-02  0.1509175E+00
          2   -1    0    0  502    0  0.00000000000E+00  0.00000000000E+00  0.33402817299E+03  0.33402817299E+03  0.00000000000E+00 0. -1.
          1   -1    0    0  501    0 -0.00000000000E+00 -0.00000000000E+00 -0.81972257250E+03  0.81972257250E+03  0.00000000000E+00 0. -1.
         25    2    1    2    0    0 -0.39760329257E+02  0.72323410881E+02 -0.28025269416E+03  0.31777071036E+03  0.12500036893E+03 0.  0.
          2    1    1    2  501    0  0.22399573586E+02 -0.93137549921E+01 -0.51703614582E+03  0.51760492947E+03  0.00000000000E+00 0. -1.
          1    1    1    2  502    0  0.17360755671E+02 -0.63009655889E+02  0.31159444047E+03  0.31837510566E+03  0.00000000000E+00 0. -1.
         22    1    3    3    0    0 -0.38970130184E+02  0.10356715989E+03 -0.25361810429E+03  0.27670737337E+03  0.00000000000E+00 0.  1.
         22    1    3    3    0    0 -0.79019907218E+00 -0.31243749013E+02 -0.26634589875E+02  0.41063336990E+02  0.00000000000E+00 0.  1.
</event>
<event>
 7    1  0.6105960E-006  0.4821211E+03  0.7818608E-02  0.1237222E+00
          2   -1    0    0  502    0  0.00000000000E+00  0.00000000000E+00  0.29215737153E+04  0.29215737153E+04  0.00000000000E+00 0. -1.
          1   -1    0    0  501    0 -0.00000000000E+00 -0.00000000000E+00 -0.20373959594E+04  0.20373959594E+04  0.00000000000E+00 0. -1.
         25    2    1    2    0    0 -0.86822239419E+02  0.46533296116E+03 -0.50826712184E+03  0.70571538495E+03  0.12500348563E+03 0.  0.
          2    1    1    2  501    0  0.28640581110E+02  0.13595871316E+02 -0.14096114246E+04  0.14099679071E+04  0.00000000000E+00 0. -1.
          1    1    1    2  502    0  0.58181658309E+02 -0.47892883247E+03  0.28020563024E+04  0.28432863826E+04  0.00000000000E+00 0. -1.
         22    1    3    3    0    0 -0.12013697007E+02  0.84299884321E+02 -0.17249670369E+03  0.19236920803E+03  0.00000000000E+00 0. -1.
         22    1    3    3    0    0 -0.74808542412E+02  0.38103307684E+03 -0.33577041815E+03  0.51334617692E+03  0.00000000000E+00 0. -1.
</event>
<event>
 7    1  0.6105960E-006  0.5800779E+02  0.7818608E-02  0.1472317E+00
          2   -1    0    0  502    0  0.00000000000E+00  0.00000000000E+00  0.20642724043E+04  0.20642724043E+04  0.00000000000E+00 0. -1.
          1   -1    0    0  501    0 -0.00000000000E+00 -0.00000000000E+00 -0.57252379381E+02  0.57252379381E+02  0.00000000000E+00 0. -1.
         25    2    1    2    0    0  0.35896980610E+02  0.84671658235E+02  0.16083678503E+04  0.16158374698E+04  0.12500281643E+03 0.  0.
          2    1    1    2  501    0 -0.15881483156E+02 -0.55453134931E+02 -0.37044601808E+02  0.68553440497E+02  0.00000000000E+00 0. -1.
          1    1    1    2  502    0 -0.20015497454E+02 -0.29218523304E+02  0.43569677647E+03  0.43713387340E+03  0.00000000000E+00 0. -1.
         22    1    3    3    0    0  0.25521596129E+02  0.11437196464E+03  0.14231762867E+04  0.14279926615E+04  0.00000000000E+00 0.  1.
         22    1    3    3    0    0  0.10375384481E+02 -0.29700306401E+02  0.18519156355E+03  0.18784480832E+03  0.00000000000E+00 0.  1.
</event>
<event>
 7    1  0.6105960E-006  0.2384010E+03  0.7818608E-02  0.1312839E+00
          2   -1    0    0  502    0  0.00000000000E+00  0.00000000000E+00  0.26934935481E+04  0.26934935481E+04  0.00000000000E+00 0. -1.
          1   -1    0    0  501    0 -0.00000000000E+00 -0.00000000000E+00 -0.70957887898E+03  0.70957887898E+03  0.00000000000E+00 0. -1.
         25    2    1    2    0    0  0.37411934897E+02 -0.20448901940E+03  0.12718416760E+04  0.12947680838E+04  0.12501091924E+03 0.  0.
          2    1    1    2  501    0 -0.41844473490E+02  0.23519378040E+03 -0.67750136566E+03  0.71838372391E+03  0.00000000000E+00 0. -1.
          1    1    1    2  502    0  0.44325385935E+01 -0.30704760999E+02  0.13895743587E+04  0.13899206194E+04  0.00000000000E+00 0. -1.
         22    1    3    3    0    0  0.76075097166E+02 -0.16938842567E+03  0.10846270191E+04  0.11004070292E+04  0.00000000000E+00 0.  1.
         22    1    3    3    0    0 -0.38663162269E+02 -0.35100593725E+02  0.18721465688E+03  0.19436105460E+03  0.00000000000E+00 0.  1.
</event>
<event>
 7    1  0.6105960E-006  0.1105847E+03  0.7818608E-02  0.1379612E+00
          2   -1    0    0  502    0  0.00000000000E+00  0.00000000000E+00  0.71944280420E+03  0.71944280420E+03  0.00000000000E+00 0. -1.
          1   -1    0    0  501    0 -0.00000000000E+00 -0.00000000000E+00 -0.34160998093E+03  0.34160998093E+03  0.00000000000E+00 0. -1.
         25    2    1    2    0    0 -0.20958188211E+02 -0.78718580882E+02  0.17686614856E+03  0.23139111569E+03  0.12499741312E+03 0.  0.
          2    1    1    2  501    0  0.33766139115E+01  0.11206510363E+03 -0.30362509195E+03  0.32366369187E+03  0.00000000000E+00 0. -1.
          1    1    1    2  502    0  0.17581574299E+02 -0.33346522743E+02  0.50459176666E+03  0.50599797758E+03  0.00000000000E+00 0. -1.
         22    1    3    3    0    0 -0.70955755677E+02 -0.33699753340E+02  0.11933732483E+03  0.14286983494E+03  0.00000000000E+00 0.  1.
         22    1    3    3    0    0  0.49997567466E+02 -0.45018827542E+02  0.57528823727E+02  0.88521280748E+02  0.00000000000E+00 0.  1.
</event>
<event>
 7    1  0.6105960E-006  0.1476087E+03  0.7818608E-02  0.1354084E+00
          2   -1    0    0  502    0  0.00000000000E+00  0.00000000000E+00  0.16443959746E+04  0.16443959746E+04  0.00000000000E+00 0. -1.
          1   -1    0    0  501    0 -0.00000000000E+00 -0.00000000000E+00 -0.11682266052E+03  0.11682266052E+03  0.00000000000E+00 0. -1.
         25    2    1    2    0    0 -0.14068386953E+03  0.15811946538E+02  0.98685023798E+03  0.10047581737E+04  0.12499450664E+03 0.  0.
          2    1    1    2  501    0  0.13916440962E+03 -0.50701913740E+02 -0.56273859508E+02  0.15844293681E+03  0.00000000000E+00 0. -1.
          1    1    1    2  502    0  0.15194599093E+01  0.34889967202E+02  0.59699693560E+03  0.59801752456E+03  0.00000000000E+00 0. -1.
         22    1    3    3    0    0 -0.27646356251E+02 -0.22764177135E+02  0.57028091365E+03  0.57140427829E+03  0.00000000000E+00 0. -1.
         22    1    3    3    0    0 -0.11303751328E+03  0.38576123673E+02  0.41656932433E+03  0.43335389545E+03  0.00000000000E+00 0. -1.
</event>
<event>
 7    1  0.6105960E-006  0.8266630E+02  0.7818608E-02  0.1372429E+00
          2   -1    0    0  502    0  0.00000000000E+00  0.00000000000E+00  0.49814828713E+03  0.49814828713E+03  0.00000000000E+00 0. -1.
          1   -1    0    0  501    0 -0.00000000000E+00 -0.00000000000E+00 -0.10953915033E+04  0.10953915033E+04  0.00000000000E+00 0. -1.
         25    2    1    2    0    0 -0.49022089640E+01  0.32489394232E+02  0.67852884652E+01  0.12942212739E+03  0.12499781809E+03 0.  0.
          2    1    1    2  501    0 -0.14535705107E+02  0.51476552718E+02 -0.10290532579E+04  0.10304424923E+04  0.00000000000E+00 0. -1.
          1    1    1    2  502    0  0.19437914071E+02 -0.83965946950E+02  0.42502475334E+03  0.43367517073E+03  0.00000000000E+00 0. -1.
         22    1    3    3    0    0 -0.58123335497E+02  0.39730690244E+02  0.21709093108E+02  0.73675875293E+02  0.00000000000E+00 0.  1.
         22    1    3    3    0    0  0.53221126533E+02 -0.72412960126E+01 -0.14923804643E+02  0.55746252093E+02  0.00000000000E+00 0.  1.
</event>
<event>
 7    1  0.6105960E-006  0.4517352E+02  0.7818608E-02  0.1543457E+00
          2   -1    0    0  502    0  0.00000000000E+00  0.00000000000E+00  0.10895568569E+04  0.10895568569E+04  0.00000000000E+00 0. -1.
          1   -1    0    0  501    0 -0.00000000000E+00 -0.00000000000E+00 -0.41731682810E+03  0.41731682810E+03  0.00000000000E+00 0. -1.
         25    2    1    2    0    0 -0.24058707764E+01  0.26501782606E+02  0.26215692942E+02  0.13046464191E+03  0.12500251012E+03 0.  0.
          2    1    1    2  501    0  0.29083311820E+02 -0.35114905999E+02 -0.36357388124E+03  0.36642170073E+03  0.00000000000E+00 0. -1.
          1    1    1    2  502    0 -0.26677441044E+02  0.86131233933E+01  0.10095982171E+04  0.10099873424E+04  0.00000000000E+00 0. -1.
         22    1    3    3    0    0  0.51697203723E+02  0.17223048267E+02 -0.20664549921E+02  0.58277421768E+02  0.00000000000E+00 0. -1.
         22    1    3    3    0    0 -0.54103074500E+02  0.92787343394E+01  0.46880242863E+02  0.72187220145E+02  0.00000000000E+00 0. -1.
</event>
<event>
 7    1  0.6105960E-006  0.1766193E+03  0.7818608E-02  0.1357565E+00
          2   -1    0    0  502    0  0.00000000000E+00  0.00000000000E+00  0.16835863766E+04  0.16835863766E+04  0.00000000000E+00 0. -1.
          1   -1    0    0  501    0 -0.00000000000E+00 -0.00000000000E+00 -0.88037853723E+03  0.88037853723E+03  0.00000000000E+00 0. -1.
         25    2    1    2    0    0 -0.12452816347E+03  0.98065484806E+02  0.12200534719E+03  0.23586961402E+03  0.12500026907E+03 0.  0.
          2    1    1    2  501    0  0.15214737273E+03 -0.91714156767E+02 -0.81372876492E+03  0.83289543908E+03  0.00000000000E+00 0. -1.
          1    1    1    2  502    0 -0.27619209267E+02 -0.63513280383E+01  0.14949312571E+04  0.14951998607E+04  0.00000000000E+00 0. -1.
         22    1    3    3    0    0 -0.20179489393E+02  0.44549134048E+02 -0.19002860954E+02  0.52468522573E+02  0.00000000000E+00 0. -1.
         22    1    3    3    0    0 -0.10434867407E+03  0.53516350758E+02  0.14100820814E+03  0.18340109144E+03  0.00000000000E+00 0. -1.
</event>
<event>
 7    1  0.6105960E-006  0.7272449E+02  0.7818608E-02  0.1440169E+00
          2   -1    0    0  502    0  0.00000000000E+00  0.00000000000E+00  0.23387963060E+04  0.23387963060E+04  0.00000000000E+00 0. -1.
          1   -1    0    0  501    0 -0.00000000000E+00 -0.00000000000E+00 -0.18350077275E+02  0.18350077275E+02  0.00000000000E+00 0. -1.
         25    2    1    2    0    0  0.60210931231E+02 -0.31137534446E+02  0.80651617308E+03  0.81895575719E+03  0.12500116999E+03 0.  0.
          2    1    1    2  501    0  0.14324435441E+02  0.32728105394E+02  0.17280586128E+02  0.39685475810E+02  0.00000000000E+00 0. -1.
          1    1    1    2  502    0 -0.74535366671E+02 -0.15905709473E+01  0.14966494695E+04  0.14985051503E+04  0.00000000000E+00 0. -1.
         22    1    3    3    0    0  0.46931676695E+02 -0.27187432005E+02  0.80277508433E+03  0.80460522914E+03  0.00000000000E+00 0.  1.
         22    1    3    3    0    0  0.13279254536E+02 -0.39501024411E+01  0.37410887538E+01  0.14350528053E+02  0.00000000000E+00 0.  1.
</event>
<event>
 7    1  0.6105960E-006  0.6881388E+02  0.7818608E-02  0.1509323E+00
          2   -1    0    0  502    0  0.00000000000E+00  0.00000000000E+00  0.20502901155E+03  0.20502901155E+03  0.00000000000E+00 0. -1.
          1   -1    0    0  501    0 -0.00000000000E+00 -0.00000000000E+00 -0.32361395558E+03  0.32361395558E+03  0.00000000000E+00 0. -1.
         25    2    1    2    0    0  0.52438942560E+02  0.77753792962E+01 -0.20163768981E+03  0.24309033758E+03  0.12499942021E+03 0.  0.
          2    1    1    2  501    0  0.16376538132E+02 -0.16257986352E+02 -0.93272463206E+02  0.96084678872E+02  0.00000000000E+00 0. -1.
          1    1    1    2  502    0 -0.68815480692E+02  0.84826070557E+01  0.17632520899E+03  0.18946795067E+03  0.00000000000E+00 0. -1.
         22    1    3    3    0    0  0.55594055241E+02  0.56931041547E+02 -0.84767785823E+02  0.11626443989E+03  0.00000000000E+00 0.  1.
         22    1    3    3    0    0 -0.31551126801E+01 -0.49155662251E+02 -0.11686990399E+03  0.12682589769E+03  0.00000000000E+00 0.  1.
</event>
<event>
 7    1  0.6105960E-006  0.7565955E+02  0.7818608E-02  0.1400235E+00
          2   -1    0    0  502    0  0.00000000000E+00  0.00000000000E+00  0.11522460031E+04  0.11522460031E+04  0.00000000000E+00 0. -1.
          1   -1    0    0  501    0 -0.00000000000E+00 -0.00000000000E+00 -0.24447521488E+03  0.24447521488E+03  0.00000000000E+00 0. -1.
         25    2    1    2    0    0 -0.53660124626E+02  0.45355901438E+01 -0.62828069435E+02  0.14990410463E+03  0.12499557481E+03 0.  0.
          2    1    1    2  501    0  0.75516318412E+02  0.36715343430E+02 -0.12480289181E+03  0.15042105104E+03  0.00000000000E+00 0. -1.
          1    1    1    2  502    0 -0.21856193786E+02 -0.41250933574E+02  0.10954017494E+04  0.10963960623E+04  0.00000000000E+00 0. -1.
         22    1    3    3    0    0 -0.54055747771E+02  0.26827914038E+02 -0.93924666384E+02  0.11164051144E+03  0.00000000000E+00 0. -1.
         22    1    3    3    0    0  0.39562314495E+00 -0.22292323894E+02  0.31096596948E+02  0.38263593193E+02  0.00000000000E+00 0. -1.
</event>
<event>
 7    1  0.6105960E-006  0.1578286E+03  0.7818608E-02  0.1229054E+00
          2   -1    0    0  502    0  0.00000000000E+00  0.00000000000E+00  0.99057953384E+03  0.99057953384E+03  0.00000000000E+00 0. -1.
          1   -1    0    0  501    0 -0.00000000000E+00 -0.00000000000E+00 -0.14712101909E+04  0.14712101909E+04  0.00000000000E+00 0. -1.
         25    2    1    2    0    0 -0.68040742603E+02  0.39536200367E+02  0.41021390712E+03  0.43599727297E+03  0.12500207459E+03 0.  0.
          2    1    1    2  501    0  0.15806840812E+03  0.15121352852E+02 -0.14490569777E+04  0.14577312515E+04  0.00000000000E+00 0. -1.
          1    1    1    2  502    0 -0.90027665521E+02 -0.54657553219E+02  0.55821241351E+03  0.56806120029E+03  0.00000000000E+00 0. -1.
         22    1    3    3    0    0 -0.62964699989E+02  0.18571329130E+02  0.73321025662E+02  0.98414534061E+02  0.00000000000E+00 0.  1.
         22    1    3    3    0    0 -0.50760426145E+01  0.20964871237E+02  0.33689288146E+03  0.33758273891E+03  0.00000000000E+00 0.  1.
</event>
<event>
 7    1  0.6105960E-006  0.1341681E+03  0.7818608E-02  0.1376206E+00
          2   -1    0    0  502    0  0.00000000000E+00  0.00000000000E+00  0.16168574133E+03  0.16168574133E+03  0.00000000000E+00 0. -1.
          1   -1    0    0  501    0 -0.00000000000E+00 -0.00000000000E+00 -0.29970065586E+03  0.29970065586E+03  0.00000000000E+00 0. -1.
         25    2    1    2    0    0 -0.56126260091E+02 -0.11536591407E+03 -0.16978665671E+03  0.24680469590E+03  0.12500239167E+03 0.  0.
          2    1    1    2  501    0  0.36293835658E+02  0.14041430311E+03 -0.27156594415E+02  0.14754965145E+03  0.00000000000E+00 0. -1.
          1    1    1    2  502    0  0.19832424433E+02 -0.25048389039E+02  0.58928336589E+02  0.67032049838E+02  0.00000000000E+00 0. -1.
         22    1    3    3    0    0 -0.85127390368E+02 -0.73873960056E+02 -0.64209618202E+02  0.12971857860E+03  0.00000000000E+00 0. -1.
         22    1    3    3    0    0  0.29001130277E+02 -0.41491954011E+02 -0.10557703851E+03  0.11708611730E+03  0.00000000000E+00 0. -1.
</event>
<event>
 7    1  0.6105960E-006  0.7941794E+02  0.7818608E-02  0.1485566E+00
          2   -1    0    0  502    0  0.00000000000E+00  0.00000000000E+00  0.13145827493E+04  0.13145827493E+04  0.00000000000E+00 0. -1.
          1   -1    0    0  501    0 -0.00000000000E+00 -0.00000000000E+00 -0.70425606257E+03  0.70425606257E+03  0.00000000000E+00 0. -1.
         25    2    1    2    0    0 -0.72763936335E+02  0.45559558874E+02  0.27279587474E+03  0.31211540696E+03  0.12501269596E+03 0.  0.
          2    1    1    2  501    0  0.76208524797E+02 -0.22258370221E+02 -0.68215804761E+03  0.68676253262E+03  0.00000000000E+00 0. -1.
          1    1    1    2  502    0 -0.34445884624E+01 -0.23301188653E+02  0.10196888596E+04  0.10199608723E+04  0.00000000000E+00 0. -1.
         22    1    3    3    0    0  0.29141074602E+02  0.27254747038E+02  0.12825695508E+03  0.13432002826E+03  0.00000000000E+00 0. -1.
         22    1    3    3    0    0 -0.10190501094E+03  0.18304811836E+02  0.14453891965E+03  0.17779537869E+03  0.00000000000E+00 0. -1.
</event>
<event>
 7    1  0.6105960E-006  0.1433380E+03  0.7818608E-02  0.1290543E+00
          2   -1    0    0  502    0  0.00000000000E+00  0.00000000000E+00  0.79261631218E+03  0.79261631218E+03  0.00000000000E+00 0. -1.
          1   -1    0    0  501    0 -0.00000000000E+00 -0.00000000000E+00 -0.37927893694E+03  0.37927893694E+03  0.00000000000E+00 0. -1.
         25    2    1    2    0    0  0.10092598473E+03 -0.17638873979E+03 -0.14216246837E+02  0.23901115883E+03  0.12500076181E+03 0.  0.
          2    1    1    2  501    0 -0.30027160874E+02  0.55766876695E+02 -0.24134058227E+03  0.24951322926E+03  0.00000000000E+00 0. -1.
          1    1    1    2  502    0 -0.70898823857E+02  0.12062186309E+03  0.66889420436E+03  0.68337086103E+03  0.00000000000E+00 0. -1.
         22    1    3    3    0    0  0.32412698826E+02 -0.97689693839E+02 -0.66258397134E+02  0.12240929098E+03  0.00000000000E+00 0. -1.
         22    1    3    3    0    0  0.68513285905E+02 -0.78699045946E+02  0.52042150297E+02  0.11660186785E+03  0.00000000000E+00 0. -1.
</event>
<event>
 7    1  0.6105960E-006  0.2217382E+03  0.7818608E-02  0.1336772E+00
          2   -1    0    0  502    0  0.00000000000E+00  0.00000000000E+00  0.16520444250E+03  0.16520444250E+03  0.00000000000E+00 0. -1.
          1   -1    0    0  501    0 -0.00000000000E+00 -0.00000000000E+00 -0.11814952277E+04  0.11814952277E+04  0.00000000000E+00 0. -1.
         25    2    1    2    0    0 -0.18937461928E+03 -0.77893604634E+02 -0.59230423457E+03  0.63904178918E+03  0.12497976620E+03 0.  0.
          2    1    1    2  501    0 -0.98624792741E+01 -0.25108336513E+02 -0.47653420608E+03  0.47729712614E+03  0.00000000000E+00 0. -1.
          1    1    1    2  502    0  0.19923709855E+03  0.10300194115E+03  0.52547655410E+02  0.23036075492E+03  0.00000000000E+00 0. -1.
         22    1    3    3    0    0 -0.70778790879E+01 -0.29403454776E+02 -0.21597326708E+03  0.21808051636E+03  0.00000000000E+00 0.  1.
         22    1    3    3    0    0 -0.18229674019E+03 -0.48490149858E+02 -0.37633096749E+03  0.42096127282E+03  0.00000000000E+00 0.  1.
</event>
<event>
 7    1  0.6105960E-006  0.1029001E+03  0.7818608E-02  0.1281926E+00
          2   -1    0    0  502    0  0.00000000000E+00  0.00000000000E+00  0.39623203430E+03  0.39623203430E+03  0.00000000000E+00 0. -1.
          1   -1    0    0  501    0 -0.00000000000E+00 -0.00000000000E+00 -0.99749563046E+03  0.99749563046E+03  0.00000000000E+00 0. -1.
         25    2    1    2    0    0  0.54757717007E+02  0.24482766904E+02  0.63420219926E+02  0.15245933833E+03  0.12499564833E+03 0.  0.
          2    1    1    2  501    0  0.29974067451E+02 -0.98437705725E+02 -0.93908896107E+03  0.94470974560E+03  0.00000000000E+00 0. -1.
          1    1    1    2  502    0 -0.84731784458E+02  0.73954938822E+02  0.27440514498E+03  0.29655858083E+03  0.00000000000E+00 0. -1.
         22    1    3    3    0    0  0.90110025235E+02  0.92402638242E+01  0.68582158896E+02  0.11361651131E+03  0.00000000000E+00 0.  1.
         22    1    3    3    0    0 -0.35352308228E+02  0.15242503079E+02 -0.51619389695E+01  0.38842827023E+02  0.00000000000E+00 0.  1.
</event>
<event>
 7    1  0.6105960E-006  0.6818570E+02  0.7818608E-02  0.1402814E+00
          2   -1    0    0  502    0  0.00000000000E+00  0.00000000000E+00  0.39118918442E+02  0.39118918442E+02  0.00000000000E+00 0. -1.
          1   -1    0    0  501    0 -0.00000000000E+00 -0.00000000000E+00 -0.10509211261E+04  0.10509211261E+04  0.00000000000E+00 0. -1.
         25    2    1    2    0    0 -0.32247556998E+02  0.18932728443E+02 -0.16897773497E+03  0.21348735342E+03  0.12500008806E+03 0.  0.
          2    1    1    2  501    0 -0.48194765603E+02  0.15918732782E+02 -0.73867977526E+03  0.74042146907E+03  0.00000000000E+00 0. -1.
          1    1    1    2  502    0  0.80442322600E+02 -0.34851461225E+02 -0.10414469744E+03  0.13613122206E+03  0.00000000000E+00 0. -1.
         22    1    3    3    0    0 -0.26870413275E+02 -0.13860938186E+01 -0.18507027217E+03  0.18701589773E+03  0.00000000000E+00 0.  1.
         22    1    3    3    0    0 -0.53771437231E+01  0.20318822261E+02  0.16092537196E+02  0.26471455686E+02  0.00000000000E+00 0.  1.
</event>
<event>
 7    1  0.6105960E-006  0.6784915E+02  0.7818608E-02  0.1518539E+00
          2   -1    0    0  502    0  0.00000000000E+00  0.00000000000E+00  0.16172335069E+04  0.16172335069E+04  0.00000000000E+00 0. -1.
          1   -1    0    0  501    0 -0.00000000000E+00 -0.00000000000E+00 -0.37315832891E+03  0.37315832891E+03  0.00000000000E+00 0. -1.
         25    2    1    2    0    0 -0.52497119726E+02  0.59558920441E+02  0.11830961733E+02  0.14855484420E+03  0.12500142998E+03 0.  0.
          2    1    1    2  501    0  0.55819758743E+02 -0.37816791429E+02 -0.30098786547E+03  0.30844715972E+03  0.00000000000E+00 0. -1.
          1    1    1    2  502    0 -0.33226390175E+01 -0.21742129012E+02  0.15332320818E+04  0.15333898319E+04  0.00000000000E+00 0. -1.
         22    1    3    3    0    0  0.39683251846E+02  0.20594982236E+02  0.18208392506E+02  0.48274831206E+02  0.00000000000E+00 0.  1.
         22    1    3    3    0    0 -0.92180371572E+02  0.38963938205E+02 -0.63774307730E+01  0.10028001300E+03  0.00000000000E+00 0.  1.
</event>
<event>
 7    1  0.6105960E-006  0.9312137E+02  0.7818608E-02  0.1368541E+00
          2   -1    0    0  502    0  0.00000000000E+00  0.00000000000E+00  0.57883598056E+03  0.57883598056E+03  0.00000000000E+00 0. -1.
          1   -1    0    0  501    0 -0.00000000000E+00 -0.00000000000E+00 -0.44083623385E+03  0.44083623385E+03  0.00000000000E+00 0. -1.
         25    2    1    2    0    0 -0.69505170180E+02 -0.39723563139E+01  0.15474474854E+03  0.21075557646E+03  0.12500091004E+03 0.  0.
          2    1    1    2  501    0 -0.16984146524E+02 -0.46000804489E+02 -0.40503075020E+03  0.40798828887E+03  0.00000000000E+00 0. -1.
          1    1    1    2  502    0  0.86489316704E+02  0.49973160803E+02  0.38828574837E+03  0.40092834908E+03  0.00000000000E+00 0. -1.
         22    1    3    3    0    0  0.26141020436E+01 -0.53861365110E+02  0.44695464649E+02  0.70039736873E+02  0.00000000000E+00 0. -1.
         22    1    3    3    0    0 -0.72119272224E+02  0.49889008796E+02  0.11004928389E+03  0.14071583958E+03  0.00000000000E+00 0. -1.
</event>
<event>
 7    1  0.6105960E-006  0.7625422E+02  0.7818608E-02  0.1372339E+00
          2   -1    0    0  502    0  0.00000000000E+00  0.00000000000E+00  0.23585319923E+04  0.23585319923E+04  0.00000000000E+00 0. -1.
          1   -1    0    0  501    0 -0.00000000000E+00 -0.00000000000E+00 -0.32040522159E+03  0.32040522159E+03  0.00000000000E+00 0. -1.
         25    2    1    2    0    0 -0.83920908170E+00 -0.12648720748E+03 -0.89725171594E+02  0.19918726334E+03  0.12500096612E+03 0.  0.
          2    1    1    2  501    0 -0.93402403112E+01  0.69356694071E+02 -0.16860911527E+03  0.18255581298E+03  0.00000000000E+00 0. -1.
          1    1    1    2  502    0  0.10179449393E+02  0.57130513406E+02  0.22964610576E+04  0.22971941376E+04  0.00000000000E+00 0. -1.
         22    1    3    3    0    0  0.37642493535E+02  0.74283501075E+01 -0.22553187742E+02  0.44505999395E+02  0.00000000000E+00 0. -1.
         22    1    3    3    0    0 -0.38481702617E+02 -0.13391555758E+03 -0.67171983852E+02  0.15468126394E+03  0.00000000000E+00 0. -1.
</event>
<event>
 7    1  0.6105960E-006  0.1235942E+03  0.7818608E-02  0.1425033E+00
          2   -1    0    0  502    0  0.00000000000E+00  0.00000000000E+00  0.54340141772E+03  0.54340141772E+03  0.00000000000E+00 0. -1.
          1   -1    0    0  501    0 -0.00000000000E+00 -0.00000000000E+00 -0.84010610602E+03  0.84010610602E+03  0.00000000000E+00 0. -1.
         25    2    1    2    0    0 -0.28756263636E+02 -0.12388547829E+03 -0.31560178143E+03  0.36249770551E+03  0.12500227052E+03 0.  0.
          2    1    1    2  501    0 -0.20963823759E+02  0.10767263128E+02 -0.49343019041E+03  0.49399268079E+03  0.00000000000E+00 0. -1.
          1    1    1    2  502    0  0.49720087395E+02  0.11311821516E+03  0.51232728354E+03  0.52701713744E+03  0.00000000000E+00 0. -1.
         22    1    3    3    0    0 -0.16443842572E+02 -0.34036434553E+02 -0.24410676206E+03  0.24701617381E+03  0.00000000000E+00 0.  1.
         22    1    3    3    0    0 -0.12312421064E+02 -0.89849043733E+02 -0.71495019361E+02  0.11548153171E+03  0.00000000000E+00 0.  1.
</event>
<event>
 7    1  0.6105960E-006  0.4103966E+03  0.7818608E-02  0.1221862E+00
          2   -1    0    0  502    0  0.00000000000E+00  0.00000000000E+00  0.23940769890E+04  0.23940769890E+04  0.00000000000E+00 0. -1.
          1   -1    0    0  501    0 -0.00000000000E+00 -0.00000000000E+00 -0.89534991174E+03  0.89534991174E+03  0.00000000000E+00 0. -1.
         25    2    1    2    0    0  0.24270432802E+03 -0.32228756542E+03  0.92949809538E+03  0.10209636701E+04  0.12500176265E+03 0.  0.
          2    1    1    2  501    0 -0.28040912108E+03  0.30029384497E+03 -0.79957776531E+03  0.89896066171E+03  0.00000000000E+00 0. -1.
          1    1    1    2  502    0  0.37704793056E+02  0.21993720445E+02  0.13688067472E+04  0.13695025690E+04  0.00000000000E+00 0. -1.
         22    1    3    3    0    0  0.64638831857E+02 -0.18630806251E+03  0.39815966488E+03  0.44431969512E+03  0.00000000000E+00 0. -1.
         22    1    3    3    0    0  0.17806549617E+03 -0.13597950291E+03  0.53133843050E+03  0.57664397496E+03  0.00000000000E+00 0. -1.
</event>
<event>
 7    1  0.6105960E-006  0.9783232E+02  0.7818608E-02  0.1384885E+00
          2   -1    0    0  502    0  0.00000000000E+00  0.00000000000E+00  0.68049927652E+03  0.68049927652E+03  0.00000000000E+00 0. -1.
          1   -1    0    0  501    0 -0.00000000000E+00 -0.00000000000E+00 -0.43965801121E+03  0.43965801121E+03  0.00000000000E+00 0. -1.
         25    2    1    2    0    0  0.63046293975E+02  0.11478950901E+03 -0.29546465934E+03  0.34652352911E+03  0.12501089850E+03 0.  0.
          2    1    1    2  501    0 -0.34692597537E+02 -0.21516707700E+02 -0.11139377709E+03  0.11863860505E+03  0.00000000000E+00 0. -1.
          1    1    1    2  502    0 -0.28353696438E+02 -0.93272801308E+02  0.64769970174E+03  0.65499515357E+03  0.00000000000E+00 0. -1.
         22    1    3    3    0    0  0.49690159925E+02  0.69439654295E+02 -0.55255049457E+02  0.10170593922E+03  0.00000000000E+00 0.  1.
         22    1    3    3    0    0  0.13356134050E+02  0.45349854713E+02 -0.24020960988E+03  0.24481758989E+03  0.00000000000E+00 0.  1.
</event>
<event>
 7    1  0.6105960E-006  0.6974179E+02  0.7818608E-02  0.1413060E+00
          2   -1    0    0  502    0  0.00000000000E+00  0.00000000000E+00  0.61090272272E+03  0.61090272272E+03  0.00000000000E+00 0. -1.
          1   -1    0    0  501    0 -0.00000000000E+00 -0.00000000000E+00 -0.62303260681E+03  0.62303260681E+03  0.00000000000E+00 0. -1.
         25    2    1    2    0    0 -0.44767912991E+02  0.82596201385E+01 -0.46899420586E+03  0.48749551060E+03  0.12499568140E+03 0.  0.
          2    1    1    2  501    0  0.46597528488E+00  0.45796786194E+02 -0.13907194826E+03  0.14641915705E+03  0.00000000000E+00 0. -1.
          1    1    1    2  502    0  0.44301937707E+02 -0.54056406333E+02  0.59593627003E+03  0.60002066188E+03  0.00000000000E+00 0. -1.
         22    1    3    3    0    0  0.19469753253E+02 -0.33844575788E+02 -0.29139764040E+03  0.29400189019E+03  0.00000000000E+00 0.  1.
         22    1    3    3    0    0 -0.64237666245E+02  0.42104195926E+02 -0.17759656546E+03  0.19349362042E+03  0.00000000000E+00 0.  1.
</event>
<event>
 7    1  0.6105960E-006  0.7701934E+02  0.7818608E-02  0.1440136E+00
          2   -1    0    0  502    0  0.00000000000E+00  0.00000000000E+00  0.16500725161E+03  0.16500725161E+03  0.00000000000E+00 0. -1.
          1   -1    0    0  501    0 -0.00000000000E+00 -0.00000000000E+00 -0.14291831779E+03  0.14291831779E+03  0.00000000000E+00 0. -1.
         25    2    1    2    0    0  0.36807615227E+02  0.35345085447E+02  0.45588689163E+02  0.14249780606E+03  0.12499288199E+03 0.  0.
          2    1    1    2  501    0 -0.47668531752E+02 -0.67291223057E+02 -0.69867355634E+02  0.10808258418E+03  0.00000000000E+00 0. -1.
          1    1    1    2  502    0  0.10860916525E+02  0.31946137609E+02  0.46367600285E+02  0.57345179153E+02  0.00000000000E+00 0. -1.
         22    1    3    3    0    0  0.76779872283E+02  0.35438015254E+02  0.55708645266E+02  0.10126428230E+03  0.00000000000E+00 0. -1.
         22    1    3    3    0    0 -0.39972257056E+02 -0.92929806623E-01 -0.10119956103E+02  0.41233523759E+02  0.00000000000E+00 0. -1.
</event>
<event>
 7    1  0.7669100E-006  0.5014378E+02  0.7818608E-02  0.1456929E+00
          2   -1    0    0  502    0  0.00000000000E+00  0.00000000000E+00  0.10526966130E+04  0.10526966130E+04  0.00000000000E+00 0. -1.
          1   -1    0    0  501    0 -0.00000000000E+00 -0.00000000000E+00 -0.10370949981E+04  0.10370949981E+04  0.00000000000E+00 0. -1.
         25    2    1    2    0    0  0.42126851841E+02 -0.77821500261E+01 -0.61425604875E+02  0.14571657318E+03  0.12499992505E+03 0.  0.
          2    1    1    2  501    0 -0.18584755321E+02  0.47049035912E+02 -0.93231930971E+03  0.93369068763E+03  0.00000000000E+00 0. -1.
          1    1    1    2  502    0 -0.23542096520E+02 -0.39266885886E+02  0.10093465295E+04  0.10103843503E+04  0.00000000000E+00 0. -1.
         22    1    3    3    0    0  0.51824798070E+01 -0.98078765866E+01  0.38022985745E+02  0.39608079795E+02  0.00000000000E+00 0. -1.
         22    1    3    3    0    0  0.36944372034E+02  0.20257265604E+01 -0.99448590620E+02  0.10610849339E+03  0.00000000000E+00 0. -1.
</event>
<event>
 7    1  0.6105960E-006  0.1676428E+03  0.7818608E-02  0.1382265E+00
          2   -1    0    0  502    0  0.00000000000E+00  0.00000000000E+00  0.13095303123E+04  0.13095303123E+04  0.00000000000E+00 0. -1.
          1   -1    0    0  501    0 -0.00000000000E+00 -0.00000000000E+00 -0.15119469712E+04  0.15119469712E+04  0.00000000000E+00 0. -1.
         25    2    1    2    0    0 -0.11627301677E+03  0.97351060770E+02  0.30583862114E+02  0.19888953521E+03  0.12500012454E+03 0.  0.
          2    1    1    2  501    0 -0.24080961431E+02 -0.35101514865E+01 -0.14217249924E+04  0.14219332501E+04  0.00000000000E+00 0. -1.
          1    1    1    2  502    0  0.14035397820E+03 -0.93840909284E+02  0.11887244713E+04  0.12006544982E+04  0.00000000000E+00 0. -1.
         22    1    3    3    0    0 -0.88185448647E+02  0.99805097154E+02 -0.25975272262E+02  0.13569246678E+03  0.00000000000E+00 0.  1.
         22    1    3    3    0    0 -0.28087568119E+02 -0.24540363837E+01  0.56559134376E+02  0.63197068435E+02  0.00000000000E+00 0.  1.
</event>
<event>
 7    1  0.6105960E-006  0.1180846E+03  0.7818608E-02  0.1248911E+00
          2   -1    0    0  502    0  0.00000000000E+00  0.00000000000E+00  0.15963749092E+03  0.15963749092E+03  0.00000000000E+00 0. -1.
          1   -1    0    0  501    0 -0.00000000000E+00 -0.00000000000E+00 -0.46315299261E+03  0.46315299261E+03  0.00000000000E+00 0. -1.
         25    2    1    2    0    0 -0.34553780785E+02  0.54450933337E+02 -0.10327786584E+03  0.17449985750E+03  0.12500005915E+03 0.  0.
          2    1    1    2  501    0  0.15001219465E+03 -0.29685401079E+02 -0.27060857423E+03  0.31082773690E+03  0.00000000000E+00 0. -1.
          1    1    1    2  502    0 -0.11545841387E+03 -0.24765532258E+02  0.70370938369E+02  0.13746288913E+03  0.00000000000E+00 0. -1.
         22    1    3    3    0    0 -0.88717200415E+01 -0.34230248080E+02  0.80426475919E+00  0.35370385097E+02  0.00000000000E+00 0.  1.
         22    1    3    3    0    0 -0.25682060743E+02  0.88681181418E+02 -0.10408213060E+03  0.13912947241E+03  0.00000000000E+00 0.  1.
</event>
<event>
 7    1  0.6105960E-006  0.6368241E+02  0.7818608E-02  0.1391745E+00
          2   -1    0    0  502    0  0.00000000000E+00  0.00000000000E+00  0.81438612323E+02  0.81438612323E+02  0.00000000000E+00 0. -1.
          1   -1    0    0  501    0 -0.00000000000E+00 -0.00000000000E+00 -0.98812964463E+03  0.98812964463E+03  0.00000000000E+00 0. -1.
         25    2    1    2    0    0  0.63797405845E+02  0.50422738204E+02 -0.44147468694E+03  0.46598010691E+03  0.12499999723E+03 0.  0.
          2    1    1    2  501    0 -0.51806048931E+00 -0.59341486759E+02 -0.51757936339E+03  0.52097032338E+03  0.00000000000E+00 0. -1.
          1    1    1    2  502    0 -0.63279345355E+02  0.89187485549E+01  0.52363018027E+02  0.82617826655E+02  0.00000000000E+00 0. -1.
         22    1    3    3    0    0  0.20582031557E+02 -0.38838243771E+02 -0.20304239473E+03  0.20774562152E+03  0.00000000000E+00 0.  1.
         22    1    3    3    0    0  0.43215374288E+02  0.89260981975E+02 -0.23843229221E+03  0.25823448539E+03  0.00000000000E+00 0.  1.
</event>
<event>
 7    1  0.6105960E-006  0.1222843E+03  0.7818608E-02  0.1298704E+00
          2   -1    0    0  502    0  0.00000000000E+00  0.00000000000E+00  0.18457242030E+04  0.18457242030E+04  0.00000000000E+00 0. -1.
          1   -1    0    0  501    0 -0.00000000000E+00 -0.00000000000E+00 -0.12919967122E+04  0.12919967122E+04  0.00000000000E+00 0. -1.
         25    2    1    2    0    0 -0.11755696668E+03 -0.49287850509E+02  0.37398533541E+03  0.41441375369E+03  0.12499918209E+03 0.  0.
          2    1    1    2  501    0  0.45639148857E+02 -0.51506142049E+02 -0.12682073233E+04  0.12700730804E+04  0.00000000000E+00 0. -1.
          1    1    1    2  502    0  0.71917817818E+02  0.10079399256E+03  0.14479494787E+04  0.14532340811E+04  0.00000000000E+00 0. -1.
         22    1    3    3    0    0  0.29941594487E+00  0.14557946277E+02 -0.25047819477E+01  0.14774890264E+02  0.00000000000E+00 0. -1.
         22    1    3    3    0    0 -0.11785638262E+03 -0.63845796786E+02  0.37649011736E+03  0.39963886342E+03  0.00000000000E+00 0. -1.
</event>
<event>
 7    1  0.6105960E-006  0.1019458E+03  0.7818608E-02  0.1411744E+00
          2   -1    0    0  502    0  0.00000000000E+00  0.00000000000E+00  0.42815615077E+03  0.42815615077E+03  0.00000000000E+00 0. -1.
          1   -1    0    0  501    0 -0.00000000000E+00 -0.00000000000E+00 -0.53270248297E+03  0.53270248297E+03  0.00000000000E+00 0. -1.
         25    2    1    2    0    0 -0.75079120085E+02 -0.50141696681E+02  0.22125232526E+03  0.26968086300E+03  0.12499644962E+03 0.  0.
          2    1    1    2  501    0  0.98215133146E+02  0.28538613577E+02 -0.50191991431E+03  0.51223458027E+03  0.00000000000E+00 0. -1.
          1    1    1    2  502    0 -0.23136013062E+02  0.21603083104E+02  0.17612125685E+03  0.17894319047E+03  0.00000000000E+00 0. -1.
         22    1    3    3    0    0 -0.31016797905E+02 -0.46760360856E+02  0.21829361904E+03  0.22539005571E+03  0.00000000000E+00 0.  1.
         22    1    3    3    0    0 -0.44062322180E+02 -0.33813358251E+01  0.29587062204E+01  0.44290807289E+02  0.00000000000E+00 0.  1.
</event>
<event>
 7    1  0.6105960E-006  0.1459106E+03  0.7818608E-02  0.1301009E+00
          2   -1    0    0  502    0  0.00000000000E+00  0.00000000000E+00  0.71291462330E+03  0.71291462330E+03  0.00000000000E+00 0. -1.
          1   -1    0    0  501    0 -0.00000000000E+00 -0.00000000000E+00 -0.39207212561E+03  0.39207212561E+03  0.00000000000E+00 0. -1.
         25    2    1    2    0    0  0.60794333593E+02 -0.17586564652E+03  0.31381502084E+03  0.38565537264E+03  0.12500209007E+03 0.  0.
          2    1    1    2  501    0 -0.33942248859E+01  0.56359161737E+02 -0.34165823233E+03  0.34629210732E+03  0.00000000000E+00 0. -1.
          1    1    1    2  502    0 -0.57400108707E+02  0.11950648479E+03  0.34868570918E+03  0.37303926894E+03  0.00000000000E+00 0. -1.
         22    1    3    3    0    0 -0.22139867066E+01 -0.90853814385E+02  0.24001759066E+03  0.25664715301E+03  0.00000000000E+00 0. -1.
         22    1    3    3    0    0  0.63008320299E+02 -0.85011832139E+02  0.73797430181E+02  0.12900821963E+03  0.00000000000E+00 0. -1.
</event>
<event>
 7    1  0.6105960E-006  0.8243120E+02  0.7818608E-02  0.1395070E+00
          2   -1    0    0  502    0  0.00000000000E+00  0.00000000000E+00  0.32103404490E+04  0.32103404490E+04  0.00000000000E+00 0. -1.
          1   -1    0    0  501    0 -0.00000000000E+00 -0.00000000000E+00 -0.99230730305E+02  0.99230730305E+02  0.00000000000E+00 0. -1.
         25    2    1    2    0    0  0.58174093267E+02 -0.10860568254E+03  0.50096040199E+03  0.53081566261E+03  0.12499809564E+03 0.  0.
          2    1    1    2  501    0 -0.48062888624E+02  0.65122262848E+02 -0.64647036756E+02  0.10358662917E+03  0.00000000000E+00 0. -1.
          1    1    1    2  502    0 -0.10111204643E+02  0.43483419690E+02  0.26747963535E+04  0.26751688875E+04  0.00000000000E+00 0. -1.
         22    1    3    3    0    0  0.40136356081E+02 -0.11960466575E+03  0.26063180778E+03  0.28956025690E+03  0.00000000000E+00 0. -1.
         22    1    3    3    0    0  0.18037737186E+02  0.10998983212E+02  0.24032859420E+03  0.24125540571E+03  0.00000000000E+00 0. -1.
</event>
<event>
 7    1  0.6105960E-006  0.1810426E+03  0.7818608E-02  0.1387232E+00
          2   -1    0    0  502    0  0.00000000000E+00  0.00000000000E+00  0.14419423816E+03  0.14419423816E+03  0.00000000000E+00 0. -1.
          1   -1    0    0  501    0 -0.00000000000E+00 -0.00000000000E+00 -0.14262285918E+04  0.14262285918E+04  0.00000000000E+00 0. -1.
         25    2    1    2    0    0  0.15184024910E+03 -0.96650204635E+02 -0.33241405876E+03  0.39814762296E+03  0.12500279959E+03 0.  0.
          2    1    1    2  501    0 -0.11465585283E+02 -0.18359674489E+02 -0.98679641560E+03  0.98703379027E+03  0.00000000000E+00 0. -1.
          1    1    1    2  502    0 -0.14037466382E+03  0.11500987912E+03  0.37176120682E+02  0.18524141677E+03  0.00000000000E+00 0. -1.
         22    1    3    3    0    0  0.11086879475E+03 -0.82797907884E+02 -0.32635117163E+03  0.35447492213E+03  0.00000000000E+00 0.  1.
         22    1    3    3    0    0  0.40971454350E+02 -0.13852296750E+02 -0.60628871296E+01  0.43672700823E+02  0.00000000000E+00 0.  1.
</event>
<event>
 7    1  0.6105960E-006  0.3084136E+02  0.7818608E-02  0.1588988E+00
          2   -1    0    0  502    0  0.00000000000E+00  0.00000000000E+00  0.16794702382E+04  0.16794702382E+04  0.00000000000E+00 0. -1.
          1   -1    0    0  501    0 -0.00000000000E+00 -0.00000000000E+00 -0.59038772566E+03  0.59038772566E+03  0.00000000000E+00 0. -1.
         25    2    1    2    0    0 -0.34914320947E+02  0.20967978461E+02 -0.10469009110E+02  0.13187937620E+03  0.12499561507E+03 0.  0.
          2    1    1    2  501    0  0.55396595203E+01 -0.30365784952E+02 -0.51860770527E+03  0.51952547646E+03  0.00000000000E+00 0. -1.
          1    1    1    2  502    0  0.29374661427E+02  0.93978064910E+01  0.16181592269E+04  0.16184531112E+04  0.00000000000E+00 0. -1.
         22    1    3    3    0    0 -0.21289393939E+02  0.62758973708E+02 -0.41391999253E+02  0.78135937170E+02  0.00000000000E+00 0.  1.
         22    1    3    3    0    0 -0.13624927008E+02 -0.41790995247E+02  0.30922990143E+02  0.53743439033E+02  0.00000000000E+00 0.  1.
</event>
<event>
 7    1  0.6105960E-006  0.1949560E+03  0.7818608E-02  0.1275062E+00
          2   -1    0    0  502    0  0.00000000000E+00  0.00000000000E+00  0.11644563628E+04  0.11644563628E+04  0.00000000000E+00 0. -1.
          1   -1    0    0  501    0 -0.00000000000E+00 -0.00000000000E+00 -0.61741014726E+03  0.61741014726E+03  0.00000000000E+00 0. -1.
         25    2    1    2    0    0  0.16034971683E+03  0.11408432290E+03 -0.40953115961E+03  0.47124083992E+03  0.12499957640E+03 0.  0.
          2    1    1    2  501    0  0.23386099172E+02 -0.48587594145E+02 -0.16428955094E+03  0.17291246482E+03  0.00000000000E+00 0. -1.
          1    1    1    2  502    0 -0.18373581600E+03 -0.65496728751E+02  0.11208669261E+04  0.11377132054E+04  0.00000000000E+00 0. -1.
         22    1    3    3    0    0  0.16329326604E+03  0.11819586340E+03 -0.41644939045E+03  0.46267164130E+03  0.00000000000E+00 0. -1.
         22    1    3    3    0    0 -0.29435492132E+01 -0.41115404998E+01  0.69182308314E+01  0.85691986258E+01  0.00000000000E+00 0. -1.
</event>
<event>
 7    1  0.6105960E-006  0.2558862E+02  0.7818608E-02  0.1686892E+00
          2   -1    0    0  502    0  0.00000000000E+00  0.00000000000E+00  0.16678222062E+04  0.16678222062E+04  0.00000000000E+00 0. -1.
          1   -1    0    0  501    0 -0.00000000000E+00 -0.00000000000E+00 -0.94733739177E+03  0.94733739177E+03  0.00000000000E+00 0. -1.
         25    2    1    2    0    0 -0.14014064521E+02 -0.30678252722E+01 -0.17543777306E+03  0.21589028238E+03  0.12499758499E+03 0.  0.
          2    1    1    2  501    0 -0.45414051800E+01  0.20700987312E+02 -0.75142452745E+03  0.75172333719E+03  0.00000000000E+00 0. -1.
          1    1    1    2  502    0  0.18555469701E+02 -0.17633162039E+02  0.16473471149E+04  0.16475459784E+04  0.00000000000E+00 0. -1.
         22    1    3    3    0    0 -0.42256224862E+02  0.47778271534E+02 -0.11806173934E+03  0.13418988809E+03  0.00000000000E+00 0.  1.
         22    1    3    3    0    0  0.28242160341E+02 -0.50846096806E+02 -0.57376033719E+02  0.81700394286E+02  0.00000000000E+00 0.  1.
</event>
<event>
 7    1  0.6105960E-006  0.4387055E+02  0.7818608E-02  0.1514310E+00
          2   -1    0    0  502    0  0.00000000000E+00  0.00000000000E+00  0.13592367067E+03  0.13592367067E+03  0.00000000000E+00 0. -1.
          1   -1    0    0  501    0 -0.00000000000E+00 -0.00000000000E+00 -0.73893153107E+03  0.73893153107E+03  0.00000000000E+00 0. -1.
         25    2    1    2    0    0 -0.30738488543E+02  0.33167909129E+02 -0.14861692824E+03  0.19939146509E+03  0.12500000047E+03 0.  0.
          2    1    1    2  501    0 -0.13434831750E+02 -0.32315115115E+02 -0.55994426047E+03  0.56103684033E+03  0.00000000000E+00 0. -1.
          1    1    1    2  502    0  0.44173320293E+02 -0.85279401444E+00  0.10555332831E+03  0.11442689632E+03  0.00000000000E+00 0. -1.
         22    1    3    3    0    0 -0.38637213779E+02  0.49919708868E+01 -0.16242731148E+03  0.16703408508E+03  0.00000000000E+00 0.  1.
         22    1    3    3    0    0  0.78987252358E+01  0.28175938242E+02  0.13810383242E+02  0.32357380015E+02  0.00000000000E+00 0.  1.
</event>
<event>
 7    1  0.6105960E-006  0.1152561E+03  0.7818608E-02  0.1295972E+00
          2   -1    0    0  502    0  0.00000000000E+00  0.00000000000E+00  0.18400412154E+04  0.18400412154E+04  0.00000000000E+00 0. -1.
          1   -1    0    0  501    0 -0.00000000000E+00 -0.00000000000E+00 -0.58585789536E+03  0.58585789536E+03  0.00000000000E+00 0. -1.
         25    2    1    2    0    0 -0.17284895658E+03 -0.53448278025E+02 -0.11634992080E+03  0.24879727771E+03  0.12501720326E+03 0.  0.
          2    1    1    2  501    0  0.74663882548E+02 -0.57324906889E+01 -0.39793607476E+03  0.40492058037E+03  0.00000000000E+00 0. -1.
          1    1    1    2  502    0  0.98185074031E+02  0.59180768714E+02  0.17684693156E+04  0.17721812527E+04  0.00000000000E+00 0. -1.
         22    1    3    3    0    0 -0.17024989053E+02  0.25011463042E+02 -0.56971529367E+02  0.64507198778E+02  0.00000000000E+00 0. -1.
         22    1    3    3    0    0 -0.15582396753E+03 -0.78459741067E+02 -0.59378391435E+02  0.18429007893E+03  0.00000000000E+00 0. -1.
</event>
<event>
 7    1  0.6105960E-006  0.1688258E+03  0.7818608E-02  0.1375485E+00
          2   -1    0    0  502    0  0.00000000000E+00  0.00000000000E+00  0.32069517420E+03  0.32069517420E+03  0.00000000000E+00 0. -1.
          1   -1    0    0  501    0 -0.00000000000E+00 -0.00000000000E+00 -0.13027323061E+04  0.13027323061E+04  0.00000000000E+00 0. -1.
         25    2    1    2    0    0  0.10006671287E+03 -0.10328288948E+03 -0.10927043795E+04  0.11091927104E+04  0.12499962259E+03 0.  0.
          2    1    1    2  501    0  0.17760429027E+02 -0.18354951223E+02 -0.17785751177E+03  0.17968202906E+03  0.00000000000E+00 0. -1.
          1    1    1    2  502    0 -0.11782714189E+03  0.12163784070E+03  0.28852475933E+03  0.33455274084E+03  0.00000000000E+00 0. -1.
         22    1    3    3    0    0  0.10579572700E+03 -0.21330636185E+02 -0.58177191632E+03  0.59169780675E+03  0.00000000000E+00 0. -1.
         22    1    3    3    0    0 -0.57290141391E+01 -0.81952253296E+02 -0.51093246315E+03  0.51749490367E+03  0.00000000000E+00 0. -1.
</event>
<event>
 7    1  0.6105960E-006  0.2702523E+02  0.7818608E-02  0.1665717E+00
          2   -1    0    0  502    0  0.00000000000E+00  0.00000000000E+00  0.14849008634E+03  0.14849008634E+03  0.00000000000E+00 0. -1.
          1   -1    0    0  501    0 -0.00000000000E+00 -0.00000000000E+00 -0.97640163025E+03  0.97640163025E+03  0.00000000000E+00 0. -1.
         25    2    1    2    0    0 -0.12441314763E+02  0.18020868181E+02 -0.14603884156E+03  0.19347453880E+03  0.12500206366E+03 0.  0.
          2    1    1    2  501    0  0.27142820606E+02 -0.94996989964E+00 -0.80539721711E+03  0.80585501952E+03  0.00000000000E+00 0. -1.
          1    1    1    2  502    0 -0.14701505843E+02 -0.17070898281E+02  0.12352451476E+03  0.12556215827E+03  0.00000000000E+00 0. -1.
         22    1    3    3    0    0 -0.12016393613E+02  0.58570854876E+02 -0.23232270966E+02  0.64145749435E+02  0.00000000000E+00 0.  1.
         22    1    3    3    0    0 -0.42492114963E+00 -0.40549986695E+02 -0.12280657059E+03  0.12932878937E+03  0.00000000000E+00 0.  1.
</event>
<event>
 7    1  0.6105960E-006  0.1089683E+03  0.7818608E-02  0.1380138E+00
          2   -1    0    0  502    0  0.00000000000E+00  0.00000000000E+00  0.15322838081E+03  0.15322838081E+03  0.00000000000E+00 0. -1.
          1   -1    0    0  501    0 -0.00000000000E+00 -0.00000000000E+00 -0.16031885214E+04  0.16031885214E+04  0.00000000000E+00 0. -1.
         25    2    1    2    0    0  0.10958627506E+03 -0.13215937350E+01 -0.15492485898E+02  0.16696233199E+03  0.12500201955E+03 0.  0.
          2    1    1    2  501    0 -0.59638361112E+01 -0.37623078534E+02 -0.14720552912E+04  0.14725480786E+04  0.00000000000E+00 0. -1.
          1    1    1    2  502    0 -0.10362243895E+03  0.38944672269E+02  0.37587636568E+02  0.11690649159E+03  0.00000000000E+00 0. -1.
         22    1    3    3    0    0  0.12126432870E+03  0.31316443213E+02  0.73339478745E+01  0.12545733866E+03  0.00000000000E+00 0.  1.
         22    1    3    3    0    0 -0.11678053639E+02 -0.32638036948E+02 -0.22826433772E+02  0.41504993331E+02  0.00000000000E+00 0.  1.
</event>
<event>
 7    1  0.6105960E-006  0.1124486E+03  0.7818608E-02  0.1284108E+00
          2   -1    0    0  502    0  0.00000000000E+00  0.00000000000E+00  0.28998080399E+04  0.28998080399E+04  0.00000000000E+00 0. -1.
          1   -1    0    0  501    0 -0.00000000000E+00 -0.00000000000E+00 -0.59018453294E+03  0.59018453294E+03  0.00000000000E+00 0. -1.
         25    2    1    2    0    0 -0.47709817560E+02 -0.11728185831E+03 -0.17313519435E+03  0.24825698026E+03  0.12499788696E+03 0.  0.
          2    1    1    2  501    0  0.10287239598E+03  0.51601121071E+02 -0.37010322427E+03  0.38758457421E+03  0.00000000000E+00 0. -1.
          1    1    1    2  502    0 -0.55162578421E+02  0.65680737237E+02  0.28528619255E+04  0.28541510183E+04  0.00000000000E+00 0. -1.
         22    1    3    3    0    0  0.16759376254E+02  0.20095526740E+02 -0.25782968596E+02  0.36735110685E+02  0.00000000000E+00 0.  1.
         22    1    3    3    0    0 -0.64469193814E+02 -0.13737738505E+03 -0.14735222575E+03  0.21152186957E+03  0.00000000000E+00 0.  1.
</event>
<event>
 7    1  0.6105960E-006  0.7119919E+02  0.7818608E-02  0.1386240E+00
          2   -1    0    0  502    0  0.00000000000E+00  0.00000000000E+00  0.65016668024E+03  0.65016668024E+03  0.00000000000E+00 0. -1.
          1   -1    0    0  501    0 -0.00000000000E+00 -0.00000000000E+00 -0.21263608338E+04  0.21263608338E+04  0.00000000000E+00 0. -1.
         25    2    1    2    0    0  0.82629774411E+02 -0.85640496157E+01  0.13215217310E+03  0.19997704068E+03  0.12500238950E+03 0.  0.
          2    1    1    2  501    0 -0.48418864824E+02  0.52244158552E+02 -0.20902500200E+04  0.20914633596E+04  0.00000000000E+00 0. -1.
          1    1    1    2  502    0 -0.34210909587E+02 -0.43680108936E+02  0.48190369334E+03  0.48508711373E+03  0.00000000000E+00 0. -1.
         22    1    3    3    0    0 -0.17308185729E+02 -0.22176164893E+02 -0.61578893161E+01  0.28797138459E+02  0.00000000000E+00 0.  1.
         22    1    3    3    0    0  0.99937960140E+02  0.13612115278E+02  0.13831006242E+03  0.17117990222E+03  0.00000000000E+00 0.  1.
</event>
<event>
 7    1  0.6105960E-006  0.7637060E+02  0.7818608E-02  0.1355711E+00
          2   -1    0    0  502    0  0.00000000000E+00  0.00000000000E+00  0.83199830836E+03  0.83199830836E+03  0.00000000000E+00 0. -1.
          1   -1    0    0  501    0 -0.00000000000E+00 -0.00000000000E+00 -0.12203219100E+04  0.12203219100E+04  0.00000000000E+00 0. -1.
         25    2    1    2    0    0 -0.68176083302E+02 -0.11535762503E+03 -0.84538672676E+02  0.20180834824E+03  0.12499784900E+03 0.  0.
          2    1    1    2  501    0  0.56332933043E+02  0.49844017071E+02 -0.10743982607E+04  0.10770280628E+04  0.00000000000E+00 0. -1.
          1    1    1    2  502    0  0.11843150259E+02  0.65513607958E+02  0.77061333179E+03  0.77348380731E+03  0.00000000000E+00 0. -1.
         22    1    3    3    0    0 -0.86320447214E+02 -0.37627226150E+02 -0.76989262753E+02  0.12163212706E+03  0.00000000000E+00 0. -1.
         22    1    3    3    0    0  0.18144363913E+02 -0.77730398878E+02 -0.75494099231E+01  0.80176221174E+02  0.00000000000E+00 0. -1.
</event>
<event>
 7    1  0.6105960E-006  0.1100219E+03  0.7818608E-02  0.1369810E+00
          2   -1    0    0  502    0  0.00000000000E+00  0.00000000000E+00  0.13449300447E+04  0.13449300447E+04  0.00000000000E+00 0. -1.
          1   -1    0    0  501    0 -0.00000000000E+00 -0.00000000000E+00 -0.11221957914E+03  0.11221957914E+03  0.00000000000E+00 0. -1.
         25    2    1    2    0    0  0.11637552974E+03  0.86195383207E+02  0.10231637150E+03  0.21694809447E+03  0.12499971123E+03 0.  0.
          2    1    1    2  501    0 -0.40083247413E+02 -0.89453442052E+01 -0.44353307865E+02  0.60447512974E+02  0.00000000000E+00 0. -1.
          1    1    1    2  502    0 -0.76292282326E+02 -0.77250039002E+02  0.11747474019E+04  0.11797540164E+04  0.00000000000E+00 0. -1.
         22    1    3    3    0    0  0.68968806075E+02 -0.10333503499E+02  0.81754593847E+02  0.10745832272E+03  0.00000000000E+00 0. -1.
         22    1    3    3    0    0  0.47406723664E+02  0.96528886706E+02  0.20561777656E+02  0.10948977175E+03  0.00000000000E+00 0. -1.
</event>
<event>
 7    1  0.6105960E-006  0.7775136E+02  0.7818608E-02  0.1351418E+00
          2   -1    0    0  502    0  0.00000000000E+00  0.00000000000E+00  0.17341034870E+03  0.17341034870E+03  0.00000000000E+00 0. -1.
          1   -1    0    0  501    0 -0.00000000000E+00 -0.00000000000E+00 -0.79051082546E+03  0.79051082546E+03  0.00000000000E+00 0. -1.
         25    2    1    2    0    0 -0.78023733947E+02  0.78317055690E+02 -0.26878514215E+02  0.16902508267E+03  0.12500303906E+03 0.  0.
          2    1    1    2  501    0  0.30595787654E+01 -0.67749820566E+02 -0.67662705136E+03  0.68001732760E+03  0.00000000000E+00 0. -1.
          1    1    1    2  502    0  0.74964155181E+02 -0.10567235125E+02  0.86405088809E+02  0.11487876389E+03  0.00000000000E+00 0. -1.
         22    1    3    3    0    0 -0.76226519934E+02  0.43968128453E+02  0.37797005612E+02  0.95772085151E+02  0.00000000000E+00 0.  1.
         22    1    3    3    0    0 -0.17972140130E+01  0.34348927238E+02 -0.64675519827E+02  0.73252997519E+02  0.00000000000E+00 0.  1.
</event>
<event>
 7    1  0.6105960E-006  0.3122600E+02  0.7818608E-02  0.1611114E+00
          2   -1    0    0  502    0  0.00000000000E+00  0.00000000000E+00  0.25130467132E+03  0.25130467132E+03  0.00000000000E+00 0. -1.
          1   -1    0    0  501    0 -0.00000000000E+00 -0.00000000000E+00 -0.89967817367E+03  0.89967817367E+03  0.00000000000E+00 0. -1.
         25    2    1    2    0    0 -0.49183978763E+01 -0.41621159576E+02 -0.63935007508E+03  0.65280108812E+03  0.12499692233E+03 0.  0.
          2    1    1    2  501    0 -0.17619135250E+02  0.20010709685E+02 -0.25189961970E+03  0.25330669322E+03  0.00000000000E+00 0. -1.
          1    1    1    2  502    0  0.22537533127E+02  0.21610449891E+02  0.24287619243E+03  0.24487506364E+03  0.00000000000E+00 0. -1.
         22    1    3    3    0    0  0.41722227672E+00 -0.52897639540E+02 -0.98490343846E+02  0.11179750522E+03  0.00000000000E+00 0.  1.
         22    1    3    3    0    0 -0.53356201530E+01  0.11276479963E+02 -0.54085973123E+03  0.54100358290E+03  0.00000000000E+00 0.  1.
</event>
<event>
 7    1  0.6105960E-006  0.7785650E+02  0.7818608E-02  0.1370471E+00
          2   -1    0    0  502    0  0.00000000000E+00  0.00000000000E+00  0.24374891106E+03  0.24374891106E+03  0.00000000000E+00 0. -1.
          1   -1    0    0  501    0 -0.00000000000E+00 -0.00000000000E+00 -0.48867643160E+03  0.48867643160E+03  0.00000000000E+00 0. -1.
         25    2    1    2    0    0 -0.82998224922E+02  0.74412349228E+01 -0.28886941938E+03  0.32559454874E+03  0.12498876510E+03 0.  0.
          2    1    1    2  501    0  0.57079016739E+02 -0.59014315104E+02 -0.16809728511E+03  0.18707592256E+03  0.00000000000E+00 0. -1.
          1    1    1    2  502    0  0.25919208183E+02  0.51573080181E+02  0.21203918396E+03  0.21975487136E+03  0.00000000000E+00 0. -1.
         22    1    3    3    0    0 -0.69785959426E+02  0.56430556842E+02 -0.23518119377E+03  0.25172342319E+03  0.00000000000E+00 0. -1.
         22    1    3    3    0    0 -0.13212265496E+02 -0.48989321920E+02 -0.53688225607E+02  0.73871125553E+02  0.00000000000E+00 0. -1.
</event>
<event>
 7    1  0.6105960E-006  0.6391748E+02  0.7818608E-02  0.1506897E+00
          2   -1    0    0  502    0  0.00000000000E+00  0.00000000000E+00  0.55599845624E+03  0.55599845624E+03  0.00000000000E+00 0. -1.
          1   -1    0    0  501    0 -0.00000000000E+00 -0.00000000000E+00 -0.66626632125E+03  0.66626632125E+03  0.00000000000E+00 0. -1.
         25    2    1    2    0    0  0.30531482949E+02 -0.28190167479E+02  0.94519595008E+02  0.16212465503E+03  0.12499437161E+03 0.  0.
          2    1    1    2  501    0  0.23687389252E+02 -0.87651611766E+01 -0.62969240623E+03  0.63019873606E+03  0.00000000000E+00 0. -1.
          1    1    1    2  502    0 -0.54218872201E+02  0.36955328655E+02  0.42490494622E+03  0.42994138640E+03  0.00000000000E+00 0. -1.
         22    1    3    3    0    0 -0.20132015597E+02 -0.20870055241E+02  0.10580427054E+03  0.10970597487E+03  0.00000000000E+00 0.  1.
         22    1    3    3    0    0  0.50663498547E+02 -0.73201122380E+01 -0.11284675531E+02  0.52418680163E+02  0.00000000000E+00 0.  1.
</event>
<event>
 7    1  0.6105960E-006  0.6596054E+02  0.7818608E-02  0.1426581E+00
          2   -1    0    0  502    0  0.00000000000E+00  0.00000000000E+00  0.59533204895E+03  0.59533204895E+03  0.00000000000E+00 0. -1.
          1   -1    0    0  501    0 -0.00000000000E+00 -0.00000000000E+00 -0.12174148466E+04  0.12174148466E+04  0.00000000000E+00 0. -1.
         25    2    1    2    0    0  0.32059572029E+01  0.27501868010E+02  0.26024109442E+02  0.13064664096E+03  0.12499863846E+03 0.  0.
          2    1    1    2  501    0  0.23117968515E+02 -0.62309997377E+02 -0.11632324016E+04  0.11651294333E+04  0.00000000000E+00 0. -1.
          1    1    1    2  502    0 -0.26323925718E+02  0.34808129367E+02  0.51512549452E+03  0.51697082126E+03  0.00000000000E+00 0. -1.
         22    1    3    3    0    0 -0.16824214009E+02 -0.44881801190E+02  0.28011437691E+02  0.55516402050E+02  0.00000000000E+00 0. -1.
         22    1    3    3    0    0  0.20030171212E+02  0.72383669200E+02 -0.19873282493E+01  0.75130238913E+02  0.00000000000E+00 0. -1.
</event>
<event>
 7    1  0.6105960E-006  0.1431208E+03  0.7818608E-02  0.1290717E+00
          2   -1    0    0  502    0  0.00000000000E+00  0.00000000000E+00  0.33435300723E+03  0.33435300723E+03  0.00000000000E+00 0. -1.
          1   -1    0    0  501    0 -0.00000000000E+00 -0.00000000000E+00 -0.15258629014E+04  0.15258629014E+04  0.00000000000E+00 0. -1.
         25    2    1    2    0    0 -0.77846437912E+02  0.64107278861E+02 -0.32912189455E+03  0.36621823812E+03  0.12499906144E+03 0.  0.
          2    1    1    2  501    0 -0.60442010169E+02 -0.18905555884E+02 -0.11605272647E+04  0.11622539261E+04  0.00000000000E+00 0. -1.
          1    1    1    2  502    0  0.13828844808E+03 -0.45201722977E+02  0.29813926503E+03  0.33174374445E+03  0.00000000000E+00 0. -1.
         22    1    3    3    0    0  0.13502974126E+02  0.57914997925E+02 -0.19467846634E+03  0.20355879385E+03  0.00000000000E+00 0. -1.
         22    1    3    3    0    0 -0.91349412038E+02  0.61922809352E+01 -0.13444342821E+03  0.16265944427E+03  0.00000000000E+00 0. -1.
</event>
<event>
 7    1  0.6105960E-006  0.1600475E+03  0.7818608E-02  0.1342557E+00
          2   -1    0    0  502    0  0.00000000000E+00  0.00000000000E+00  0.30784052987E+03  0.30784052987E+03  0.00000000000E+00 0. -1.
          1   -1    0    0  501    0 -0.00000000000E+00 -0.00000000000E+00 -0.69452792291E+03  0.69452792291E+03  0.00000000000E+00 0. -1.
         25    2    1    2    0    0  0.11252500150E+03  0.62587305034E+02 -0.28844795170E+03  0.33971603008E+03  0.12500285411E+03 0.  0.
          2    1    1    2  501    0  0.35209779604E+02  0.48796511277E+01 -0.35612054875E+03  0.35789018541E+03  0.00000000000E+00 0. -1.
          1    1    1    2  502    0 -0.14773478110E+03 -0.67466956162E+02  0.25788110741E+03  0.30476223729E+03  0.00000000000E+00 0. -1.
         22    1    3    3    0    0  0.13407283408E+03  0.72638541825E+02 -0.26805590309E+03  0.30839236336E+03  0.00000000000E+00 0. -1.
         22    1    3    3    0    0 -0.21547832581E+02 -0.10051236791E+02 -0.20392048616E+02  0.31323666719E+02  0.00000000000E+00 0. -1.
</event>
<event>
 7    1  0.8770887E-006  0.7951677E+02  0.7818608E-02  0.1341525E+00
          2   -1    0    0  502    0  0.00000000000E+00  0.00000000000E+00  0.15550600151E+04  0.15550600151E+04  0.00000000000E+00 0. -1.
          1   -1    0    0  501    0 -0.00000000000E+00 -0.00000000000E+00 -0.13520422369E+04  0.13520422369E+04  0.00000000000E+00 0. -1.
         25    2    1    2    0    0  0.12039719172E+03 -0.75259735930E+02 -0.15557212725E+03  0.24492293801E+03  0.12500018863E+03 0.  0.
          2    1    1    2  501    0 -0.43084352279E+02  0.57918813265E+02 -0.11496227379E+04  0.11518868390E+04  0.00000000000E+00 0. -1.
          1    1    1    2  502    0 -0.77312839444E+02  0.17340922666E+02  0.15082126434E+04  0.15102924751E+04  0.00000000000E+00 0. -1.
         22    1    3    3    0    0  0.10903169601E+03 -0.10861766530E+03 -0.12813823760E+03  0.20026261729E+03  0.00000000000E+00 0. -1.
         22    1    3    3    0    0  0.11365495713E+02  0.33357929372E+02 -0.27433889652E+02  0.44660320713E+02  0.00000000000E+00 0. -1.
</event>
<event>
 7    1  0.6105960E-006  0.1182467E+03  0.7818608E-02  0.1259355E+00
          2   -1    0    0  502    0  0.00000000000E+00  0.00000000000E+00  0.12264269000E+04  0.12264269000E+04  0.00000000000E+00 0. -1.
          1   -1    0    0  501    0 -0.00000000000E+00 -0.00000000000E+00 -0.31986837974E+04  0.31986837974E+04  0.00000000000E+00 0. -1.
         25    2    1    2    0    0  0.36387398391E+02 -0.16848534413E+03 -0.53626295145E+03  0.57698450737E+03  0.12498725816E+03 0.  0.
          2    1    1    2  501    0  0.46868965253E+02  0.10690147350E+03 -0.26385444258E+04  0.26411250087E+04  0.00000000000E+00 0. -1.
          1    1    1    2  502    0 -0.83256363644E+02  0.61583870628E+02  0.12025504798E+04  0.12070011813E+04  0.00000000000E+00 0. -1.
         22    1    3    3    0    0 -0.25759317784E+02 -0.12239886025E+03 -0.23819755032E+03  0.26904106828E+03  0.00000000000E+00 0.  1.
         22    1    3    3    0    0  0.62146716174E+02 -0.46086483875E+02 -0.29806540113E+03  0.30794343909E+03  0.00000000000E+00 0.  1.
</event>
<event>
 7    1  0.6105960E-006  0.6922685E+02  0.7818608E-02  0.1370147E+00
          2   -1    0    0  502    0  0.00000000000E+00  0.00000000000E+00  0.61487804163E+03  0.61487804163E+03  0.00000000000E+00 0. -1.
          1   -1    0    0  501    0 -0.00000000000E+00 -0.00000000000E+00 -0.45472967418E+02  0.45472967418E+02  0.00000000000E+00 0. -1.
         25    2    1    2    0    0 -0.39533016149E+02 -0.14042803812E+02  0.17769873560E+03  0.22127488918E+03  0.12500270493E+03 0.  0.
          2    1    1    2  501    0 -0.22503858609E+02  0.61075449495E+02  0.34860262898E+02  0.73836793759E+02  0.00000000000E+00 0. -1.
          1    1    1    2  502    0  0.62036874758E+02 -0.47032645683E+02  0.35684607571E+03  0.36523932611E+03  0.00000000000E+00 0. -1.
         22    1    3    3    0    0 -0.78661096229E+02  0.15626031883E+02  0.88343339510E+02  0.11931591079E+03  0.00000000000E+00 0. -1.
         22    1    3    3    0    0  0.39128080079E+02 -0.29668835695E+02  0.89355396093E+02  0.10195897838E+03  0.00000000000E+00 0. -1.
</event>
<event>
 7    1  0.6105960E-006  0.9491764E+02  0.7818608E-02  0.1398905E+00
          2   -1    0    0  502    0  0.00000000000E+00  0.00000000000E+00  0.51349253919E+03  0.51349253919E+03  0.00000000000E+00 0. -1.
          1   -1    0    0  501    0 -0.00000000000E+00 -0.00000000000E+00 -0.29055838508E+04  0.29055838508E+04  0.00000000000E+00 0. -1.
         25    2    1    2    0    0 -0.11459551061E+02  0.13098344049E+03 -0.11628406552E+03  0.21548680020E+03  0.12499837669E+03 0.  0.
          2    1    1    2  501    0  0.33508474597E+01 -0.94262278101E+02 -0.27381228946E+04  0.27397469940E+04  0.00000000000E+00 0. -1.
          1    1    1    2  502    0  0.81087036017E+01 -0.36721162386E+02  0.46231564849E+03  0.46384259580E+03  0.00000000000E+00 0. -1.
         22    1    3    3    0    0 -0.17867311475E+01  0.62931486721E+01 -0.86731295391E+02  0.86977662239E+02  0.00000000000E+00 0.  1.
         22    1    3    3    0    0 -0.96728199139E+01  0.12469029181E+03 -0.29552770125E+02  0.12850913796E+03  0.00000000000E+00 0.  1.
</event>
<event>
 7    1  0.6105960E-006  0.6965911E+02  0.7818608E-02  0.1378475E+00
          2   -1    0    0  502    0  0.00000000000E+00  0.00000000000E+00  0.34298992821E+04  0.34298992821E+04  0.00000000000E+00 0. -1.
          1   -1    0    0  501    0 -0.00000000000E+00 -0.00000000000E+00 -0.19324693713E+02  0.19324693713E+02  0.00000000000E+00 0. -1.
         25    2    1    2    0    0 -0.11832681649E+02  0.10116539325E+03  0.21959621751E+04  0.22018736933E+04  0.12499375151E+03 0.  0.
          2    1    1    2  501    0 -0.29534425217E+02 -0.52690340451E+02  0.43334353212E+02  0.74339897888E+02  0.00000000000E+00 0. -1.
          1    1    1    2  502    0  0.41367106866E+02 -0.48475052795E+02  0.11712780601E+04  0.11730103846E+04  0.00000000000E+00 0. -1.
         22    1    3    3    0    0  0.19712821832E+02 -0.16918891248E+02  0.14763300598E+03  0.14990112968E+03  0.00000000000E+00 0.  1.
         22    1    3    3    0    0 -0.31545503481E+02  0.11808428449E+03  0.20483291691E+04  0.20519725636E+04  0.00000000000E+00 0.  1.
</event>
<event>
 7    1  0.6105960E-006  0.2887861E+02  0.7818608E-02  0.1655774E+00
          2   -1    0    0  502    0  0.00000000000E+00  0.00000000000E+00  0.29763267371E+03  0.29763267371E+03  0.00000000000E+00 0. -1.
          1   -1    0    0  501    0 -0.00000000000E+00 -0.00000000000E+00 -0.10772357130E+04  0.10772357130E+04  0.00000000000E+00 0. -1.
         25    2    1    2    0    0 -0.22517388529E+02 -0.49641198268E+01 -0.14495620283E+03  0.19279308190E+03  0.12500078567E+03 0.  0.
          2    1    1    2  501    0  0.87516440168E+01 -0.20493474186E+02 -0.90745888783E+03  0.90773245334E+03  0.00000000000E+00 0. -1.
          1    1    1    2  502    0  0.13765744512E+02  0.25457594013E+02  0.27281205133E+03  0.27434285149E+03  0.00000000000E+00 0. -1.
         22    1    3    3    0    0  0.90849369596E+01  0.56680210324E+02 -0.73649725995E+02  0.93378072700E+02  0.00000000000E+00 0. -1.
         22    1    3    3    0    0 -0.31602325488E+02 -0.61644330151E+02 -0.71306476835E+02  0.99415009202E+02  0.00000000000E+00 0. -1.
</event>
<event>
 7    1  0.6105960E-006  0.4438193E+02  0.7818608E-02  0.1484801E+00
          2   -1    0    0  502    0  0.00000000000E+00  0.00000000000E+00  0.86355806286E+02  0.86355806286E+02  0.00000000000E+00 0. -1.
          1   -1    0    0  501    0 -0.00000000000E+00 -0.00000000000E+00 -0.18546657771E+04  0.18546657771E+04  0.00000000000E+00 0. -1.
         25    2    1    2    0    0 -0.57838268211E+02 -0.18407955231E+02 -0.18094304585E+03  0.22814608853E+03  0.12500453507E+03 0.  0.
          2    1    1    2  501    0  0.36944474207E+02 -0.20755426038E+02 -0.16419641607E+04  0.16425108787E+04  0.00000000000E+00 0. -1.
          1    1    1    2  502    0  0.20893794004E+02  0.39163381270E+02  0.54597235674E+02  0.70364616133E+02  0.00000000000E+00 0. -1.
         22    1    3    3    0    0 -0.48940598821E+02  0.13158489789E+02 -0.70255760716E+01  0.51163334388E+02  0.00000000000E+00 0. -1.
         22    1    3    3    0    0 -0.88976693898E+01 -0.31566445020E+02 -0.17391746978E+03  0.17698275415E+03  0.00000000000E+00 0. -1.
</event>
<event>
 7    1  0.1017681E-005  0.8155851E+02  0.7818608E-02  0.1360450E+00
          2   -1    0    0  502    0  0.00000000000E+00  0.00000000000E+00  0.14670679847E+04  0.14670679847E+04  0.00000000000E+00 0. -1.
          1   -1    0    0  501    0 -0.00000000000E+00 -0.00000000000E+00 -0.10168624822E+04  0.10168624822E+04  0.00000000000E+00 0. -1.
         25    2    1    2    0    0  0.98971525641E+02  0.80203602315E+02 -0.35297785854E+03  0.39553307071E+03  0.12500024275E+03 0.  0.
          2    1    1    2  501    0 -0.72526498007E+02 -0.26457685357E+02 -0.63966464041E+03  0.64430656850E+03  0.00000000000E+00 0. -1.
          1    1    1    2  502    0 -0.26445027634E+02 -0.53745916958E+02  0.14428480015E+04  0.14440908277E+04  0.00000000000E+00 0. -1.
         22    1    3    3    0    0  0.59365416327E+02  0.10985716373E+03 -0.28764120105E+03  0.31357664075E+03  0.00000000000E+00 0.  1.
         22    1    3    3    0    0  0.39606109314E+02 -0.29653561414E+02 -0.65336657490E+02  0.81956429958E+02  0.00000000000E+00 0.  1.
</event>
<event>
 7    1  0.6105960E-006  0.5733092E+02  0.7818608E-02  0.1446284E+00
          2   -1    0    0  502    0  0.00000000000E+00  0.00000000000E+00  0.60938504285E+03  0.60938504285E+03  0.00000000000E+00 0. -1.
          1   -1    0    0  501    0 -0.00000000000E+00 -0.00000000000E+00 -0.10650730347E+03  0.10650730347E+03  0.00000000000E+00 0. -1.
         25    2    1    2    0    0 -0.24008088210E+00  0.22425881669E+02  0.74062658205E+02  0.14702089694E+03  0.12500755573E+03 0.  0.
          2    1    1    2  501    0 -0.27729489984E+02 -0.55483989504E+02 -0.55134008759E+02  0.82988894606E+02  0.00000000000E+00 0. -1.
          1    1    1    2  502    0  0.27969570866E+02  0.33058107835E+02  0.48394908993E+03  0.48588255477E+03  0.00000000000E+00 0. -1.
         22    1    3    3    0    0 -0.46781603658E+02  0.43647999284E+02  0.95508651844E+01  0.64690689500E+02  0.00000000000E+00 0. -1.
         22    1    3    3    0    0  0.46541522776E+02 -0.21222117614E+02  0.64511793021E+02  0.82330207440E+02  0.00000000000E+00 0. -1.
</event>
<event>
 7    1  0.6105960E-006  0.9590451E+02  0.7818608E-02  0.1343106E+00
          2   -1    0    0  502    0  0.00000000000E+00  0.00000000000E+00  0.10456115432E+04  0.10456115432E+04  0.00000000000E+00 0. -1.
          1   -1    0    0  501    0 -0.00000000000E+00 -0.00000000000E+00 -0.44569007157E+02  0.44569007157E+02  0.00000000000E+00 0. -1.
         25    2    1    2    0    0 -0.71387961609E+02 -0.36790876496E+02  0.21759582303E+03  0.26347972450E+03  0.12499525339E+03 0.  0.
          2    1    1    2  501    0  0.58088891027E+02  0.94313622619E+02  0.13084758528E+03  0.17143648750E+03  0.00000000000E+00 0. -1.
          1    1    1    2  502    0  0.13299070582E+02 -0.57522746123E+02  0.65259912777E+03  0.65526433839E+03  0.00000000000E+00 0. -1.
         22    1    3    3    0    0 -0.54472236774E+02 -0.55194204705E+02  0.46191401352E+02  0.90262231143E+02  0.00000000000E+00 0.  1.
         22    1    3    3    0    0 -0.16915724835E+02  0.18403328209E+02  0.17140442168E+03  0.17321749336E+03  0.00000000000E+00 0.  1.
</event>
<event>
 7    1  0.6105960E-006  0.9863306E+02  0.7818608E-02  0.1348883E+00
          2   -1    0    0  502    0  0.00000000000E+00  0.00000000000E+00  0.66208067758E+03  0.66208067758E+03  0.00000000000E+00 0. -1.
          1   -1    0    0  501    0 -0.00000000000E+00 -0.00000000000E+00 -0.52139279534E+03  0.52139279534E+03  0.00000000000E+00 0. -1.
         25    2    1    2    0    0 -0.50093134769E+02 -0.11599319083E+03  0.45004094761E+03  0.48386435974E+03  0.12499648648E+03 0.  0.
          2    1    1    2  501    0 -0.87527696494E+01  0.53923817211E+02 -0.49352834744E+03  0.49654266560E+03  0.00000000000E+00 0. -1.
          1    1    1    2  502    0  0.58845904419E+02  0.62069373617E+02  0.18417528207E+03  0.20306644758E+03  0.00000000000E+00 0. -1.
         22    1    3    3    0    0 -0.41947111171E+02  0.15726843581E+02  0.13712809712E+03  0.14426021199E+03  0.00000000000E+00 0. -1.
         22    1    3    3    0    0 -0.81460235982E+01 -0.13172003441E+03  0.31291285049E+03  0.33960414775E+03  0.00000000000E+00 0. -1.
</event>
<event>
 7    1  0.6105960E-006  0.1061576E+03  0.7818608E-02  0.1295429E+00
          2   -1    0    0  502    0  0.00000000000E+00  0.00000000000E+00  0.18503392829E+03  0.18503392829E+03  0.00000000000E+00 0. -1.
          1   -1    0    0  501    0 -0.00000000000E+00 -0.00000000000E+00 -0.17237249419E+04  0.17237249419E+04  0.00000000000E+00 0. -1.
         25    2    1    2    0    0  0.11279393957E+03  0.53241776057E+02 -0.23340361974E+03  0.29267605924E+03  0.12499946570E+03 0.  0.
          2    1    1    2  501    0 -0.68803712454E+02  0.44079378793E+02 -0.14410394015E+04  0.14433542528E+04  0.00000000000E+00 0. -1.
          1    1    1    2  502    0 -0.43990227117E+02 -0.97321154850E+02  0.13575200755E+03  0.17272855820E+03  0.00000000000E+00 0. -1.
         22    1    3    3    0    0 -0.31968791852E+01  0.48376874864E+02 -0.12406030616E+03  0.13319722828E+03  0.00000000000E+00 0.  1.
         22    1    3    3    0    0  0.11599081876E+03  0.48649011923E+01 -0.10934331358E+03  0.15947883096E+03  0.00000000000E+00 0.  1.
</event>
<event>
 7    1  0.1254759E-005  0.9199233E+02  0.7818608E-02  0.1339813E+00
          2   -1    0    0  502    0  0.00000000000E+00  0.00000000000E+00  0.11660420627E+04  0.11660420627E+04  0.00000000000E+00 0. -1.
          1   -1    0    0  501    0 -0.00000000000E+00 -0.00000000000E+00 -0.76791782020E+03  0.76791782020E+03  0.00000000000E+00 0. -1.
         25    2    1    2    0    0  0.44576561543E+02  0.32429052386E+02 -0.33126979218E+03  0.35833536678E+03  0.12500338634E+03 0.  0.
          2    1    1    2  501    0  0.47164719455E+02 -0.42259710593E+02 -0.41888480163E+03  0.42364474615E+03  0.00000000000E+00 0. -1.
          1    1    1    2  502    0 -0.91741280998E+02  0.98306582071E+01  0.11482788364E+04  0.11519797700E+04  0.00000000000E+00 0. -1.
         22    1    3    3    0    0 -0.21211180120E+02  0.46604396550E+02 -0.23724779931E+03  0.24271053174E+03  0.00000000000E+00 0. -1.
         22    1    3    3    0    0  0.65787741663E+02 -0.14175344164E+02 -0.94021992877E+02  0.11562483505E+03  0.00000000000E+00 0. -1.
</event>
<event>
 7    1  0.6105960E-006  0.8822524E+02  0.7818608E-02  0.1320680E+00
          2   -1    0    0  502    0  0.00000000000E+00  0.00000000000E+00  0.13040686352E+03  0.13040686352E+03  0.00000000000E+00 0. -1.
          1   -1    0    0  501    0 -0.00000000000E+00 -0.00000000000E+00 -0.29835614313E+03  0.29835614313E+03  0.00000000000E+00 0. -1.
         25    2    1    2    0    0  0.50606030399E+02 -0.10435634405E+02 -0.67481986577E+02  0.15115532644E+03  0.12499696565E+03 0.  0.
          2    1    1    2  501    0  0.45487232213E+01 -0.77998596524E+02 -0.14465243930E+03  0.16440437992E+03  0.00000000000E+00 0. -1.
          1    1    1    2  502    0 -0.55154753620E+02  0.88434230929E+02  0.44185146264E+02  0.11320330029E+03  0.00000000000E+00 0. -1.
         22    1    3    3    0    0 -0.26205397595E+02 -0.72587564511E+01  0.20694789017E+02  0.34171431061E+02  0.00000000000E+00 0. -1.
         22    1    3    3    0    0  0.76811427994E+02 -0.31768779539E+01 -0.88176775594E+02  0.11698389538E+03  0.00000000000E+00 0. -1.
</event>
<event>
 7    1  0.6105960E-006  0.6571053E+02  0.7818608E-02  0.1404595E+00
          2   -1    0    0  502    0  0.00000000000E+00  0.00000000000E+00  0.60547196718E+03  0.60547196718E+03  0.00000000000E+00 0. -1.
          1   -1    0    0  501    0 -0.00000000000E+00 -0.00000000000E+00 -0.76687742127E+03  0.76687742127E+03  0.00000000000E+00 0. -1.
         25    2    1    2    0    0 -0.10297989675E+03  0.74860077678E+00 -0.24314536705E+03  0.29214543508E+03  0.12499546464E+03 0.  0.
          2    1    1    2  501    0  0.57659550645E+02 -0.26110493141E+02 -0.49605640139E+03  0.50007832885E+03  0.00000000000E+00 0. -1.
          1    1    1    2  502    0  0.45320346110E+02  0.25361892365E+02  0.57779631435E+03  0.58012562452E+03  0.00000000000E+00 0. -1.
         22    1    3    3    0    0 -0.79639569898E+02  0.59055983003E+02 -0.14963379816E+03  0.17950026121E+03  0.00000000000E+00 0. -1.
         22    1    3    3    0    0 -0.23340326857E+02 -0.58307382227E+02 -0.93511568883E+02  0.11264517386E+03  0.00000000000E+00 0. -1.
</event>
<event>
 7    1  0.6105960E-006  0.5427819E+02  0.7818608E-02  0.1466366E+00
          2   -1    0    0  502    0  0.00000000000E+00  0.00000000000E+00  0.24891472820E+04  0.24891472820E+04  0.00000000000E+00 0. -1.
          1   -1    0    0  501    0 -0.00000000000E+00 -0.00000000000E+00 -0.13797844948E+04  0.13797844948E+04  0.00000000000E+00 0. -1.
         25    2    1    2    0    0 -0.75705677008E+02 -0.24143650709E+02  0.18690326693E+02  0.14929218126E+03  0.12499824667E+03 0.  0.
          2    1    1    2  501    0  0.38684170605E+02  0.37915374598E+02 -0.13137632615E+04  0.13148794424E+04  0.00000000000E+00 0. -1.
          1    1    1    2  502    0  0.37021506403E+02 -0.13771723889E+02  0.24044357221E+04  0.24047601531E+04  0.00000000000E+00 0. -1.
         22    1    3    3    0    0  0.11518027933E+02  0.22996026496E+02 -0.29430068748E+02  0.39084666413E+02  0.00000000000E+00 0. -1.
         22    1    3    3    0    0 -0.87223704941E+02 -0.47139677205E+02  0.48120395441E+02  0.11020751484E+03  0.00000000000E+00 0. -1.
</event>
<event>
 7    1  0.6105960E-006  0.1323832E+03  0.7818608E-02  0.1286469E+00
          2   -1    0    0  502    0  0.00000000000E+00  0.00000000000E+00  0.26618910122E+04  0.26618910122E+04  0.00000000000E+00 0. -1.
          1   -1    0    0  501    0 -0.00000000000E+00 -0.00000000000E+00 -0.54312240956E+02  0.54312240956E+02  0.00000000000E+00 0. -1.
         25    2    1    2    0    0  0.27027174640E+02  0.11783440569E+03  0.25883620797E+03  0.31182760456E+03  0.12499942831E+03 0.  0.
          2    1    1    2  501    0  0.40183213140E+02 -0.14148994844E+03  0.17136226100E+03  0.22582984882E+03  0.00000000000E+00 0. -1.
          1    1    1    2  502    0 -0.67210387779E+02  0.23655542748E+02  0.21773803023E+04  0.21785457998E+04  0.00000000000E+00 0. -1.
         22    1    3    3    0    0 -0.54313005155E+01 -0.18738844501E+02  0.90793565858E+02  0.92866112871E+02  0.00000000000E+00 0. -1.
         22    1    3    3    0    0  0.32458475155E+02  0.13657325019E+03  0.16804264211E+03  0.21896149169E+03  0.00000000000E+00 0. -1.
</event>
<event>
 7    1  0.6105960E-006  0.8874818E+02  0.7818608E-02  0.1342686E+00
          2   -1    0    0  502    0  0.00000000000E+00  0.00000000000E+00  0.11582911694E+04  0.11582911694E+04  0.00000000000E+00 0. -1.
          1   -1    0    0  501    0 -0.00000000000E+00 -0.00000000000E+00 -0.75168455192E+03  0.75168455192E+03  0.00000000000E+00 0. -1.
         25    2    1    2    0    0 -0.14272147024E+03 -0.25092772669E+02 -0.24877952222E+03  0.31387160060E+03  0.12500026271E+03 0.  0.
          2    1    1    2  501    0  0.78688966841E+02  0.25119739586E+02 -0.46581197992E+03  0.47307901608E+03  0.00000000000E+00 0. -1.
          1    1    1    2  502    0  0.64032503395E+02 -0.26966917512E-01  0.11211981196E+04  0.11230251046E+04  0.00000000000E+00 0. -1.
         22    1    3    3    0    0 -0.84623636748E+02  0.46005716449E+02 -0.15600035194E+03  0.18334065465E+03  0.00000000000E+00 0. -1.
         22    1    3    3    0    0 -0.58097833488E+02 -0.71098489118E+02 -0.92779170279E+02  0.13053094594E+03  0.00000000000E+00 0. -1.
</event>
<event>
 7    1  0.6105960E-006  0.1010586E+03  0.7818608E-02  0.1383389E+00
          2   -1    0    0  502    0  0.00000000000E+00  0.00000000000E+00  0.89596228206E+03  0.89596228206E+03  0.00000000000E+00 0. -1.
          1   -1    0    0  501    0 -0.00000000000E+00 -0.00000000000E+00 -0.24063285290E+03  0.24063285290E+03  0.00000000000E+00 0. -1.
         25    2    1    2    0    0  0.91868906510E+02  0.44215575274E+02  0.12336581674E+02  0.16177777649E+03  0.12499977856E+03 0.  0.
          2    1    1    2  501    0  0.93348422050E+01 -0.38897774641E+02 -0.16027003385E+03  0.16518674251E+03  0.00000000000E+00 0. -1.
          1    1    1    2  502    0 -0.10120374871E+03 -0.53178006326E+01  0.80326288133E+03  0.80963061595E+03  0.00000000000E+00 0. -1.
         22    1    3    3    0    0  0.78868440780E+02  0.36571353961E+02 -0.48191750647E+02  0.99398891905E+02  0.00000000000E+00 0. -1.
         22    1    3    3    0    0  0.13000465730E+02  0.76442213126E+01  0.60528332321E+02  0.62378884586E+02  0.00000000000E+00 0. -1.
</event>
<event>
 7    1  0.6105960E-006  0.2141376E+03  0.7818608E-02  0.1327439E+00
          2   -1    0    0  502    0  0.00000000000E+00  0.00000000000E+00  0.10058616045E+03  0.10058616045E+03  0.00000000000E+00 0. -1.
          1   -1    0    0  501    0 -0.00000000000E+00 -0.00000000000E+00 -0.12215884293E+04  0.12215884293E+04  0.00000000000E+00 0. -1.
         25    2    1    2    0    0  0.20108064141E+03 -0.91478342029E+02 -0.28695397503E+03  0.38310627511E+03  0.12500449125E+03 0.  0.
          2    1    1    2  501    0  0.41693931835E+00  0.30312496002E+02 -0.67372344347E+03  0.67440514495E+03  0.00000000000E+00 0. -1.
          1    1    1    2  502    0 -0.20149758073E+03  0.61165846027E+02 -0.16032485038E+03  0.26466316973E+03  0.00000000000E+00 0. -1.
         22    1    3    3    0    0  0.89578842492E+02 -0.92938100393E+02 -0.91992030644E+02  0.15850676083E+03  0.00000000000E+00 0.  1.
         22    1    3    3    0    0  0.11150179892E+03  0.14597583643E+01 -0.19496194439E+03  0.22459951428E+03  0.00000000000E+00 0.  1.
</event>
<event>
 7    1  0.6105960E-006  0.3550751E+02  0.7818608E-02  0.1622819E+00
          2   -1    0    0  502    0  0.00000000000E+00  0.00000000000E+00  0.91469236822E+03  0.91469236822E+03  0.00000000000E+00 0. -1.
          1   -1    0    0  501    0 -0.00000000000E+00 -0.00000000000E+00 -0.23420333395E+02  0.23420333395E+02  0.00000000000E+00 0. -1.
         25    2    1    2    0    0  0.11089831263E+02  0.10053606381E+02  0.51881521817E+03  0.53386954935E+03  0.12499362289E+03 0.  0.
          2    1    1    2  501    0 -0.21509190584E+02 -0.29299973240E+02  0.56498928194E+01  0.36783895937E+02  0.00000000000E+00 0. -1.
          1    1    1    2  502    0  0.10419359321E+02  0.19246366859E+02  0.36680692383E+03  0.36745925632E+03  0.00000000000E+00 0. -1.
         22    1    3    3    0    0 -0.12570488687E+02  0.52896161228E+02  0.11619959271E+03  0.12829016488E+03  0.00000000000E+00 0. -1.
         22    1    3    3    0    0  0.23660319950E+02 -0.42842554847E+02  0.40261562547E+03  0.40557938448E+03  0.00000000000E+00 0. -1.
</event>
<event>
 7    1  0.6105960E-006  0.5405159E+02  0.7818608E-02  0.1513859E+00
          2   -1    0    0  502    0  0.00000000000E+00  0.00000000000E+00  0.15845237575E+04  0.15845237575E+04  0.00000000000E+00 0. -1.
          1   -1    0    0  501    0 -0.00000000000E+00 -0.00000000000E+00 -0.52945079174E+03  0.52945079174E+03  0.00000000000E+00 0. -1.
         25    2    1    2    0    0 -0.57997646980E+02 -0.54524200861E+02  0.76371123686E+03  0.77795673287E+03  0.12500083754E+03 0.  0.
          2    1    1    2  501    0  0.21712812788E+02  0.18447416731E+02 -0.52113413411E+03  0.52191238648E+03  0.00000000000E+00 0. -1.
          1    1    1    2  502    0  0.36284834193E+02  0.36076784129E+02  0.81249586300E+03  0.81410542987E+03  0.00000000000E+00 0. -1.
         22    1    3    3    0    0 -0.43202644263E+02  0.24161397631E+02  0.12824284054E+03  0.13746442360E+03  0.00000000000E+00 0. -1.
         22    1    3    3    0    0 -0.14795002718E+02 -0.78685598492E+02  0.63546839632E+03  0.64049230927E+03  0.00000000000E+00 0. -1.
</event>
<event>
 7    1  0.6105960E-006  0.3637459E+02  0.7818608E-02  0.1621075E+00
          2   -1    0    0  502    0  0.00000000000E+00  0.00000000000E+00  0.67264716977E+03  0.67264716977E+03  0.00000000000E+00 0. -1.
          1   -1    0    0  501    0 -0.00000000000E+00 -0.00000000000E+00 -0.13739582270E+04  0.13739582270E+04  0.00000000000E+00 0. -1.
         25    2    1    2    0    0 -0.43043433198E+02 -0.25703236382E+02 -0.42508058985E+03  0.44590905888E+03  0.12501194912E+03 0.  0.
          2    1    1    2  501    0  0.21306098449E+02 -0.34475414153E+01 -0.93783997314E+03  0.93808829573E+03  0.00000000000E+00 0. -1.
          1    1    1    2  502    0  0.21737334750E+02  0.29150777797E+02  0.66160950571E+03  0.66260804222E+03  0.00000000000E+00 0. -1.
         22    1    3    3    0    0 -0.39371046393E+01 -0.48651269629E+02 -0.56985991832E+02  0.75032326997E+02  0.00000000000E+00 0. -1.
         22    1    3    3    0    0 -0.39106328559E+02  0.22948033247E+02 -0.36809459801E+03  0.37087673188E+03  0.00000000000E+00 0. -1.
</event>
<event>
 7    1  0.6105960E-006  0.9027980E+02  0.7818608E-02  0.1457717E+00
          2   -1    0    0  502    0  0.00000000000E+00  0.00000000000E+00  0.48230209590E+03  0.48230209590E+03  0.00000000000E+00 0. -1.
          1   -1    0    0  501    0 -0.00000000000E+00 -0.00000000000E+00 -0.17844558408E+04  0.17844558408E+04  0.00000000000E+00 0. -1.
         25    2    1    2    0    0  0.89157233489E+02  0.44597533644E+02 -0.15190375444E+04  0.15274285932E+04  0.12500037445E+03 0.  0.
          2    1    1    2  501    0 -0.63874517569E+02 -0.44395318245E+02 -0.25508595583E+03  0.26668285122E+03  0.00000000000E+00 0. -1.
          1    1    1    2  502    0 -0.25282715920E+02 -0.20221539828E+00  0.47196975540E+03  0.47264649224E+03  0.00000000000E+00 0. -1.
         22    1    3    3    0    0  0.41812371254E+02  0.67596576481E+02 -0.44091087893E+03  0.44801782855E+03  0.00000000000E+00 0.  1.
         22    1    3    3    0    0  0.47344862235E+02 -0.22999042837E+02 -0.10781266655E+04  0.10794107647E+04  0.00000000000E+00 0.  1.
</event>
<event>
 7    1  0.6105960E-006  0.1089644E+03  0.7818608E-02  0.1340125E+00
          2   -1    0    0  502    0  0.00000000000E+00  0.00000000000E+00  0.84633653101E+03  0.84633653101E+03  0.00000000000E+00 0. -1.
          1   -1    0    0  501    0 -0.00000000000E+00 -0.00000000000E+00 -0.96195116488E+02  0.96195116488E+02  0.00000000000E+00 0. -1.
         25    2    1    2    0    0 -0.13730825037E+03 -0.71825030091E+02  0.28211050578E+03  0.34528885361E+03  0.12500265751E+03 0.  0.
          2    1    1    2  501    0  0.45990303501E+02  0.26979134698E+02 -0.47718891182E+02  0.71554694470E+02  0.00000000000E+00 0. -1.
          1    1    1    2  502    0  0.91317946868E+02  0.44845895393E+02  0.51574979991E+03  0.52568809941E+03  0.00000000000E+00 0. -1.
         22    1    3    3    0    0 -0.63989388670E+02 -0.10135046485E+03  0.16252939703E+03  0.20194643717E+03  0.00000000000E+00 0.  1.
         22    1    3    3    0    0 -0.73318861698E+02  0.29525434761E+02  0.11958110876E+03  0.14334241644E+03  0.00000000000E+00 0.  1.
</event>
<event>
 7    1  0.6105960E-006  0.9580144E+02  0.7818608E-02  0.1447479E+00
          2   -1    0    0  502    0  0.00000000000E+00  0.00000000000E+00  0.48571840302E+04  0.48571840302E+04  0.00000000000E+00 0. -1.
          1   -1    0    0  501    0 -0.00000000000E+00 -0.00000000000E+00 -0.28525815656E+03  0.28525815656E+03  0.00000000000E+00 0. -1.
         25    2    1    2    0    0  0.11409958530E+03  0.29986272595E+02  0.66221656662E+03  0.68415939457E+03  0.12500161666E+03 0.  0.
          2    1    1    2  501    0 -0.20463217257E+02 -0.15524756132E+02 -0.27314776076E+03  0.27435280301E+03  0.00000000000E+00 0. -1.
          1    1    1    2  502    0 -0.93636368043E+02 -0.14461516464E+02  0.41828570678E+04  0.41839299892E+04  0.00000000000E+00 0. -1.
         22    1    3    3    0    0  0.61109637357E+01  0.19211939026E+02  0.39817549801E+03  0.39868555240E+03  0.00000000000E+00 0. -1.
         22    1    3    3    0    0  0.10798862156E+03  0.10774333569E+02  0.26404106861E+03  0.28547384217E+03  0.00000000000E+00 0. -1.
</event>
<event>
 7    1  0.6105960E-006  0.8171696E+02  0.7818608E-02  0.1371988E+00
          2   -1    0    0  502    0  0.00000000000E+00  0.00000000000E+00  0.19199838635E+04  0.19199838635E+04  0.00000000000E+00 0. -1.
          1   -1    0    0  501    0 -0.00000000000E+00 -0.00000000000E+00 -0.45391767387E+02  0.45391767387E+02  0.00000000000E+00 0. -1.
         25    2    1    2    0    0  0.23773822852E+02  0.46810826726E+02  0.61445291910E+03  0.62923034869E+03  0.12498797450E+03 0.  0.
          2    1    1    2  501    0  0.54239131102E+02 -0.27405806769E+01 -0.16193697125E+02  0.56671244487E+02  0.00000000000E+00 0. -1.
          1    1    1    2  502    0 -0.78012953954E+02 -0.44070246049E+02  0.12763328741E+04  0.12794740377E+04  0.00000000000E+00 0. -1.
         22    1    3    3    0    0 -0.19958995347E+02 -0.32614238895E+02  0.10441404893E+03  0.11119507043E+03  0.00000000000E+00 0.  1.
         22    1    3    3    0    0  0.43732818199E+02  0.79425065621E+02  0.51003887017E+03  0.51803527826E+03  0.00000000000E+00 0.  1.
</event>
<event>
 7    1  0.6105960E-006  0.7706426E+03  0.7818608E-02  0.1103102E+00
          2   -1    0    0  502    0  0.00000000000E+00  0.00000000000E+00  0.78750859910E+03  0.78750859910E+03  0.00000000000E+00 0. -1.
          1   -1    0    0  501    0 -0.00000000000E+00 -0.00000000000E+00 -0.32030869177E+04  0.32030869177E+04  0.00000000000E+00 0. -1.
         25    2    1    2    0    0  0.72836733807E+03 -0.32307389282E+03 -0.56588281076E+03  0.98526462280E+03  0.12500920784E+03 0.  0.
          2    1    1    2  501    0 -0.68993705319E+02 -0.61455102348E+02 -0.21740183754E+04  0.21759808725E+04  0.00000000000E+00 0. -1.
          1    1    1    2  502    0 -0.65937363275E+03  0.38452899517E+03  0.32432286756E+03  0.82935002147E+03  0.00000000000E+00 0. -1.
         22    1    3    3    0    0  0.63664138336E+03 -0.31024347828E+03 -0.45952258104E+03  0.84422998603E+03  0.00000000000E+00 0. -1.
         22    1    3    3    0    0  0.91725954707E+02 -0.12830414544E+02 -0.10636022971E+03  0.14103463677E+03  0.00000000000E+00 0. -1.
</event>
<event>
 7    1  0.6105960E-006  0.1054564E+03  0.7818608E-02  0.1416020E+00
          2   -1    0    0  502    0  0.00000000000E+00  0.00000000000E+00  0.23363957576E+04  0.23363957576E+04  0.00000000000E+00 0. -1.
          1   -1    0    0  501    0 -0.00000000000E+00 -0.00000000000E+00 -0.95551517593E+03  0.95551517593E+03  0.00000000000E+00 0. -1.
         25    2    1    2    0    0  0.85334916159E+02 -0.74565522791E+02  0.21414868054E+04  0.21481231067E+04  0.12500031456E+03 0.  0.
          2    1    1    2  501    0 -0.22889508662E+02  0.18770253554E+02 -0.94280320724E+03  0.94326779846E+03  0.00000000000E+00 0. -1.
          1    1    1    2  502    0 -0.62445407497E+02  0.55795269238E+02  0.18219698349E+03  0.20052002837E+03  0.00000000000E+00 0. -1.
         22    1    3    3    0    0  0.93218834945E+02 -0.13427525083E+01  0.10362132449E+04  0.10403986943E+04  0.00000000000E+00 0.  1.
         22    1    3    3    0    0 -0.78839187857E+01 -0.73222770283E+02  0.11052735605E+04  0.11077244124E+04  0.00000000000E+00 0.  1.
</event>
<event>
 7    1  0.6105960E-006  0.7107083E+02  0.7818608E-02  0.1447357E+00
          2   -1    0    0  502    0  0.00000000000E+00  0.00000000000E+00  0.27082173892E+04  0.27082173892E+04  0.00000000000E+00 0. -1.
          1   -1    0    0  501    0 -0.00000000000E+00 -0.00000000000E+00 -0.10543459401E+04  0.10543459401E+04  0.00000000000E+00 0. -1.
         25    2    1    2    0    0  0.70318524998E+01  0.10212559610E+03  0.10073510935E+04  0.10202262754E+04  0.12500537239E+03 0.  0.
          2    1    1    2  501    0 -0.64393588846E+00 -0.34649076910E+02 -0.10469437395E+04  0.10475171439E+04  0.00000000000E+00 0. -1.
          1    1    1    2  502    0 -0.63879166114E+01 -0.67476519193E+02  0.16934640950E+04  0.16948199100E+04  0.00000000000E+00 0. -1.
         22    1    3    3    0    0  0.63003802470E+02  0.29630086574E+02  0.40164725766E+03  0.40763702081E+03  0.00000000000E+00 0. -1.
         22    1    3    3    0    0 -0.55971949970E+02  0.72495509529E+02  0.60570383586E+03  0.61258925461E+03  0.00000000000E+00 0. -1.
</event>
<event>
 7    1  0.6105960E-006  0.6551914E+02  0.7818608E-02  0.1390242E+00
          2   -1    0    0  502    0  0.00000000000E+00  0.00000000000E+00  0.29010538922E+04  0.29010538922E+04  0.00000000000E+00 0. -1.
          1   -1    0    0  501    0 -0.00000000000E+00 -0.00000000000E+00 -0.17073452619E+03  0.17073452619E+03  0.00000000000E+00 0. -1.
         25    2    1    2    0    0  0.72172708959E+02 -0.34840592228E+02  0.27658074298E+03  0.31392061189E+03  0.12500590545E+03 0.  0.
          2    1    1    2  501    0 -0.61732996581E+02 -0.22598349896E+02 -0.14461640457E+03  0.15885701985E+03  0.00000000000E+00 0. -1.
          1    1    1    2  502    0 -0.10439712378E+02  0.57438942124E+02  0.25983550276E+04  0.25990107867E+04  0.00000000000E+00 0. -1.
         22    1    3    3    0    0 -0.15398799724E+02 -0.43065697720E+01  0.17745715039E+03  0.17817606405E+03  0.00000000000E+00 0. -1.
         22    1    3    3    0    0  0.87571508683E+02 -0.30534022456E+02  0.99123592588E+02  0.13574454784E+03  0.00000000000E+00 0. -1.
</event>
<event>
 7    1  0.6105960E-006  0.2045436E+03  0.7818608E-02  0.1208489E+00
          2   -1    0    0  502    0  0.00000000000E+00  0.00000000000E+00  0.13248369158E+04  0.13248369158E+04  0.00000000000E+00 0. -1.
          1   -1    0    0  501    0 -0.00000000000E+00 -0.00000000000E+00 -0.14239757186E+04  0.14239757186E+04  0.00000000000E+00 0. -1.
         25    2    1    2    0    0 -0.94760532066E+02 -0.62456966845E+02  0.35470009607E+02  0.17252045385E+03  0.12499901707E+03 0.  0.
          2    1    1    2  501    0  0.15837346701E+03  0.14077427961E+03 -0.13450574264E+04  0.13616457076E+04  0.00000000000E+00 0. -1.
          1    1    1    2  502    0 -0.63612934940E+02 -0.78317312765E+02  0.12104486140E+04  0.12146464729E+04  0.00000000000E+00 0. -1.
         22    1    3    3    0    0 -0.26203685811E+02 -0.80499080241E+01 -0.45609851371E+02  0.53213651550E+02  0.00000000000E+00 0.  1.
         22    1    3    3    0    0 -0.68556846256E+02 -0.54407058821E+02  0.81079860977E+02  0.11930680230E+03  0.00000000000E+00 0.  1.
</event>
<event>
 7    1  0.6105960E-006  0.4007838E+02  0.7818608E-02  0.1511417E+00
          2   -1    0    0  502    0  0.00000000000E+00  0.00000000000E+00  0.23858866654E+03  0.23858866654E+03  0.00000000000E+00 0. -1.
          1   -1    0    0  501    0 -0.00000000000E+00 -0.00000000000E+00 -0.32720185903E+03  0.32720185903E+03  0.00000000000E+00 0. -1.
         25    2    1    2    0    0 -0.27953896680E+02  0.61975723058E+02 -0.14120038861E+03  0.20046279663E+03  0.12500148999E+03 0.  0.
          2    1    1    2  501    0 -0.44870816431E+01 -0.38804989422E+02 -0.15197600196E+03  0.15691611223E+03  0.00000000000E+00 0. -1.
          1    1    1    2  502    0  0.32440978323E+02 -0.23170733636E+02  0.20456319808E+03  0.20841161671E+03  0.00000000000E+00 0. -1.
         22    1    3    3    0    0 -0.53642391167E+02  0.87564244816E+02 -0.83671610050E+02  0.13246109402E+03  0.00000000000E+00 0.  1.
         22    1    3    3    0    0  0.25688494488E+02 -0.25588521758E+02 -0.57528778560E+02  0.68001702607E+02  0.00000000000E+00 0.  1.
</event>
<event>
 7    1  0.6105960E-006  0.5664062E+02  0.7818608E-02  0.1422607E+00
          2   -1    0    0  502    0  0.00000000000E+00  0.00000000000E+00  0.48270189729E+03  0.48270189729E+03  0.00000000000E+00 0. -1.
          1   -1    0    0  501    0 -0.00000000000E+00 -0.00000000000E+00 -0.19911334906E+03  0.19911334906E+03  0.00000000000E+00 0. -1.
         25    2    1    2    0    0 -0.37496018460E+02 -0.45734694322E+01  0.17085261320E+03  0.21504223551E+03  0.12500271834E+03 0.  0.
          2    1    1    2  501    0  0.24226655762E+02 -0.51197943637E+02 -0.16953132705E+03  0.17874291911E+03  0.00000000000E+00 0. -1.
          1    1    1    2  502    0  0.13269362699E+02  0.55771413070E+02  0.28226726208E+03  0.28803009173E+03  0.00000000000E+00 0. -1.
         22    1    3    3    0    0 -0.63178682179E+01  0.83084855443E+01 -0.19288603369E+02  0.21931634932E+02  0.00000000000E+00 0. -1.
         22    1    3    3    0    0 -0.31178150243E+02 -0.12881954976E+02  0.19014121657E+03  0.19311060058E+03  0.00000000000E+00 0. -1.
</event>
<event>
 7    1  0.6105960E-006  0.3760082E+02  0.7818608E-02  0.1584088E+00
          2   -1    0    0  502    0  0.00000000000E+00  0.00000000000E+00  0.16436130434E+04  0.16436130434E+04  0.00000000000E+00 0. -1.
          1   -1    0    0  501    0 -0.00000000000E+00 -0.00000000000E+00 -0.38152476989E+03  0.38152476989E+03  0.00000000000E+00 0. -1.
         25    2    1    2    0    0  0.60640884369E+02 -0.18805255719E+02  0.10633056963E+04  0.10725081608E+04  0.12499518629E+03 0.  0.
          2    1    1    2  501    0 -0.35189667711E+02  0.13183620964E+02 -0.37569069750E+03  0.37756538608E+03  0.00000000000E+00 0. -1.
          1    1    1    2  502    0 -0.25451216658E+02  0.56216347544E+01  0.57447327467E+03  0.57506426642E+03  0.00000000000E+00 0. -1.
         22    1    3    3    0    0 -0.28905404348E+02 -0.28323607022E+02  0.53971618742E+03  0.54123129259E+03  0.00000000000E+00 0. -1.
         22    1    3    3    0    0  0.89546288717E+02  0.95183513035E+01  0.52358950891E+03  0.53127686819E+03  0.00000000000E+00 0. -1.
</event>
<event>
 7    1  0.6105960E-006  0.1114287E+03  0.7818608E-02  0.1312063E+00
          2   -1    0    0  502    0  0.00000000000E+00  0.00000000000E+00  0.10925282618E+04  0.10925282618E+04  0.00000000000E+00 0. -1.
          1   -1    0    0  501    0 -0.00000000000E+00 -0.00000000000E+00 -0.47442382238E+03  0.47442382238E+03  0.00000000000E+00 0. -1.
         25    2    1    2    0    0 -0.70998392743E+02  0.15028943352E+03  0.28095066235E+03  0.34955078872E+03  0.12499917448E+03 0.  0.
          2    1    1    2  501    0  0.59827776539E+01 -0.66572499415E+02 -0.43393924408E+03  0.43905689706E+03  0.00000000000E+00 0. -1.
          1    1    1    2  502    0  0.65015615090E+02 -0.83716934102E+02  0.77109302114E+03  0.77834439839E+03  0.00000000000E+00 0. -1.
         22    1    3    3    0    0 -0.84993002234E+01  0.11120383707E+03  0.24134959213E+03  0.26587244518E+03  0.00000000000E+00 0. -1.
         22    1    3    3    0    0 -0.62499092520E+02  0.39085596449E+02  0.39601070220E+02  0.83678343544E+02  0.00000000000E+00 0. -1.
</event>
<event>
 7    1  0.6105960E-006  0.6797803E+02  0.7818608E-02  0.1512508E+00
          2   -1    0    0  502    0  0.00000000000E+00  0.00000000000E+00  0.13687020246E+04  0.13687020246E+04  0.00000000000E+00 0. -1.
          1   -1    0    0  501    0 -0.00000000000E+00 -0.00000000000E+00 -0.15495139947E+03  0.15495139947E+03  0.00000000000E+00 0. -1.
         25    2    1    2    0    0  0.60662485396E+02  0.18445046473E+02  0.84471197435E+03  0.85625999468E+03  0.12499080770E+03 0.  0.
          2    1    1    2  501    0 -0.67977233805E+02  0.32148923407E+01 -0.14114676810E+03  0.15669604333E+03  0.00000000000E+00 0. -1.
          1    1    1    2  502    0  0.73147484096E+01 -0.21659938814E+02  0.51018541890E+03  0.51069738608E+03  0.00000000000E+00 0. -1.
         22    1    3    3    0    0 -0.23480352541E+02 -0.17590786923E+01  0.50998732483E+03  0.51053059928E+03  0.00000000000E+00 0. -1.
         22    1    3    3    0    0  0.84142837937E+02  0.20204125165E+02  0.33472464951E+03  0.34572939540E+03  0.00000000000E+00 0. -1.
</event>
<event>
 7    1  0.6105960E-006  0.5995872E+02  0.7818608E-02  0.1444573E+00
          2   -1    0    0  502    0  0.00000000000E+00  0.00000000000E+00  0.62931275666E+03  0.62931275666E+03  0.00000000000E+00 0. -1.
          1   -1    0    0  501    0 -0.00000000000E+00 -0.00000000000E+00 -0.90677983833E+03  0.90677983833E+03  0.00000000000E+00 0. -1.
         25    2    1    2    0    0  0.92076484734E+02  0.82899445527E+01 -0.13989950968E+02  0.15609836091E+03  0.12499670928E+03 0.  0.
          2    1    1    2  501    0 -0.57509975330E+02  0.15450513283E+02 -0.81986679762E+03  0.82202656980E+03  0.00000000000E+00 0. -1.
          1    1    1    2  502    0 -0.34566509404E+02 -0.23740457835E+02  0.55638966692E+03  0.55796766427E+03  0.00000000000E+00 0. -1.
         22    1    3    3    0    0 -0.11317756756E+02 -0.18461954937E+02 -0.40617863986E+02  0.46029841113E+02  0.00000000000E+00 0.  1.
         22    1    3    3    0    0  0.10339424149E+03  0.26751899490E+02  0.26627913018E+02  0.11006851980E+03  0.00000000000E+00 0.  1.
</event>
<event>
 7    1  0.6105960E-006  0.1056745E+03  0.7818608E-02  0.1425510E+00
          2   -1    0    0  502    0  0.00000000000E+00  0.00000000000E+00  0.25449699946E+04  0.25449699946E+04  0.00000000000E+00 0. -1.
          1   -1    0    0  501    0 -0.00000000000E+00 -0.00000000000E+00 -0.42919769465E+02  0.42919769465E+02  0.00000000000E+00 0. -1.
         25    2    1    2    0    0 -0.72223902975E+01  0.10928537818E+03  0.11016407047E+04  0.11141056880E+04  0.12499513974E+03 0.  0.
          2    1    1    2  501    0 -0.19684416166E+02 -0.10378420584E+03  0.39778456690E+02  0.11287587536E+03  0.00000000000E+00 0. -1.
          1    1    1    2  502    0  0.26906806464E+02 -0.55011723400E+01  0.13606310637E+04  0.13609082006E+04  0.00000000000E+00 0. -1.
         22    1    3    3    0    0  0.15484211256E+02  0.87917995770E+02  0.33077682535E+03  0.34261150443E+03  0.00000000000E+00 0.  1.
         22    1    3    3    0    0 -0.22706601553E+02  0.21367382414E+02  0.77086387937E+03  0.77149418359E+03  0.00000000000E+00 0.  1.
</event>
<event>
 7    1  0.6105960E-006  0.4691101E+02  0.7818608E-02  0.1486264E+00
          2   -1    0    0  502    0  0.00000000000E+00  0.00000000000E+00  0.11866364573E+03  0.11866364573E+03  0.00000000000E+00 0. -1.
          1   -1    0    0  501    0 -0.00000000000E+00 -0.00000000000E+00 -0.13060535678E+04  0.13060535678E+04  0.00000000000E+00 0. -1.
         25    2    1    2    0    0  0.49015712455E+01  0.91109871685E+01 -0.65957867521E+02  0.14171348002E+03  0.12500093857E+03 0.  0.
          2    1    1    2  501    0 -0.43210123720E+02 -0.19460292514E+02 -0.11968475914E+04  0.11977854460E+04  0.00000000000E+00 0. -1.
          1    1    1    2  502    0  0.38308552475E+02  0.10349305345E+02  0.75415536855E+02  0.85218287432E+02  0.00000000000E+00 0. -1.
         22    1    3    3    0    0  0.18386119668E+02 -0.20484589125E+02 -0.94509384431E+02  0.98436230797E+02  0.00000000000E+00 0.  1.
         22    1    3    3    0    0 -0.13484548422E+02  0.29595576293E+02  0.28551516909E+02  0.43277249221E+02  0.00000000000E+00 0.  1.
</event>
<event>
 7    1  0.6105960E-006  0.1163789E+03  0.7818608E-02  0.1254736E+00
          2   -1    0    0  502    0  0.00000000000E+00  0.00000000000E+00  0.14720498513E+04  0.14720498513E+04  0.00000000000E+00 0. -1.
          1   -1    0    0  501    0 -0.00000000000E+00 -0.00000000000E+00 -0.10682451629E+04  0.10682451629E+04  0.00000000000E+00 0. -1.
         25    2    1    2    0    0  0.10374971847E+02  0.11301655997E+02  0.78737190161E+02  0.14854075027E+03  0.12501776636E+03 0.  0.
          2    1    1    2  501    0  0.89049185375E+02 -0.74928634124E+02 -0.10274879273E+04  0.10340577829E+04  0.00000000000E+00 0. -1.
          1    1    1    2  502    0 -0.99424157222E+02  0.63626978127E+02  0.13525554255E+04  0.13576964810E+04  0.00000000000E+00 0. -1.
         22    1    3    3    0    0 -0.55767860637E+02  0.11897968769E+02  0.21083545141E+02  0.60795820716E+02  0.00000000000E+00 0.  1.
         22    1    3    3    0    0  0.66142832484E+02 -0.59631277245E+00  0.57653645020E+02  0.87744929552E+02  0.00000000000E+00 0.  1.
</event>
<event>
 7    1  0.6105960E-006  0.1107179E+03  0.7818608E-02  0.1386675E+00
          2   -1    0    0  502    0  0.00000000000E+00  0.00000000000E+00  0.13744585086E+04  0.13744585086E+04  0.00000000000E+00 0. -1.
          1   -1    0    0  501    0 -0.00000000000E+00 -0.00000000000E+00 -0.71204455490E+03  0.71204455490E+03  0.00000000000E+00 0. -1.
         25    2    1    2    0    0 -0.14121932065E+03 -0.17604685277E+01  0.41316245000E+03  0.45417515222E+03  0.12500345204E+03 0.  0.
          2    1    1    2  501    0  0.10910340624E+03  0.17013452067E+02 -0.68679062773E+03  0.69561079429E+03  0.00000000000E+00 0. -1.
          1    1    1    2  502    0  0.32115914417E+02 -0.15252983540E+02  0.93604213145E+03  0.93671711702E+03  0.00000000000E+00 0. -1.
         22    1    3    3    0    0 -0.30293106436E+02  0.49446526826E+02  0.20259161903E+03  0.21072730106E+03  0.00000000000E+00 0. -1.
         22    1    3    3    0    0 -0.11092621422E+03 -0.51206995354E+02  0.21057083098E+03  0.24344785115E+03  0.00000000000E+00 0. -1.
</event>
<event>
 7    1  0.6105960E-006  0.9163522E+02  0.7818608E-02  0.1411795E+00
          2   -1    0    0  502    0  0.00000000000E+00  0.00000000000E+00  0.54308538244E+03  0.54308538244E+03  0.00000000000E+00 0. -1.
          1   -1    0    0  501    0 -0.00000000000E+00 -0.00000000000E+00 -0.13898051588E+03  0.13898051588E+03  0.00000000000E+00 0. -1.
         25    2    1    2    0    0 -0.10346640280E+03  0.66679635807E+02  0.19896461973E+03  0.26525421927E+03  0.12498564157E+03 0.  0.
          2    1    1    2  501    0  0.78827874154E+02 -0.41538140577E+02 -0.85831329223E+02  0.12371850283E+03  0.00000000000E+00 0. -1.
          1    1    1    2  502    0  0.24638528647E+02 -0.25141495230E+02  0.29097157606E+03  0.29309317623E+03  0.00000000000E+00 0. -1.
         22    1    3    3    0    0 -0.37441122055E+02  0.89967759351E+02  0.15335301246E+03  0.18169529926E+03  0.00000000000E+00 0.  1.
         22    1    3    3    0    0 -0.66025280746E+02 -0.23288123544E+02  0.45611607269E+02  0.83558920011E+02  0.00000000000E+00 0.  1.
</event>
<event>
 7    1  0.6105960E-006  0.9582476E+02  0.7818608E-02  0.1462653E+00
          2   -1    0    0  502    0  0.00000000000E+00  0.00000000000E+00  0.24112840408E+03  0.24112840408E+03  0.00000000000E+00 0. -1.
          1   -1    0    0  501    0 -0.00000000000E+00 -0.00000000000E+00 -0.55392882336E+03  0.55392882336E+03  0.00000000000E+00 0. -1.
         25    2    1    2    0    0 -0.40272664904E+02 -0.10247204907E+03  0.82204547401E+02  0.18575707629E+03  0.12500278157E+03 0.  0.
          2    1    1    2  501    0 -0.30888393480E+01  0.22773265428E+02 -0.48262256006E+03  0.48316942994E+03  0.00000000000E+00 0. -1.
          1    1    1    2  502    0  0.43361504252E+02  0.79698783646E+02  0.87617593375E+02  0.12613072122E+03  0.00000000000E+00 0. -1.
         22    1    3    3    0    0  0.39479931803E+02 -0.29221648889E+02 -0.11066507122E+01  0.49130382197E+02  0.00000000000E+00 0. -1.
         22    1    3    3    0    0 -0.79752596707E+02 -0.73250400185E+02  0.83311198114E+02  0.13662669410E+03  0.00000000000E+00 0. -1.
</event>
<event>
 7    1  0.6105960E-006  0.7493217E+02  0.7818608E-02  0.1430360E+00
          2   -1    0    0  502    0  0.00000000000E+00  0.00000000000E+00  0.21013923639E+03  0.21013923639E+03  0.00000000000E+00 0. -1.
          1   -1    0    0  501    0 -0.00000000000E+00 -0.00000000000E+00 -0.13930154257E+04  0.13930154257E+04  0.00000000000E+00 0. -1.
         25    2    1    2    0    0  0.51141096811E+01  0.44740001858E+02  0.10110375321E+03  0.16695444532E+03  0.12499598400E+03 0.  0.
          2    1    1    2  501    0 -0.35661140620E+02 -0.66194991080E+02 -0.13544067238E+04  0.13564921922E+04  0.00000000000E+00 0. -1.
          1    1    1    2  502    0  0.30547030939E+02  0.21454989222E+02  0.70426781320E+02  0.79708024620E+02  0.00000000000E+00 0. -1.
         22    1    3    3    0    0  0.37887889678E+02  0.68785066756E+02  0.98846028406E+02  0.12624347478E+03  0.00000000000E+00 0.  1.
         22    1    3    3    0    0 -0.32773779997E+02 -0.24045064898E+02  0.22577248022E+01  0.40710970543E+02  0.00000000000E+00 0.  1.
</event>
<event>
 7    1  0.6105960E-006  0.3920646E+02  0.7818608E-02  0.1612302E+00
          2   -1    0    0  502    0  0.00000000000E+00  0.00000000000E+00  0.36302266832E+03  0.36302266832E+03  0.00000000000E+00 0. -1.
          1   -1    0    0  501    0 -0.00000000000E+00 -0.00000000000E+00 -0.56509121862E+02  0.56509121862E+02  0.00000000000E+00 0. -1.
         25    2    1    2    0    0  0.26661220682E+01  0.44151545873E+02  0.14514415769E+03  0.19659209713E+03  0.12500063574E+03 0.  0.
          2    1    1    2  501    0  0.16574501127E+02 -0.35524908953E+02 -0.17429824227E+02  0.42901422078E+02  0.00000000000E+00 0. -1.
          1    1    1    2  502    0 -0.19240623195E+02 -0.86266369200E+01  0.17879921300E+03  0.18003827097E+03  0.00000000000E+00 0. -1.
         22    1    3    3    0    0  0.39348665812E+02 -0.27168452156E+02  0.80291113600E+02  0.93451084621E+02  0.00000000000E+00 0.  1.
         22    1    3    3    0    0 -0.36682543744E+02  0.71319998029E+02  0.64853044085E+02  0.10314101251E+03  0.00000000000E+00 0.  1.
</event>
<event>
 7    1  0.6105960E-006  0.9816578E+02  0.7818608E-02  0.1340413E+00
          2   -1    0    0  502    0  0.00000000000E+00  0.00000000000E+00  0.12700985706E+03  0.12700985706E+03  0.00000000000E+00 0. -1.
          1   -1    0    0  501    0 -0.00000000000E+00 -0.00000000000E+00 -0.98574428484E+03  0.98574428484E+03  0.00000000000E+00 0. -1.
         25    2    1    2    0    0  0.68791322840E+02  0.13523007493E+03 -0.31357130807E+03  0.37009673740E+03  0.12500084210E+03 0.  0.
          2    1    1    2  501    0 -0.15646443233E+02 -0.56926776504E+02 -0.61950648507E+03  0.62231322830E+03  0.00000000000E+00 0. -1.
          1    1    1    2  502    0 -0.53144879607E+02 -0.78303298426E+02  0.74343365360E+02  0.12034417620E+03  0.00000000000E+00 0. -1.
         22    1    3    3    0    0  0.15980872826E+02  0.29407833979E+02  0.15575629537E+01  0.33505745746E+02  0.00000000000E+00 0. -1.
         22    1    3    3    0    0  0.52810450014E+02  0.10582224095E+03 -0.31512887102E+03  0.33659099165E+03  0.00000000000E+00 0. -1.
</event>
<event>
 7    1  0.6105960E-006  0.6122921E+02  0.7818608E-02  0.1467322E+00
          2   -1    0    0  502    0  0.00000000000E+00  0.00000000000E+00  0.80822271273E+03  0.80822271273E+03  0.00000000000E+00 0. -1.
          1   -1    0    0  501    0 -0.00000000000E+00 -0.00000000000E+00 -0.35922527556E+03  0.35922527556E+03  0.00000000000E+00 0. -1.
         25    2    1    2    0    0 -0.34865629972E+02  0.15510097762E+01  0.81385690329E+02  0.15318515085E+03  0.12499616820E+03 0.  0.
          2    1    1    2  501    0  0.53873550191E+02 -0.30672347505E+02 -0.31991044994E+03  0.32586170118E+03  0.00000000000E+00 0. -1.
          1    1    1    2  502    0 -0.19007920219E+02  0.29121337729E+02  0.68752219678E+03  0.68840113627E+03  0.00000000000E+00 0. -1.
         22    1    3    3    0    0  0.14200281744E+02 -0.30214642249E+02  0.88229733803E+02  0.94334821433E+02  0.00000000000E+00 0. -1.
         22    1    3    3    0    0 -0.49065911716E+02  0.31765652026E+02 -0.68440434736E+01  0.58850329415E+02  0.00000000000E+00 0. -1.
</event>
<event>
 7    1  0.6105960E-006  0.1802491E+03  0.7818608E-02  0.1317532E+00
          2   -1    0    0  502    0  0.00000000000E+00  0.00000000000E+00  0.10767349837E+04  0.10767349837E+04  0.00000000000E+00 0. -1.
          1   -1    0    0  501    0 -0.00000000000E+00 -0.00000000000E+00 -0.24179137003E+03  0.24179137003E+03  0.00000000000E+00 0. -1.
         25    2    1    2    0    0  0.19141590836E+03  0.10038873052E+03  0.42929385931E+03  0.49662347244E+03  0.12499483410E+03 0.  0.
          2    1    1    2  501    0 -0.15429421709E+03 -0.87381931696E+02 -0.16956437104E+03  0.24534543676E+03  0.00000000000E+00 0. -1.
          1    1    1    2  502    0 -0.37121691273E+02 -0.13006798820E+02  0.57521412538E+03  0.57655744451E+03  0.00000000000E+00 0. -1.
         22    1    3    3    0    0  0.63604381922E+01 -0.15670308144E+01 -0.83705083796E+01  0.10629024890E+02  0.00000000000E+00 0. -1.
         22    1    3    3    0    0  0.18505547017E+03  0.10195576133E+03  0.43766436769E+03  0.48599444756E+03  0.00000000000E+00 0. -1.
</event>
<event>
 7    1  0.6105960E-006  0.1095006E+03  0.7818608E-02  0.1332730E+00
          2   -1    0    0  502    0  0.00000000000E+00  0.00000000000E+00  0.16242362179E+04  0.16242362179E+04  0.00000000000E+00 0. -1.
          1   -1    0    0  501    0 -0.00000000000E+00 -0.00000000000E+00 -0.58698070450E+03  0.58698070450E+03  0.00000000000E+00 0. -1.
         25    2    1    2    0    0  0.12989632887E+03  0.88588578930E+02  0.19218734242E+03  0.27799624032E+03  0.12499976991E+03 0.  0.
          2    1    1    2  501    0 -0.30719983992E+02 -0.47524273867E+02 -0.54052336695E+03  0.54347749194E+03  0.00000000000E+00 0. -1.
          1    1    1    2  502    0 -0.99176344876E+02 -0.41064305063E+02  0.13855915380E+04  0.13897431902E+04  0.00000000000E+00 0. -1.
         22    1    3    3    0    0  0.54663383511E+02 -0.27155779699E+01  0.29365337326E+01  0.54809516427E+02  0.00000000000E+00 0.  1.
         22    1    3    3    0    0  0.75232945357E+02  0.91304156900E+02  0.18925080869E+03  0.22318672389E+03  0.00000000000E+00 0.  1.
</event>
<event>
 7    1  0.6105960E-006  0.6814252E+02  0.7818608E-02  0.1519041E+00
          2   -1    0    0  502    0  0.00000000000E+00  0.00000000000E+00  0.63031674011E+03  0.63031674011E+03  0.00000000000E+00 0. -1.
          1   -1    0    0  501    0 -0.00000000000E+00 -0.00000000000E+00 -0.56619694930E+03  0.56619694930E+03  0.00000000000E+00 0. -1.
         25    2    1    2    0    0 -0.85222509252E+02  0.19549765537E+02  0.48308466241E+02  0.16001361451E+03  0.12500231799E+03 0.  0.
          2    1    1    2  501    0  0.63684550340E+02 -0.23085551017E+02 -0.50786822236E+03  0.51236588089E+03  0.00000000000E+00 0. -1.
          1    1    1    2  502    0  0.21537958912E+02  0.35357854806E+01  0.52367954693E+03  0.52413419401E+03  0.00000000000E+00 0. -1.
         22    1    3    3    0    0 -0.76355756361E+02  0.65355963077E+02  0.12668147485E+02  0.10130195161E+03  0.00000000000E+00 0. -1.
         22    1    3    3    0    0 -0.88667528902E+01 -0.45806197540E+02  0.35640318755E+02  0.58711662904E+02  0.00000000000E+00 0. -1.
</event>
<event>
 7    1  0.6105960E-006  0.1632580E+03  0.7818608E-02  0.1224640E+00
          2   -1    0    0  502    0  0.00000000000E+00  0.00000000000E+00  0.18496688523E+04  0.18496688523E+04  0.00000000000E+00 0. -1.
          1   -1    0    0  501    0 -0.00000000000E+00 -0.00000000000E+00 -0.16489237223E+03  0.16489237223E+03  0.00000000000E+00 0. -1.
         25    2    1    2    0    0  0.18039120730E+03  0.13689327471E+03  0.10373801542E+03  0.27868823203E+03  0.12499919400E+03 0.  0.
          2    1    1    2  501    0 -0.10639563451E+03  0.64449846087E+01 -0.34704159709E+02  0.11209793741E+03  0.00000000000E+00 0. -1.
          1    1    1    2  502    0 -0.73995572784E+02 -0.14333825931E+03  0.16157426244E+04  0.16237750551E+04  0.00000000000E+00 0. -1.
         22    1    3    3    0    0  0.10515483866E+03  0.14905583012E+03  0.75195608072E+02  0.19730575273E+03  0.00000000000E+00 0. -1.
         22    1    3    3    0    0  0.75236368634E+02 -0.12162555419E+02  0.28542407349E+02  0.81382479299E+02  0.00000000000E+00 0. -1.
</event>
<event>
 7    1  0.6105960E-006  0.4603514E+03  0.7818608E-02  0.1130445E+00
          2   -1    0    0  502    0  0.00000000000E+00  0.00000000000E+00  0.36248954939E+04  0.36248954939E+04  0.00000000000E+00 0. -1.
          1   -1    0    0  501    0 -0.00000000000E+00 -0.00000000000E+00 -0.32407341123E+03  0.32407341123E+03  0.00000000000E+00 0. -1.
         25    2    1    2    0    0  0.19917306998E+03 -0.36314294273E+03  0.86516108902E+03  0.96730068341E+03  0.12499677400E+03 0.  0.
          2    1    1    2  501    0 -0.30868603177E+03  0.35760848223E+03 -0.66533802152E+02  0.47707194384E+03  0.00000000000E+00 0. -1.
          1    1    1    2  502    0  0.10951296179E+03  0.55344605035E+01  0.25021947958E+04  0.25045962779E+04  0.00000000000E+00 0. -1.
         22    1    3    3    0    0  0.92272867958E+02 -0.27893815918E+03  0.63991776850E+03  0.70414169686E+03  0.00000000000E+00 0. -1.
         22    1    3    3    0    0  0.10690020202E+03 -0.84204783549E+02  0.22524332052E+03  0.26315898655E+03  0.00000000000E+00 0. -1.
</event>
<event>
 7    1  0.6105960E-006  0.5244099E+02  0.7818608E-02  0.1452972E+00
          2   -1    0    0  502    0  0.00000000000E+00  0.00000000000E+00  0.29609096530E+03  0.29609096530E+03  0.00000000000E+00 0. -1.
          1   -1    0    0  501    0 -0.00000000000E+00 -0.00000000000E+00 -0.18285949077E+03  0.18285949077E+03  0.00000000000E+00 0. -1.
         25    2    1    2    0    0 -0.79374314103E+02 -0.51970396808E+02  0.51986458380E+02  0.16531383988E+03  0.12499947966E+03 0.  0.
          2    1    1    2  501    0  0.44976835368E+02  0.22857847628E+02 -0.11825433875E+03  0.12856704691E+03  0.00000000000E+00 0. -1.
          1    1    1    2  502    0  0.34397478735E+02  0.29112549181E+02  0.17949935490E+03  0.18506956928E+03  0.00000000000E+00 0. -1.
         22    1    3    3    0    0 -0.14475684243E+02 -0.75920735161E+02 -0.23875272934E+01  0.77325311175E+02  0.00000000000E+00 0.  1.
         22    1    3    3    0    0 -0.64898629860E+02  0.23950338353E+02  0.54373985673E+02  0.87988528700E+02  0.00000000000E+00 0.  1.
</event>
<event>
 7    1  0.6105960E-006  0.3995826E+02  0.7818608E-02  0.1587788E+00
          2   -1    0    0  502    0  0.00000000000E+00  0.00000000000E+00  0.72653699330E+03  0.72653699330E+03  0.00000000000E+00 0. -1.
          1   -1    0    0  501    0 -0.00000000000E+00 -0.00000000000E+00 -0.46052016946E+03  0.46052016946E+03  0.00000000000E+00 0. -1.
         25    2    1    2    0    0  0.12437746193E+01 -0.63023114004E+02 -0.82949251348E+02  0.16272373001E+03  0.12499989654E+03 0.  0.
          2    1    1    2  501    0  0.19078196582E+01  0.39253984163E+02 -0.33632984121E+03  0.33861818784E+03  0.00000000000E+00 0. -1.
          1    1    1    2  502    0 -0.31515942775E+01  0.23769129841E+02  0.68529591639E+03  0.68571524491E+03  0.00000000000E+00 0. -1.
         22    1    3    3    0    0  0.20572525724E+02  0.33474109440E+02 -0.10960752654E+02  0.40790720957E+02  0.00000000000E+00 0. -1.
         22    1    3    3    0    0 -0.19328751105E+02 -0.96497223444E+02 -0.71988498694E+02  0.12193300905E+03  0.00000000000E+00 0. -1.
</event>
<event>
 7    1  0.6105960E-006  0.4685088E+02  0.7818608E-02  0.1507654E+00
          2   -1    0    0  502    0  0.00000000000E+00  0.00000000000E+00  0.88345797645E+02  0.88345797645E+02  0.00000000000E+00 0. -1.
          1   -1    0    0  501    0 -0.00000000000E+00 -0.00000000000E+00 -0.49993385923E+03  0.49993385923E+03  0.00000000000E+00 0. -1.
         25    2    1    2    0    0  0.35051443500E+02  0.26572076977E+02 -0.38468174591E+03  0.40686477680E+03  0.12499688797E+03 0.  0.
          2    1    1    2  501    0 -0.11785011939E+02 -0.51748032316E+02 -0.92932672353E+02  0.10701975026E+03  0.00000000000E+00 0. -1.
          1    1    1    2  502    0 -0.23266431561E+02  0.25175955339E+02  0.66026356672E+02  0.74395129815E+02  0.00000000000E+00 0. -1.
         22    1    3    3    0    0  0.60185820652E+02  0.44285752201E+02 -0.12697681012E+03  0.14733184029E+03  0.00000000000E+00 0. -1.
         22    1    3    3    0    0 -0.25134377152E+02 -0.17713675224E+02 -0.25770493579E+03  0.25953293651E+03  0.00000000000E+00 0. -1.
</event>
<event>
 7    1  0.6105960E-006  0.1155455E+03  0.7818608E-02  0.1332243E+00
          2   -1    0    0  502    0  0.00000000000E+00  0.00000000000E+00  0.35535645323E+03  0.35535645323E+03  0.00000000000E+00 0. -1.
          1   -1    0    0  501    0 -0.00000000000E+00 -0.00000000000E+00 -0.85823561491E+03  0.85823561491E+03  0.00000000000E+00 0. -1.
         25    2    1    2    0    0 -0.90260107159E+02  0.97733579608E+01 -0.80812100787E+02  0.17435077018E+03  0.12500075983E+03 0.  0.
          2    1    1    2  501    0  0.11226481743E+03  0.39383593856E+02 -0.72340771796E+03  0.73312562573E+03  0.00000000000E+00 0. -1.
          1    1    1    2  502    0 -0.22004710275E+02 -0.49156951817E+02  0.30134065706E+03  0.30611567223E+03  0.00000000000E+00 0. -1.
         22    1    3    3    0    0 -0.15354666075E+01 -0.32829460919E+02  0.15771984161E+02  0.36453897546E+02  0.00000000000E+00 0. -1.
         22    1    3    3    0    0 -0.88724640552E+02  0.42602818880E+02 -0.96584084948E+02  0.13789687264E+03  0.00000000000E+00 0. -1.
</event>
<event>
 7    1  0.6105960E-006  0.3823393E+02  0.7818608E-02  0.1603034E+00
          2   -1    0    0  502    0  0.00000000000E+00  0.00000000000E+00  0.38515288771E+03  0.38515288771E+03  0.00000000000E+00 0. -1.
          1   -1    0    0  501    0 -0.00000000000E+00 -0.00000000000E+00 -0.10422661284E+04  0.10422661284E+04  0.00000000000E+00 0. -1.
         25    2    1    2    0    0 -0.30130512401E+02  0.23505903007E+02 -0.83427556890E+02  0.15506959311E+03  0.12500418475E+03 0.  0.
          2    1    1    2  501    0  0.11388737082E+02 -0.36577022202E+02 -0.92224582295E+03  0.92304113659E+03  0.00000000000E+00 0. -1.
          1    1    1    2  502    0  0.18741775320E+02  0.13071119195E+02  0.34856013919E+03  0.34930828637E+03  0.00000000000E+00 0. -1.
         22    1    3    3    0    0  0.44263113375E+02 -0.24837591126E+01 -0.56449055377E+02  0.71776654408E+02  0.00000000000E+00 0.  1.
         22    1    3    3    0    0 -0.74393625777E+02  0.25989662119E+02 -0.26978501512E+02  0.83292938699E+02  0.00000000000E+00 0.  1.
</event>
<event>
 7    1  0.6105960E-006  0.5477717E+02  0.7818608E-02  0.1464120E+00
          2   -1    0    0  502    0  0.00000000000E+00  0.00000000000E+00  0.28841260642E+04  0.28841260642E+04  0.00000000000E+00 0. -1.
          1   -1    0    0  501    0 -0.00000000000E+00 -0.00000000000E+00 -0.23916965320E+02  0.23916965320E+02  0.00000000000E+00 0. -1.
         25    2    1    2    0    0 -0.36509592242E+02  0.79503031980E+02  0.50458279968E+03  0.52714623951E+03  0.12500269469E+03 0.  0.
          2    1    1    2  501    0  0.88973536720E+01 -0.50868176764E+02  0.41022912356E+02  0.65951600798E+02  0.00000000000E+00 0. -1.
          1    1    1    2  502    0  0.27612238570E+02 -0.28634855216E+02  0.23146033869E+04  0.23149451892E+04  0.00000000000E+00 0. -1.
         22    1    3    3    0    0 -0.48232508750E+02 -0.19614657773E+02  0.14977874339E+03  0.15857106190E+03  0.00000000000E+00 0. -1.
         22    1    3    3    0    0  0.11722916509E+02  0.99117689754E+02  0.35480405629E+03  0.36857517761E+03  0.00000000000E+00 0. -1.
</event>
<event>
 7    1  0.6105960E-006  0.1653742E+03  0.7818608E-02  0.1383939E+00
          2   -1    0    0  502    0  0.00000000000E+00  0.00000000000E+00  0.20769690914E+03  0.20769690914E+03  0.00000000000E+00 0. -1.
          1   -1    0    0  501    0 -0.00000000000E+00 -0.00000000000E+00 -0.20834615465E+04  0.20834615465E+04  0.00000000000E+00 0. -1.
         25    2    1    2    0    0  0.16955333871E+03  0.62590738942E+01  0.75502794589E+02  0.22385736916E+03  0.12499575618E+03 0.  0.
          2    1    1    2  501    0 -0.16438387497E+03  0.17521804273E+02 -0.20031681222E+04  0.20099780093E+04  0.00000000000E+00 0. -1.
          1    1    1    2  502    0 -0.51694637437E+01 -0.23780878167E+02  0.51900690292E+02  0.57323077156E+02  0.00000000000E+00 0. -1.
         22    1    3    3    0    0  0.16703708727E+03 -0.33910736300E+02  0.59206374541E+02  0.18043481191E+03  0.00000000000E+00 0. -1.
         22    1    3    3    0    0  0.25162514381E+01  0.40169810194E+02  0.16296420048E+02  0.43422557256E+02  0.00000000000E+00 0. -1.
</event>
<event>
 7    1  0.6105960E-006  0.1306134E+03  0.7818608E-02  0.1230778E+00
          2   -1    0    0  502    0  0.00000000000E+00  0.00000000000E+00  0.63820100353E+03  0.63820100353E+03  0.00000000000E+00 0. -1.
          1   -1    0    0  501    0 -0.00000000000E+00 -0.00000000000E+00 -0.95706970709E+02  0.95706970709E+02  0.00000000000E+00 0. -1.
         25    2    1    2    0    0 -0.13757095708E+03  0.12950811553E+02  0.25155012901E+03  0.31304342872E+03  0.12500091643E+03 0.  0.
          2    1    1    2  501    0  0.56893476260E+02  0.11132516093E+03  0.43349681332E+02  0.13232291551E+03  0.00000000000E+00 0. -1.
          1    1    1    2  502    0  0.80677480816E+02 -0.12427597248E+03  0.24759422248E+03  0.28854163002E+03  0.00000000000E+00 0. -1.
         22    1    3    3    0    0 -0.75694142337E+02  0.68256816109E+02  0.15760658969E+03  0.18769238995E+03  0.00000000000E+00 0. -1.
         22    1    3    3    0    0 -0.61876814739E+02 -0.55306004556E+02  0.93943539314E+02  0.12535103877E+03  0.00000000000E+00 0. -1.
</event>
<event>
 7    1  0.8315384E-006  0.5168316E+02  0.7818608E-02  0.1458953E+00
          2   -1    0    0  502    0  0.00000000000E+00  0.00000000000E+00  0.14240022454E+04  0.14240022454E+04  0.00000000000E+00 0. -1.
          1   -1    0    0  501    0 -0.00000000000E+00 -0.00000000000E+00 -0.67347467972E+03  0.67347467972E+03  0.00000000000E+00 0. -1.
         25    2    1    2    0    0 -0.38974700638E+02 -0.16358868065E+01 -0.25023600888E+03  0.28242881188E+03  0.12500508079E+03 0.  0.
          2    1    1    2  501    0  0.31547339480E+02  0.44770657095E+02 -0.40495820879E+03  0.40864507489E+03  0.00000000000E+00 0. -1.
          1    1    1    2  502    0  0.74273611580E+01 -0.43134770289E+02  0.14057217834E+04  0.14064030384E+04  0.00000000000E+00 0. -1.
         22    1    3    3    0    0 -0.55018483413E+01 -0.57015714407E+02 -0.16976007493E+03  0.17916345907E+03  0.00000000000E+00 0.  1.
         22    1    3    3    0    0 -0.33472852297E+02  0.55379827600E+02 -0.80475933946E+02  0.10326535281E+03  0.00000000000E+00 0.  1.
</event>
<event>
 7    1  0.6105960E-006  0.1063328E+03  0.7818608E-02  0.1278118E+00
          2   -1    0    0  502    0  0.00000000000E+00  0.00000000000E+00  0.19212612869E+04  0.19212612869E+04  0.00000000000E+00 0. -1.
          1   -1    0    0  501    0 -0.00000000000E+00 -0.00000000000E+00 -0.35803062016E+03  0.35803062016E+03  0.00000000000E+00 0. -1.
         25    2    1    2    0    0 -0.84981113329E+02 -0.18170604573E+03  0.78313719735E+02  0.24899274461E+03  0.12500188596E+03 0.  0.
          2    1    1    2  501    0  0.42115172119E+02  0.86286611582E+02 -0.26262642901E+03  0.27962780311E+03  0.00000000000E+00 0. -1.
          1    1    1    2  502    0  0.42865941210E+02  0.95419434146E+02  0.17475433760E+04  0.17506713594E+04  0.00000000000E+00 0. -1.
         22    1    3    3    0    0  0.70370173528E+01 -0.69148620185E+02  0.76825386642E+02  0.10360111640E+03  0.00000000000E+00 0. -1.
         22    1    3    3    0    0 -0.92018130682E+02 -0.11255742554E+03  0.14883330927E+01  0.14539162821E+03  0.00000000000E+00 0. -1.
</event>
<event>
 7    1  0.6105960E-006  0.7041738E+02  0.7818608E-02  0.1459531E+00
          2   -1    0    0  502    0  0.00000000000E+00  0.00000000000E+00  0.11173106468E+03  0.11173106468E+03  0.00000000000E+00 0. -1.
          1   -1    0    0  501    0 -0.00000000000E+00 -0.00000000000E+00 -0.16418649174E+04  0.16418649174E+04  0.00000000000E+00 0. -1.
         25    2    1    2    0    0 -0.85253283760E+02 -0.27004849028E+02 -0.71019502328E+03  0.72663582524E+03  0.12500106862E+03 0.  0.
          2    1    1    2  501    0  0.28576555284E+02 -0.14378950455E+02 -0.91124187861E+03  0.91180323265E+03  0.00000000000E+00 0. -1.
          1    1    1    2  502    0  0.56676728476E+02  0.41383799483E+02  0.91303049150E+02  0.11515692421E+03  0.00000000000E+00 0. -1.
         22    1    3    3    0    0 -0.40115362439E+02  0.36858102011E+02 -0.48895888986E+03  0.49198430662E+03  0.00000000000E+00 0. -1.
         22    1    3    3    0    0 -0.45137921321E+02 -0.63862951038E+02 -0.22123613343E+03  0.23465151862E+03  0.00000000000E+00 0. -1.
</event>
<event>
 7    1  0.6105960E-006  0.6760292E+02  0.7818608E-02  0.1451939E+00
          2   -1    0    0  502    0  0.00000000000E+00  0.00000000000E+00  0.21533744290E+03  0.21533744290E+03  0.00000000000E+00 0. -1.
          1   -1    0    0  501    0 -0.00000000000E+00 -0.00000000000E+00 -0.21906496428E+03  0.21906496428E+03  0.00000000000E+00 0. -1.
         25    2    1    2    0    0  0.33104300847E+01  0.77286846914E+02  0.75139130662E+02  0.16509154635E+03  0.12500045627E+03 0.  0.
          2    1    1    2  501    0 -0.33257113523E+02 -0.58743891689E+02 -0.16390756361E+03  0.17726412446E+03  0.00000000000E+00 0. -1.
          1    1    1    2  502    0  0.29946683438E+02 -0.18542955225E+02  0.85040911560E+02  0.92046736370E+02  0.00000000000E+00 0. -1.
         22    1    3    3    0    0 -0.21787793138E+02 -0.23131274267E+02 -0.74905023905E+01  0.32647686061E+02  0.00000000000E+00 0.  1.
         22    1    3    3    0    0  0.25098223223E+02  0.10041812118E+03  0.82629633053E+02  0.13244386029E+03  0.00000000000E+00 0.  1.
</event>
<event>
 7    1  0.6105960E-006  0.9400869E+02  0.7818608E-02  0.1375143E+00
          2   -1    0    0  502    0  0.00000000000E+00  0.00000000000E+00  0.18612472737E+03  0.18612472737E+03  0.00000000000E+00 0. -1.
          1   -1    0    0  501    0 -0.00000000000E+00 -0.00000000000E+00 -0.31024293303E+03  0.31024293303E+03  0.00000000000E+00 0. -1.
         25    2    1    2    0    0 -0.63100235945E+02  0.10582161389E+03  0.63273834541E+02  0.18657417636E+03  0.12500596548E+03 0.  0.
          2    1    1    2  501    0  0.90443006993E+01 -0.45098903601E+02 -0.21809408914E+03  0.22289177239E+03  0.00000000000E+00 0. -1.
          1    1    1    2  502    0  0.54055935245E+02 -0.60722710287E+02  0.30702048931E+02  0.86901711654E+02  0.00000000000E+00 0. -1.
         22    1    3    3    0    0 -0.89919398160E+02  0.74687731631E+02  0.80591728607E+02  0.14198162607E+03  0.00000000000E+00 0. -1.
         22    1    3    3    0    0  0.26819162215E+02  0.31133882257E+02 -0.17317894067E+02  0.44592550289E+02  0.00000000000E+00 0. -1.
</event>
<event>
 7    1  0.6105960E-006  0.1506158E+03  0.7818608E-02  0.1382051E+00
          2   -1    0    0  502    0  0.00000000000E+00  0.00000000000E+00  0.51472687439E+03  0.51472687439E+03  0.00000000000E+00 0. -1.
          1   -1    0    0  501    0 -0.00000000000E+00 -0.00000000000E+00 -0.80003513132E+03  0.80003513132E+03  0.00000000000E+00 0. -1.
         25    2    1    2    0    0  0.75921676010E+02  0.11226180740E+03  0.11855097181E+03  0.21919002640E+03  0.12499248165E+03 0.  0.
          2    1    1    2  501    0 -0.10302110538E+03 -0.11090173432E+03 -0.74152543324E+03  0.75681735641E+03  0.00000000000E+00 0. -1.
          1    1    1    2  502    0  0.27099429368E+02 -0.13600730837E+01  0.33766620450E+03  0.33875462290E+03  0.00000000000E+00 0. -1.
         22    1    3    3    0    0  0.16267926156E+02  0.43923115399E+02  0.11962842767E+03  0.12847118819E+03  0.00000000000E+00 0.  1.
         22    1    3    3    0    0  0.59653749854E+02  0.68338692003E+02 -0.10774558602E+01  0.90718838217E+02  0.00000000000E+00 0.  1.
</event>
<event>
 7    1  0.6105960E-006  0.6236928E+02  0.7818608E-02  0.1415953E+00
          2   -1    0    0  502    0  0.00000000000E+00  0.00000000000E+00  0.83640225377E+03  0.83640225377E+03  0.00000000000E+00 0. -1.
          1   -1    0    0  501    0 -0.00000000000E+00 -0.00000000000E+00 -0.18447734409E+04  0.18447734409E+04  0.00000000000E+00 0. -1.
         25    2    1    2    0    0  0.83223398699E+02 -0.24771894316E+02  0.64316506961E+02  0.16523259223E+03  0.12500166250E+03 0.  0.
          2    1    1    2  501    0 -0.59289413984E+02 -0.19215832486E+02 -0.17929044783E+04  0.17939874445E+04  0.00000000000E+00 0. -1.
          1    1    1    2  502    0 -0.23933984715E+02  0.43987726802E+02  0.72021678421E+03  0.72195565792E+03  0.00000000000E+00 0. -1.
         22    1    3    3    0    0  0.80825624402E+02  0.33899953166E+02  0.60276133162E+02  0.10637293177E+03  0.00000000000E+00 0.  1.
         22    1    3    3    0    0  0.23977742970E+01 -0.58671847482E+02  0.40403737993E+01  0.58859660456E+02  0.00000000000E+00 0.  1.
</event>
<event>
 7    1  0.6105960E-006  0.1181083E+03  0.7818608E-02  0.1444100E+00
          2   -1    0    0  502    0  0.00000000000E+00  0.00000000000E+00  0.96862951558E+03  0.96862951558E+03  0.00000000000E+00 0. -1.
          1   -1    0    0  501    0 -0.00000000000E+00 -0.00000000000E+00 -0.31151255042E+02  0.31151255042E+02  0.00000000000E+00 0. -1.
         25    2    1    2    0    0 -0.74502019241E+02  0.74627902949E+02  0.49634756811E+03  0.52259512104E+03  0.12499950958E+03 0.  0.
          2    1    1    2  501    0 -0.14307823623E+02  0.15863808256E+02  0.36126952197E+01  0.21666236313E+02  0.00000000000E+00 0. -1.
          1    1    1    2  502    0  0.88809842864E+02 -0.90491711205E+02  0.43751799720E+03  0.45551941326E+03  0.00000000000E+00 0. -1.
         22    1    3    3    0    0  0.31858355926E+01  0.15171962501E+02 -0.11734814938E+01  0.15547187957E+02  0.00000000000E+00 0. -1.
         22    1    3    3    0    0 -0.77687854833E+02  0.59455940448E+02  0.49752104961E+03  0.50704793309E+03  0.00000000000E+00 0. -1.
</event>
<event>
 7    1  0.6105960E-006  0.6801061E+02  0.7818608E-02  0.1525857E+00
          2   -1    0    0  502    0  0.00000000000E+00  0.00000000000E+00  0.66487617039E+02  0.66487617039E+02  0.00000000000E+00 0. -1.
          1   -1    0    0  501    0 -0.00000000000E+00 -0.00000000000E+00 -0.11089283259E+04  0.11089283259E+04  0.00000000000E+00 0. -1.
         25    2    1    2    0    0  0.19165832729E+02 -0.65946665545E+02 -0.14422222426E+03  0.20283265610E+03  0.12499897827E+03 0.  0.
          2    1    1    2  501    0 -0.20757283045E+02 -0.24168330738E+01 -0.90373734607E+03  0.90397892485E+03  0.00000000000E+00 0. -1.
          1    1    1    2  502    0  0.15914503154E+01  0.68363498619E+02  0.55188614362E+01  0.68604362027E+02  0.00000000000E+00 0. -1.
         22    1    3    3    0    0  0.35276952242E+02 -0.69066495197E+02 -0.23551690993E+02  0.81051380414E+02  0.00000000000E+00 0. -1.
         22    1    3    3    0    0 -0.16111119513E+02  0.31198296522E+01 -0.12067053327E+03  0.12178127569E+03  0.00000000000E+00 0. -1.
</event>
<event>
 7    1  0.6105960E-006  0.4709939E+03  0.7818608E-02  0.1216995E+00
          2   -1    0    0  502    0  0.00000000000E+00  0.00000000000E+00  0.30111484123E+04  0.30111484123E+04  0.00000000000E+00 0. -1.
          1   -1    0    0  501    0 -0.00000000000E+00 -0.00000000000E+00 -0.29277030987E+03  0.29277030987E+03  0.00000000000E+00 0. -1.
         25    2    1    2    0    0  0.36340909803E+03  0.24766939919E+03  0.39547726106E+03  0.60450735119E+03  0.12498227795E+03 0.  0.
          2    1    1    2  501    0  0.23967389808E+02  0.32062281548E+02 -0.16308320022E+03  0.16792425634E+03  0.00000000000E+00 0. -1.
          1    1    1    2  502    0 -0.38737648784E+03 -0.27973168074E+03  0.24859840416E+04  0.25314871146E+04  0.00000000000E+00 0. -1.
         22    1    3    3    0    0  0.33352704702E+03  0.18318537830E+03  0.36465847771E+03  0.52704172442E+03  0.00000000000E+00 0.  1.
         22    1    3    3    0    0  0.29882051004E+02  0.64484020899E+02  0.30818783353E+02  0.77465626770E+02  0.00000000000E+00 0.  1.
</event>
<event>
 7    1  0.6105960E-006  0.9804711E+02  0.7818608E-02  0.1358840E+00
          2   -1    0    0  502    0  0.00000000000E+00  0.00000000000E+00  0.27980891912E+03  0.27980891912E+03  0.00000000000E+00 0. -1.
          1   -1    0    0  501    0 -0.00000000000E+00 -0.00000000000E+00 -0.13468275255E+04  0.13468275255E+04  0.00000000000E+00 0. -1.
         25    2    1    2    0    0 -0.59287349425E+02  0.14846994203E+02 -0.47020938601E+03  0.49036334600E+03  0.12499568543E+03 0.  0.
          2    1    1    2  501    0  0.10965636838E+03 -0.18557426380E+02 -0.86056680729E+03  0.86772353144E+03  0.00000000000E+00 0. -1.
          1    1    1    2  502    0 -0.50369018955E+02  0.37104321771E+01  0.26375758691E+03  0.26854956718E+03  0.00000000000E+00 0. -1.
         22    1    3    3    0    0 -0.35225065596E+02  0.68399665666E+02 -0.21102648771E+03  0.22461410914E+03  0.00000000000E+00 0. -1.
         22    1    3    3    0    0 -0.24062283829E+02 -0.53552671463E+02 -0.25918289830E+03  0.26574923686E+03  0.00000000000E+00 0. -1.
</event>
<event>
 7    1  0.6105960E-006  0.1030929E+03  0.7818608E-02  0.1314444E+00
          2   -1    0    0  502    0  0.00000000000E+00  0.00000000000E+00  0.13944587644E+04  0.13944587644E+04  0.00000000000E+00 0. -1.
          1   -1    0    0  501    0 -0.00000000000E+00 -0.00000000000E+00 -0.15118338880E+03  0.15118338880E+03  0.00000000000E+00 0. -1.
         25    2    1    2    0    0 -0.13853638602E+03  0.94686825157E+02  0.19984457562E+03  0.28934520089E+03  0.12499946306E+03 0.  0.
          2    1    1    2  501    0  0.81585636218E+02 -0.52777167551E+02 -0.82913561305E+02  0.12773528917E+03  0.00000000000E+00 0. -1.
          1    1    1    2  502    0  0.56950749805E+02 -0.41909657606E+02  0.11263443613E+04  0.11285616632E+04  0.00000000000E+00 0. -1.
         22    1    3    3    0    0 -0.13516517813E+03  0.11951612983E+03  0.19107161224E+03  0.26279667363E+03  0.00000000000E+00 0. -1.
         22    1    3    3    0    0 -0.33712078882E+01 -0.24829304674E+02  0.87729633824E+01  0.26548527261E+02  0.00000000000E+00 0. -1.
</event>
<event>
 7    1  0.6105960E-006  0.8671076E+02  0.7818608E-02  0.1493397E+00
          2   -1    0    0  502    0  0.00000000000E+00  0.00000000000E+00  0.29057850350E+03  0.29057850350E+03  0.00000000000E+00 0. -1.
          1   -1    0    0  501    0 -0.00000000000E+00 -0.00000000000E+00 -0.90093817957E+03  0.90093817957E+03  0.00000000000E+00 0. -1.
         25    2    1    2    0    0  0.67437960569E+02 -0.38606299561E+02  0.16361557102E+03  0.22007724669E+03  0.12500245814E+03 0.  0.
          2    1    1    2  501    0 -0.83032115024E+02  0.25411865864E+02 -0.86946445753E+03  0.87378975616E+03  0.00000000000E+00 0. -1.
          1    1    1    2  502    0  0.15594154454E+02  0.13194433697E+02  0.95489210450E+02  0.97649680215E+02  0.00000000000E+00 0. -1.
         22    1    3    3    0    0  0.24138406244E+02 -0.76224896142E+02  0.13267691111E+03  0.15490661765E+03  0.00000000000E+00 0.  1.
         22    1    3    3    0    0  0.43299554325E+02  0.37618596581E+02  0.30938659904E+02  0.65170629045E+02  0.00000000000E+00 0.  1.
</event>
<event>
 7    1  0.6105960E-006  0.1215353E+03  0.7818608E-02  0.1394503E+00
          2   -1    0    0  502    0  0.00000000000E+00  0.00000000000E+00  0.29897361789E+03  0.29897361789E+03  0.00000000000E+00 0. -1.
          1   -1    0    0  501    0 -0.00000000000E+00 -0.00000000000E+00 -0.13413834596E+03  0.13413834596E+03  0.00000000000E+00 0. -1.
         25    2    1    2    0    0 -0.58281011837E+02 -0.10799192516E+03  0.29598649506E+02  0.17765054040E+03  0.12499880883E+03 0.  0.
          2    1    1    2  501    0  0.82779722117E+02  0.89964776215E+02  0.56844340249E+01  0.12238650311E+03  0.00000000000E+00 0. -1.
          1    1    1    2  502    0 -0.24498710281E+02  0.18027148949E+02  0.12955218840E+03  0.13307492034E+03  0.00000000000E+00 0. -1.
         22    1    3    3    0    0 -0.32647712509E+02  0.51965461581E+01 -0.32216028488E+02  0.46160044579E+02  0.00000000000E+00 0. -1.
         22    1    3    3    0    0 -0.25633299328E+02 -0.11318847132E+03  0.61814677994E+02  0.13149049582E+03  0.00000000000E+00 0. -1.
</event>
<event>
 7    1  0.6105960E-006  0.1538275E+03  0.7818608E-02  0.1313446E+00
          2   -1    0    0  502    0  0.00000000000E+00  0.00000000000E+00  0.66435594082E+03  0.66435594082E+03  0.00000000000E+00 0. -1.
          1   -1    0    0  501    0 -0.00000000000E+00 -0.00000000000E+00 -0.48511077561E+03  0.48511077561E+03  0.00000000000E+00 0. -1.
         25    2    1    2    0    0  0.83491042062E+02 -0.90106598046E+02 -0.64579291590E+01  0.17537585538E+03  0.12500013074E+03 0.  0.
          2    1    1    2  501    0 -0.81718659935E+02  0.13789011634E+03 -0.37684381047E+03  0.40951542225E+03  0.00000000000E+00 0. -1.
          1    1    1    2  502    0 -0.17723821275E+01 -0.47783518293E+02  0.56254690484E+03  0.56457543880E+03  0.00000000000E+00 0. -1.
         22    1    3    3    0    0  0.20133596603E+02 -0.95194455323E+02 -0.37951789596E+02  0.10443986006E+03  0.00000000000E+00 0.  1.
         22    1    3    3    0    0  0.63357445459E+02  0.50878572771E+01  0.31493860437E+02  0.70935995320E+02  0.00000000000E+00 0.  1.
</event>
<event>
 7    1  0.6105960E-006  0.1567071E+03  0.7818608E-02  0.1304125E+00
          2   -1    0    0  502    0  0.00000000000E+00  0.00000000000E+00  0.21862464171E+04  0.21862464171E+04  0.00000000000E+00 0. -1.
          1   -1    0    0  501    0 -0.00000000000E+00 -0.00000000000E+00 -0.22713820226E+03  0.22713820226E+03  0.00000000000E+00 0. -1.
         25    2    1    2    0    0 -0.31315354984E+02 -0.14449465919E+03  0.26473696091E+03  0.32798116214E+03  0.12500650482E+03 0.  0.
          2    1    1    2  501    0 -0.18114693446E+02  0.15740787574E+03 -0.16300565659E+03  0.22732405404E+03  0.00000000000E+00 0. -1.
          1    1    1    2  502    0  0.49430048430E+02 -0.12913216543E+02  0.18573769105E+04  0.18580794032E+04  0.00000000000E+00 0. -1.
         22    1    3    3    0    0 -0.61983470862E+02 -0.14638077341E+03  0.19365448154E+03  0.25054209168E+03  0.00000000000E+00 0. -1.
         22    1    3    3    0    0  0.30668115878E+02  0.18861142186E+01  0.71082479378E+02  0.77439070454E+02  0.00000000000E+00 0. -1.
</event>
<event>
 7    1  0.6105960E-006  0.1294806E+03  0.7818608E-02  0.1262554E+00
          2   -1    0    0  502    0  0.00000000000E+00  0.00000000000E+00  0.24678509780E+03  0.24678509780E+03  0.00000000000E+00 0. -1.
          1   -1    0    0  501    0 -0.00000000000E+00 -0.00000000000E+00 -0.73776094317E+03  0.73776094317E+03  0.00000000000E+00 0. -1.
         25    2    1    2    0    0 -0.57885241077E+02 -0.63576062591E+02  0.12498066161E+03  0.19657066393E+03  0.12500897276E+03 0.  0.
          2    1    1    2  501    0  0.10651820972E+03 -0.73614493693E+02 -0.62867025075E+03  0.64186564550E+03  0.00000000000E+00 0. -1.
          1    1    1    2  502    0 -0.48632968638E+02  0.13719055628E+03  0.12713743765E+02  0.14610973155E+03  0.00000000000E+00 0. -1.
         22    1    3    3    0    0 -0.17537072226E+02 -0.30728756289E+02 -0.21310510080E+02  0.41303065325E+02  0.00000000000E+00 0.  1.
         22    1    3    3    0    0 -0.40348168851E+02 -0.32847306301E+02  0.14629117169E+03  0.15526759860E+03  0.00000000000E+00 0.  1.
</event>
<event>
 7    1  0.6105960E-006  0.2557311E+03  0.7818608E-02  0.1112552E+00
          2   -1    0    0  502    0  0.00000000000E+00  0.00000000000E+00  0.30788996375E+03  0.30788996375E+03  0.00000000000E+00 0. -1.
          1   -1    0    0  501    0 -0.00000000000E+00 -0.00000000000E+00 -0.17536854929E+04  0.17536854929E+04  0.00000000000E+00 0. -1.
         25    2    1    2    0    0  0.86594790677E+02 -0.10446630442E+03 -0.17996776934E+03  0.25772997421E+03  0.12499790027E+03 0.  0.
          2    1    1    2  501    0  0.69653470959E+02  0.30691358538E+03 -0.14531546108E+04  0.14868442681E+04  0.00000000000E+00 0. -1.
          1    1    1    2  502    0 -0.15624826164E+03 -0.20244728097E+03  0.18732685090E+03  0.31700121436E+03  0.00000000000E+00 0. -1.
         22    1    3    3    0    0  0.70820480941E+02 -0.62563169860E+02 -0.26904424563E+02  0.98252423913E+02  0.00000000000E+00 0.  1.
         22    1    3    3    0    0  0.15774309735E+02 -0.41903134555E+02 -0.15306334478E+03  0.15947755030E+03  0.00000000000E+00 0.  1.
</event>
<event>
 7    1  0.6105960E-006  0.2679744E+03  0.7818608E-02  0.1264789E+00
          2   -1    0    0  502    0  0.00000000000E+00  0.00000000000E+00  0.22929745651E+04  0.22929745651E+04  0.00000000000E+00 0. -1.
          1   -1    0    0  501    0 -0.00000000000E+00 -0.00000000000E+00 -0.72849885106E+03  0.72849885106E+03  0.00000000000E+00 0. -1.
         25    2    1    2    0    0  0.25618800343E+02 -0.22735296975E+03  0.83000103001E+02  0.27360725846E+03  0.12500487590E+03 0.  0.
          2    1    1    2  501    0 -0.26810835433E+01 -0.43244297923E+02 -0.62372190250E+03  0.62522497485E+03  0.00000000000E+00 0. -1.
          1    1    1    2  502    0 -0.22937716800E+02  0.27059726768E+03  0.21051975136E+04  0.21226411829E+04  0.00000000000E+00 0. -1.
         22    1    3    3    0    0 -0.46095815598E+02 -0.10681781394E+03  0.13633954053E+02  0.11713562350E+03  0.00000000000E+00 0.  1.
         22    1    3    3    0    0  0.71714615941E+02 -0.12053515582E+03  0.69366148948E+02  0.15647163496E+03  0.00000000000E+00 0.  1.
</event>
<event>
 7    1  0.6105960E-006  0.6933447E+02  0.7818608E-02  0.1505426E+00
          2   -1    0    0  502    0  0.00000000000E+00  0.00000000000E+00  0.69398371079E+02  0.69398371079E+02  0.00000000000E+00 0. -1.
          1   -1    0    0  501    0 -0.00000000000E+00 -0.00000000000E+00 -0.33126461814E+04  0.33126461814E+04  0.00000000000E+00 0. -1.
         25    2    1    2    0    0  0.76006183721E+02 -0.18817428922E+02 -0.34328766057E+03  0.37363610787E+03  0.12500595029E+03 0.  0.
          2    1    1    2  501    0 -0.69086189652E+02 -0.36596829379E+01 -0.29512095972E+04  0.29520203897E+04  0.00000000000E+00 0. -1.
          1    1    1    2  502    0 -0.69199940692E+01  0.22477111860E+02  0.51249447411E+02  0.56388054900E+02  0.00000000000E+00 0. -1.
         22    1    3    3    0    0  0.71394870176E+02 -0.60103870792E+02 -0.29757607577E+03  0.31186731737E+03  0.00000000000E+00 0.  1.
         22    1    3    3    0    0  0.46113135454E+01  0.41286441870E+02 -0.45711584798E+02  0.61768790498E+02  0.00000000000E+00 0.  1.
</event>
<event>
 7    1  0.6105960E-006  0.1288269E+03  0.7818608E-02  0.1395533E+00
          2   -1    0    0  502    0  0.00000000000E+00  0.00000000000E+00  0.13612438641E+03  0.13612438641E+03  0.00000000000E+00 0. -1.
          1   -1    0    0  501    0 -0.00000000000E+00 -0.00000000000E+00 -0.37784444074E+03  0.37784444074E+03  0.00000000000E+00 0. -1.
         25    2    1    2    0    0  0.11192893227E+03 -0.57455040679E+02 -0.68026196709E+02  0.18995035062E+03  0.12499761871E+03 0.  0.
          2    1    1    2  501    0 -0.10020069508E+03  0.83386292469E+02 -0.22804052180E+03  0.26267076855E+03  0.00000000000E+00 0. -1.
          1    1    1    2  502    0 -0.11728237188E+02 -0.25931251790E+02  0.54346664181E+02  0.61347707981E+02  0.00000000000E+00 0. -1.
         22    1    3    3    0    0  0.12765882831E+03 -0.69731918845E+02 -0.32263213668E+02  0.14899742248E+03  0.00000000000E+00 0.  1.
         22    1    3    3    0    0 -0.15729896035E+02  0.12276878166E+02 -0.35762983041E+02  0.40952928135E+02  0.00000000000E+00 0.  1.
</event>
<event>
 7    1  0.6105960E-006  0.6675284E+02  0.7818608E-02  0.1456804E+00
          2   -1    0    0  502    0  0.00000000000E+00  0.00000000000E+00  0.20627670619E+04  0.20627670619E+04  0.00000000000E+00 0. -1.
          1   -1    0    0  501    0 -0.00000000000E+00 -0.00000000000E+00 -0.11681471253E+03  0.11681471253E+03  0.00000000000E+00 0. -1.
         25    2    1    2    0    0 -0.58313212405E+01  0.35351634932E+02  0.53498153336E+03  0.55055885490E+03  0.12500427700E+03 0.  0.
          2    1    1    2  501    0 -0.79270035316E+01 -0.66905767335E+02 -0.98402477432E+02  0.11925714508E+03  0.00000000000E+00 0. -1.
          1    1    1    2  502    0  0.13758324772E+02  0.31554132403E+02  0.15093732934E+04  0.15097657744E+04  0.00000000000E+00 0. -1.
         22    1    3    3    0    0  0.27535334866E+02  0.68223892127E+02  0.42013597147E+03  0.42652893060E+03  0.00000000000E+00 0. -1.
         22    1    3    3    0    0 -0.33366656107E+02 -0.32872257195E+02  0.11484556190E+03  0.12402992429E+03  0.00000000000E+00 0. -1.
</event>
<event>
 7    1  0.6105960E-006  0.1157755E+03  0.7818608E-02  0.1324771E+00
          2   -1    0    0  502    0  0.00000000000E+00  0.00000000000E+00  0.11663984009E+04  0.11663984009E+04  0.00000000000E+00 0. -1.
          1   -1    0    0  501    0 -0.00000000000E+00 -0.00000000000E+00 -0.13098080631E+03  0.13098080631E+03  0.00000000000E+00 0. -1.
         25    2    1    2    0    0  0.65402459981E+02  0.13395401842E+03  0.54698188433E+03  0.58054777306E+03  0.12500149678E+03 0.  0.
          2    1    1    2  501    0 -0.82687319085E+02 -0.79207155577E+02 -0.83693260486E+02  0.14182922154E+03  0.00000000000E+00 0. -1.
          1    1    1    2  502    0  0.17284859104E+02 -0.54746862839E+02  0.57212897076E+03  0.57500221263E+03  0.00000000000E+00 0. -1.
         22    1    3    3    0    0 -0.21045311711E+02 -0.31487537650E+01  0.15385245977E+03  0.15531709234E+03  0.00000000000E+00 0. -1.
         22    1    3    3    0    0  0.86447771692E+02  0.13710277218E+03  0.39312942456E+03  0.42523068072E+03  0.00000000000E+00 0. -1.
</event>
<event>
 7    1  0.6105960E-006  0.1204607E+03  0.7818608E-02  0.1325062E+00
          2   -1    0    0  502    0  0.00000000000E+00  0.00000000000E+00  0.31748342549E+04  0.31748342549E+04  0.00000000000E+00 0. -1.
          1   -1    0    0  501    0 -0.00000000000E+00 -0.00000000000E+00 -0.13058983554E+04  0.13058983554E+04  0.00000000000E+00 0. -1.
         25    2    1    2    0    0 -0.15062194478E+03 -0.65120562920E+02  0.89364014272E+02  0.22480706613E+03  0.12499852786E+03 0.  0.
          2    1    1    2  501    0  0.32677238531E+02  0.44284698051E+02 -0.12363760358E+04  0.12376003548E+04  0.00000000000E+00 0. -1.
          1    1    1    2  502    0  0.11794470625E+03  0.20835864870E+02  0.30159479210E+04  0.30183251894E+04  0.00000000000E+00 0. -1.
         22    1    3    3    0    0 -0.11130851777E+03  0.13025672614E+01  0.64137801703E+01  0.11150075958E+03  0.00000000000E+00 0.  1.
         22    1    3    3    0    0 -0.39313427013E+02 -0.66423130182E+02  0.82950234102E+02  0.11330630655E+03  0.00000000000E+00 0.  1.
</event>
<event>
 7    1  0.6105960E-006  0.1482326E+03  0.7818608E-02  0.1269718E+00
          2   -1    0    0  502    0  0.00000000000E+00  0.00000000000E+00  0.60249081212E+03  0.60249081212E+03  0.00000000000E+00 0. -1.
          1   -1    0    0  501    0 -0.00000000000E+00 -0.00000000000E+00 -0.27164582166E+04  0.27164582166E+04  0.00000000000E+00 0. -1.
         25    2    1    2    0    0  0.19354775052E+03  0.65637159779E+02  0.18749915428E+03  0.30422196838E+03  0.12500441878E+03 0.  0.
          2    1    1    2  501    0 -0.58676947195E+02 -0.46173696484E+02 -0.26445336682E+04  0.26455875182E+04  0.00000000000E+00 0. -1.
          1    1    1    2  502    0 -0.13487080332E+03 -0.19463463294E+02  0.34306710943E+03  0.36913954213E+03  0.00000000000E+00 0. -1.
         22    1    3    3    0    0  0.48182329418E+02  0.34336642270E+02  0.13350052554E+03  0.14602373845E+03  0.00000000000E+00 0.  1.
         22    1    3    3    0    0  0.14536542110E+03  0.31300517509E+02  0.53998628739E+02  0.15819822993E+03  0.00000000000E+00 0.  1.
</event>
<event>
 7    1  0.6105960E-006  0.1558225E+03  0.7818608E-02  0.1283778E+00
          2   -1    0    0  502    0  0.00000000000E+00  0.00000000000E+00  0.87862009411E+03  0.87862009411E+03  0.00000000000E+00 0. -1.
          1   -1    0    0  501    0 -0.00000000000E+00 -0.00000000000E+00 -0.10478094373E+04  0.10478094373E+04  0.00000000000E+00 0. -1.
         25    2    1    2    0    0  0.12601115500E+03 -0.32579210954E+02 -0.80295174941E+03  0.82298082818E+03  0.12500286199E+03 0.  0.
          2    1    1    2  501    0  0.28477964984E+02  0.55174751570E+02 -0.22356144983E+03  0.23202364006E+03  0.00000000000E+00 0. -1.
          1    1    1    2  502    0 -0.15448911998E+03 -0.22595540616E+02  0.85732385602E+03  0.87142506319E+03  0.00000000000E+00 0. -1.
         22    1    3    3    0    0 -0.87400468451E+01  0.30375980501E+02 -0.12967257109E+03  0.13346933844E+03  0.00000000000E+00 0. -1.
         22    1    3    3    0    0  0.13475120184E+03 -0.62955191455E+02 -0.67327917832E+03  0.68951148975E+03  0.00000000000E+00 0. -1.
</event>
<event>
 7    1  0.6105960E-006  0.1241551E+03  0.7818608E-02  0.1236489E+00
          2   -1    0    0  502    0  0.00000000000E+00  0.00000000000E+00  0.10905865019E+04  0.10905865019E+04  0.00000000000E+00 0. -1.
          1   -1    0    0  501    0 -0.00000000000E+00 -0.00000000000E+00 -0.28968831199E+04  0.28968831199E+04  0.00000000000E+00 0. -1.
         25    2    1    2    0    0 -0.72843229066E+02  0.92318327159E+02 -0.14047981412E+03  0.22178567213E+03  0.12500198652E+03 0.  0.
          2    1    1    2  501    0  0.12199295097E+03  0.23069798851E+02 -0.27105788455E+04  0.27134207513E+04  0.00000000000E+00 0. -1.
          1    1    1    2  502    0 -0.49149721903E+02 -0.11538812601E+03  0.10447620417E+04  0.10522631983E+04  0.00000000000E+00 0. -1.
         22    1    3    3    0    0  0.32469455629E+01 -0.23528302749E+02 -0.52490929062E+02  0.57614419372E+02  0.00000000000E+00 0.  1.
         22    1    3    3    0    0 -0.76090174629E+02  0.11584662991E+03 -0.87988885062E+02  0.16417125275E+03  0.00000000000E+00 0.  1.
</event>
<event>
 7    1  0.6105960E-006  0.1041871E+03  0.7818608E-02  0.1298367E+00
          2   -1    0    0  502    0  0.00000000000E+00  0.00000000000E+00  0.18335586360E+04  0.18335586360E+04  0.00000000000E+00 0. -1.
          1   -1    0    0  501    0 -0.00000000000E+00 -0.00000000000E+00 -0.54274865842E+03  0.54274865842E+03  0.00000000000E+00 0. -1.
         25    2    1    2    0    0  0.87059287705E+02 -0.15975735807E+03  0.46765896435E+03  0.51713816754E+03  0.12500097744E+03 0.  0.
          2    1    1    2  501    0 -0.35836858309E+02  0.96980729190E+02 -0.51160941447E+03  0.52195185144E+03  0.00000000000E+00 0. -1.
          1    1    1    2  502    0 -0.51222429397E+02  0.62776628878E+02  0.13347604277E+04  0.13372172754E+04  0.00000000000E+00 0. -1.
         22    1    3    3    0    0  0.86122774408E+02 -0.15066554109E+03  0.47481129241E+03  0.50553239356E+03  0.00000000000E+00 0. -1.
         22    1    3    3    0    0  0.93651329729E+00 -0.90918169744E+01 -0.71523280564E+01  0.11605773980E+02  0.00000000000E+00 0. -1.
</event>
<event>
 7    1  0.6105960E-006  0.2326150E+03  0.7818608E-02  0.1297780E+00
          2   -1    0    0  502    0  0.00000000000E+00  0.00000000000E+00  0.31278449056E+04  0.31278449056E+04  0.00000000000E+00 0. -1.
          1   -1    0    0  501    0 -0.00000000000E+00 -0.00000000000E+00 -0.11274011658E+04  0.11274011658E+04  0.00000000000E+00 0. -1.
         25    2    1    2    0    0 -0.32759827083E+02 -0.20726843481E+03  0.11358151737E+04  0.11617809865E+04  0.12500216583E+03 0.  0.
          2    1    1    2  501    0 -0.10474512356E+02 -0.34951453383E+02 -0.11064687944E+04  0.11070702383E+04  0.00000000000E+00 0. -1.
          1    1    1    2  502    0  0.43234339439E+02  0.24221988820E+03  0.19710973604E+04  0.19863948466E+04  0.00000000000E+00 0. -1.
         22    1    3    3    0    0  0.51257455106E+01 -0.25650662124E+01  0.31254383367E+03  0.31259638641E+03  0.00000000000E+00 0. -1.
         22    1    3    3    0    0 -0.37885572594E+02 -0.20470336860E+03  0.82327134006E+03  0.84918460013E+03  0.00000000000E+00 0. -1.
</event>
<event>
 7    1  0.6105960E-006  0.7735764E+02  0.7818608E-02  0.1389511E+00
          2   -1    0    0  502    0  0.00000000000E+00  0.00000000000E+00  0.19891837883E+03  0.19891837883E+03  0.00000000000E+00 0. -1.
          1   -1    0    0  501    0 -0.00000000000E+00 -0.00000000000E+00 -0.28807311646E+04  0.28807311646E+04  0.00000000000E+00 0. -1.
         25    2    1    2    0    0 -0.97309252505E+02 -0.31573015993E+02 -0.52523731785E+03  0.54950788184E+03  0.12497490222E+03 0.  0.
          2    1    1    2  501    0  0.75509128470E+02 -0.13131847719E+02 -0.23394088205E+04  0.23406639450E+04  0.00000000000E+00 0. -1.
          1    1    1    2  502    0  0.21800124035E+02  0.44704863712E+02  0.18283335262E+03  0.18947771657E+03  0.00000000000E+00 0. -1.
         22    1    3    3    0    0 -0.68499697885E+02 -0.73667338729E+02 -0.24813857241E+03  0.26775331282E+03  0.00000000000E+00 0.  1.
         22    1    3    3    0    0 -0.28809554619E+02  0.42094322736E+02 -0.27709874544E+03  0.28175456902E+03  0.00000000000E+00 0.  1.
</event>
<event>
 7    1  0.6105960E-006  0.4233479E+02  0.7818608E-02  0.1515660E+00
          2   -1    0    0  502    0  0.00000000000E+00  0.00000000000E+00  0.99036340676E+02  0.99036340676E+02  0.00000000000E+00 0. -1.
          1   -1    0    0  501    0 -0.00000000000E+00 -0.00000000000E+00 -0.40955978291E+03  0.40955978291E+03  0.00000000000E+00 0. -1.
         25    2    1    2    0    0 -0.27735994001E+02  0.62637408379E+02  0.26044592340E+02  0.14489444801E+03  0.12499339976E+03 0.  0.
          2    1    1    2  501    0 -0.16808073732E+01 -0.41992909814E+02 -0.32231027621E+03  0.32503868038E+03  0.00000000000E+00 0. -1.
          1    1    1    2  502    0  0.29416801374E+02 -0.20644498564E+02 -0.14257758358E+02  0.38662995195E+02  0.00000000000E+00 0. -1.
         22    1    3    3    0    0  0.45051369038E+02  0.26991564932E+02  0.35361601463E+02  0.63313610604E+02  0.00000000000E+00 0.  1.
         22    1    3    3    0    0 -0.72787363039E+02  0.35645843446E+02 -0.93170091232E+01  0.81580837408E+02  0.00000000000E+00 0.  1.
</event>
<event>
 7    1  0.6105960E-006  0.1605367E+03  0.7818608E-02  0.1197825E+00
          2   -1    0    0  502    0  0.00000000000E+00  0.00000000000E+00  0.10295036804E+04  0.10295036804E+04  0.00000000000E+00 0. -1.
          1   -1    0    0  501    0 -0.00000000000E+00 -0.00000000000E+00 -0.92071891234E+03  0.92071891234E+03  0.00000000000E+00 0. -1.
         25    2    1    2    0    0  0.17844127384E+02 -0.10413486608E+02 -0.22895590638E+03  0.26167183787E+03  0.12499796031E+03 0.  0.
          2    1    1    2  501    0  0.10347170880E+03 -0.10050741805E+03 -0.66090636359E+03  0.67646534060E+03  0.00000000000E+00 0. -1.
          1    1    1    2  502    0 -0.12131583619E+03  0.11092090466E+03  0.99864703806E+03  0.10120854143E+04  0.00000000000E+00 0. -1.
         22    1    3    3    0    0 -0.21162897936E+02  0.11671839810E+02 -0.21257917376E+03  0.21394860413E+03  0.00000000000E+00 0.  1.
         22    1    3    3    0    0  0.39007025320E+02 -0.22085326418E+02 -0.16376732622E+02  0.47723233741E+02  0.00000000000E+00 0.  1.
</event>
<event>
 7    1  0.6105960E-006  0.1552195E+03  0.7818608E-02  0.1389657E+00
          2   -1    0    0  502    0  0.00000000000E+00  0.00000000000E+00  0.17162117900E+04  0.17162117900E+04  0.00000000000E+00 0. -1.
          1   -1    0    0  501    0 -0.00000000000E+00 -0.00000000000E+00 -0.49813430794E+02  0.49813430794E+02  0.00000000000E+00 0. -1.
         25    2    1    2    0    0 -0.17060685721E+03  0.38323913723E+02  0.67062732518E+03  0.70423171566E+03  0.12500351184E+03 0.  0.
          2    1    1    2  501    0  0.14597131896E+03 -0.35859137767E+02  0.13920446069E+03  0.20486919142E+03  0.00000000000E+00 0. -1.
          1    1    1    2  502    0  0.24635538251E+02 -0.24647759563E+01  0.85656657333E+03  0.85692431370E+03  0.00000000000E+00 0. -1.
         22    1    3    3    0    0 -0.14396905387E+03  0.32791866282E+02  0.65777205401E+03  0.67414128342E+03  0.00000000000E+00 0. -1.
         22    1    3    3    0    0 -0.26637803341E+02  0.55320474412E+01  0.12855271167E+02  0.30090432242E+02  0.00000000000E+00 0. -1.
</event>
<event>
 7    1  0.6105960E-006  0.3962349E+02  0.7818608E-02  0.1528998E+00
          2   -1    0    0  502    0  0.00000000000E+00  0.00000000000E+00  0.31275691475E+03  0.31275691475E+03  0.00000000000E+00 0. -1.
          1   -1    0    0  501    0 -0.00000000000E+00 -0.00000000000E+00 -0.10508692909E+03  0.10508692909E+03  0.00000000000E+00 0. -1.
         25    2    1    2    0    0 -0.47090986211E+02 -0.43522510106E+02  0.23513313770E+02  0.14244378796E+03  0.12500234772E+03 0.  0.
          2    1    1    2  501    0  0.36485350244E+02  0.10030744565E+02 -0.36136953711E+02  0.52322806141E+02  0.00000000000E+00 0. -1.
          1    1    1    2  502    0  0.10605635966E+02  0.33491765541E+02  0.22029362560E+03  0.22307724974E+03  0.00000000000E+00 0. -1.
         22    1    3    3    0    0 -0.55204392859E+02 -0.67741362694E+02  0.53958780436E+02  0.10270329691E+03  0.00000000000E+00 0.  1.
         22    1    3    3    0    0  0.81134066484E+01  0.24218852588E+02 -0.30445466665E+02  0.39740491046E+02  0.00000000000E+00 0.  1.
</event>
<event>
 7    1  0.6105960E-006  0.1838277E+03  0.7818608E-02  0.1259240E+00
          2   -1    0    0  502    0  0.00000000000E+00  0.00000000000E+00  0.11973988256E+04  0.11973988256E+04  0.00000000000E+00 0. -1.
          1   -1    0    0  501    0 -0.00000000000E+00 -0.00000000000E+00 -0.28422870237E+03  0.28422870237E+03  0.00000000000E+00 0. -1.
         25    2    1    2    0    0  0.62469885395E+02  0.19841899637E+03 -0.13096458775E+02  0.24304164083E+03  0.12500054898E+03 0.  0.
          2    1    1    2  501    0  0.44296326250E+02 -0.49851772904E+02 -0.14088171151E+03  0.15586859985E+03  0.00000000000E+00 0. -1.
          1    1    1    2  502    0 -0.10676621165E+03 -0.14856722347E+03  0.10671482935E+04  0.10827172872E+04  0.00000000000E+00 0. -1.
         22    1    3    3    0    0  0.65626861933E+02  0.10698057392E+03  0.46508353137E+02  0.13384601269E+03  0.00000000000E+00 0. -1.
         22    1    3    3    0    0 -0.31569765376E+01  0.91438422454E+02 -0.59604811912E+02  0.10919562814E+03  0.00000000000E+00 0. -1.
</event>
<event>
 7    1  0.6105960E-006  0.2568394E+03  0.7818608E-02  0.1233202E+00
          2   -1    0    0  502    0  0.00000000000E+00  0.00000000000E+00  0.12437254007E+04  0.12437254007E+04  0.00000000000E+00 0. -1.
          1   -1    0    0  501    0 -0.00000000000E+00 -0.00000000000E+00 -0.17193017073E+04  0.17193017073E+04  0.00000000000E+00 0. -1.
         25    2    1    2    0    0 -0.13333909077E+03 -0.14666277383E+03 -0.84821945882E+03  0.87999464985E+03  0.12500020433E+03 0.  0.
          2    1    1    2  501    0 -0.54133865712E+02 -0.30248876718E+02 -0.84051119150E+03  0.84279566503E+03  0.00000000000E+00 0. -1.
          1    1    1    2  502    0  0.18747295648E+03  0.17691165054E+03  0.12131543437E+04  0.12402367932E+04  0.00000000000E+00 0. -1.
         22    1    3    3    0    0 -0.42072267396E+02 -0.13556973395E+03 -0.54111732451E+03  0.55942576571E+03  0.00000000000E+00 0. -1.
         22    1    3    3    0    0 -0.91266823372E+02 -0.11093039874E+02 -0.30710213431E+03  0.32056888414E+03  0.00000000000E+00 0. -1.
</event>
<event>
 7    1  0.6105960E-006  0.3723043E+02  0.7818608E-02  0.1594301E+00
          2   -1    0    0  502    0  0.00000000000E+00  0.00000000000E+00  0.17048512069E+04  0.17048512069E+04  0.00000000000E+00 0. -1.
          1   -1    0    0  501    0 -0.00000000000E+00 -0.00000000000E+00 -0.57414712018E+03  0.57414712018E+03  0.00000000000E+00 0. -1.
         25    2    1    2    0    0 -0.28499416159E+02 -0.48357829982E+02  0.25241903729E+03  0.28721151495E+03  0.12499754994E+03 0.  0.
          2    1    1    2  501    0  0.25826594888E-02  0.24733690745E+02 -0.55623731936E+03  0.55678695289E+03  0.00000000000E+00 0. -1.
          1    1    1    2  502    0  0.28496833500E+02  0.23624139237E+02  0.14345223688E+04  0.14349998592E+04  0.00000000000E+00 0. -1.
         22    1    3    3    0    0  0.33969758364E+02 -0.97242529298E+01  0.18220573171E+03  0.18560020002E+03  0.00000000000E+00 0. -1.
         22    1    3    3    0    0 -0.62469174523E+02 -0.38633577052E+02  0.70213305579E+02  0.10161131493E+03  0.00000000000E+00 0. -1.
</event>
<event>
 7    1  0.6105960E-006  0.1032249E+03  0.7818608E-02  0.1349493E+00
          2   -1    0    0  502    0  0.00000000000E+00  0.00000000000E+00  0.54393153950E+03  0.54393153950E+03  0.00000000000E+00 0. -1.
          1   -1    0    0  501    0 -0.00000000000E+00 -0.00000000000E+00 -0.19435876501E+03  0.19435876501E+03  0.00000000000E+00 0. -1.
         25    2    1    2    0    0  0.10262436271E+02  0.64244228588E+02  0.15820138080E+03  0.21189691494E+03  0.12505993431E+03 0.  0.
          2    1    1    2  501    0  0.11219128396E+02  0.50701573157E+02 -0.15360076265E+03  0.16214102704E+03  0.00000000000E+00 0. -1.
          1    1    1    2  502    0 -0.21481564667E+02 -0.11494580174E+03  0.34497215634E+03  0.36425236253E+03  0.00000000000E+00 0. -1.
         22    1    3    3    0    0 -0.15702829243E+02  0.23971711803E+02  0.16135110532E+03  0.16387617581E+03  0.00000000000E+00 0.  1.
         22    1    3    3    0    0  0.25965265514E+02  0.40272516785E+02 -0.31497245189E+01  0.48020739124E+02  0.00000000000E+00 0.  1.
</event>
<event>
 7    1  0.6105960E-006  0.8428600E+02  0.7818608E-02  0.1422627E+00
          2   -1    0    0  502    0  0.00000000000E+00  0.00000000000E+00  0.99247984345E+02  0.99247984345E+02  0.00000000000E+00 0. -1.
          1   -1    0    0  501    0 -0.00000000000E+00 -0.00000000000E+00 -0.10069461171E+04  0.10069461171E+04  0.00000000000E+00 0. -1.
         25    2    1    2    0    0 -0.51173438687E+02 -0.53487441021E+02 -0.12432028917E+02  0.14580868168E+03  0.12500395648E+03 0.  0.
          2    1    1    2  501    0  0.11152230293E+02 -0.33386531523E+02 -0.85642915864E+03  0.85715222481E+03  0.00000000000E+00 0. -1.
          1    1    1    2  502    0  0.40021208394E+02  0.86873972544E+02 -0.38836945184E+02  0.10323319494E+03  0.00000000000E+00 0. -1.
         22    1    3    3    0    0 -0.76621013529E+02 -0.59362888608E+02 -0.42627040444E+02  0.10588577258E+03  0.00000000000E+00 0.  1.
         22    1    3    3    0    0  0.25447574842E+02  0.58754475864E+01  0.30195011527E+02  0.39922909097E+02  0.00000000000E+00 0.  1.
</event>
<event>
 7    1  0.6105960E-006  0.6985168E+02  0.7818608E-02  0.1395080E+00
          2   -1    0    0  502    0  0.00000000000E+00  0.00000000000E+00  0.22828563310E+04  0.22828563310E+04  0.00000000000E+00 0. -1.
          1   -1    0    0  501    0 -0.00000000000E+00 -0.00000000000E+00 -0.12265019859E+04  0.12265019859E+04  0.00000000000E+00 0. -1.
         25    2    1    2    0    0  0.51862220705E+02  0.94013395832E+02  0.13172915692E+04  0.13275579349E+04  0.12499913528E+03 0.  0.
          2    1    1    2  501    0 -0.41519351079E+01 -0.52515001791E+02 -0.12197588995E+04  0.12208959157E+04  0.00000000000E+00 0. -1.
          1    1    1    2  502    0 -0.47710285597E+02 -0.41498394041E+02  0.95882167543E+03  0.96090446629E+03  0.00000000000E+00 0. -1.
         22    1    3    3    0    0 -0.11202186717E+02  0.57941608847E+02  0.10128410098E+04  0.10145588352E+04  0.00000000000E+00 0. -1.
         22    1    3    3    0    0  0.63064407422E+02  0.36071786985E+02  0.30445055936E+03  0.31299909967E+03  0.00000000000E+00 0. -1.
</event>
<event>
 7    1  0.6105960E-006  0.9264925E+02  0.7818608E-02  0.1300030E+00
          2   -1    0    0  502    0  0.00000000000E+00  0.00000000000E+00  0.25259972107E+03  0.25259972107E+03  0.00000000000E+00 0. -1.
          1   -1    0    0  501    0 -0.00000000000E+00 -0.00000000000E+00 -0.12464247390E+04  0.12464247390E+04  0.00000000000E+00 0. -1.
         25    2    1    2    0    0  0.13019804411E+02  0.17579172561E+02 -0.30596530781E+01  0.12693578375E+03  0.12499915641E+03 0.  0.
          2    1    1    2  501    0  0.75547450865E+02  0.48405435829E+02 -0.11635591870E+04  0.11670134897E+04  0.00000000000E+00 0. -1.
          1    1    1    2  502    0 -0.88567255276E+02 -0.65984608390E+02  0.17279382206E+03  0.20507518669E+03  0.00000000000E+00 0. -1.
         22    1    3    3    0    0  0.24748695501E+02  0.23495453618E+02  0.56466537936E+02  0.65977300462E+02  0.00000000000E+00 0.  1.
         22    1    3    3    0    0 -0.11728891090E+02 -0.59162810565E+01 -0.59526191014E+02  0.60958483285E+02  0.00000000000E+00 0.  1.
</event>
<event>
 7    1  0.6105960E-006  0.1147470E+03  0.7818608E-02  0.1414933E+00
          2   -1    0    0  502    0  0.00000000000E+00  0.00000000000E+00  0.15870548664E+04  0.15870548664E+04  0.00000000000E+00 0. -1.
          1   -1    0    0  501    0 -0.00000000000E+00 -0.00000000000E+00 -0.67255155639E+02  0.67255155639E+02  0.00000000000E+00 0. -1.
         25    2    1    2    0    0  0.11134023731E+03  0.10883297453E+02  0.36097241329E+03  0.39804668415E+03  0.12499993999E+03 0.  0.
          2    1    1    2  501    0 -0.22471628424E+01  0.27342595813E+02 -0.41846407396E+02  0.50037876640E+02  0.00000000000E+00 0. -1.
          1    1    1    2  502    0 -0.10909307447E+03 -0.38225893266E+02  0.12006737049E+04  0.12062254613E+04  0.00000000000E+00 0. -1.
         22    1    3    3    0    0 -0.20591751037E+02  0.13242133169E+02  0.17482383539E+02  0.30083351473E+02  0.00000000000E+00 0. -1.
         22    1    3    3    0    0  0.13193198835E+03 -0.23588357158E+01  0.34349002975E+03  0.36796333267E+03  0.00000000000E+00 0. -1.
</event>
<event>
 7    1  0.6105960E-006  0.6133826E+02  0.7818608E-02  0.1494797E+00
          2   -1    0    0  502    0  0.00000000000E+00  0.00000000000E+00  0.18563838190E+03  0.18563838190E+03  0.00000000000E+00 0. -1.
          1   -1    0    0  501    0 -0.00000000000E+00 -0.00000000000E+00 -0.41834392068E+03  0.41834392068E+03  0.00000000000E+00 0. -1.
         25    2    1    2    0    0 -0.77945976179E+02 -0.14224288680E+02 -0.12598968099E+03  0.19435593839E+03  0.12499170165E+03 0.  0.
          2    1    1    2  501    0  0.24499236569E+02 -0.14752567468E+02 -0.25122585274E+03  0.25284833383E+03  0.00000000000E+00 0. -1.
          1    1    1    2  502    0  0.53446739610E+02  0.28976856148E+02  0.14450999494E+03  0.15677803037E+03  0.00000000000E+00 0. -1.
         22    1    3    3    0    0 -0.37403340206E+02  0.53362504875E+02 -0.79713717977E+02  0.10296039830E+03  0.00000000000E+00 0. -1.
         22    1    3    3    0    0 -0.40542635972E+02 -0.67586793555E+02 -0.46275963008E+02  0.91395540083E+02  0.00000000000E+00 0. -1.
</event>
<event>
 7    1  0.6105960E-006  0.2540683E+02  0.7818608E-02  0.1662772E+00
          2   -1    0    0  502    0  0.00000000000E+00  0.00000000000E+00  0.24562288339E+03  0.24562288339E+03  0.00000000000E+00 0. -1.
          1   -1    0    0  501    0 -0.00000000000E+00 -0.00000000000E+00 -0.33446689711E+03  0.33446689711E+03  0.00000000000E+00 0. -1.
         25    2    1    2    0    0  0.60719002237E+01  0.67727127599E+01  0.17543795601E+03  0.21560902072E+03  0.12500414311E+03 0.  0.
          2    1    1    2  501    0  0.13039170225E+02 -0.21876053683E+02 -0.31086871802E+03  0.31191014977E+03  0.00000000000E+00 0. -1.
          1    1    1    2  502    0 -0.19111070449E+02  0.15103340923E+02  0.46586748291E+02  0.52570610012E+02  0.00000000000E+00 0. -1.
         22    1    3    3    0    0 -0.33568879447E+01  0.59066903113E+02  0.43681005395E+02  0.73540451266E+02  0.00000000000E+00 0.  1.
         22    1    3    3    0    0  0.94287881685E+01 -0.52294190353E+02  0.13175695062E+03  0.14206856945E+03  0.00000000000E+00 0.  1.
</event>
<event>
 7    1  0.6105960E-006  0.1607032E+03  0.7818608E-02  0.1268971E+00
          2   -1    0    0  502    0  0.00000000000E+00  0.00000000000E+00  0.16680095920E+04  0.16680095920E+04  0.00000000000E+00 0. -1.
          1   -1    0    0  501    0 -0.00000000000E+00 -0.00000000000E+00 -0.15741905271E+03  0.15741905271E+03  0.00000000000E+00 0. -1.
         25    2    1    2    0    0  0.14242383418E+03 -0.11989400737E+03  0.92148038785E+02  0.24243613687E+03  0.12499959145E+03 0.  0.
          2    1    1    2  501    0 -0.74476228622E+02  0.13387658420E+03 -0.93807748078E+01  0.15348500696E+03  0.00000000000E+00 0. -1.
          1    1    1    2  502    0 -0.67947605563E+02 -0.13982576828E+02  0.14278232753E+04  0.14295075008E+04  0.00000000000E+00 0. -1.
         22    1    3    3    0    0  0.13828522331E+03 -0.51970622372E+02  0.92662419958E+02  0.17438484065E+03  0.00000000000E+00 0. -1.
         22    1    3    3    0    0  0.41386108769E+01 -0.67923384999E+02 -0.51438117353E+00  0.68051296224E+02  0.00000000000E+00 0. -1.
</event>
<event>
 7    1  0.6105960E-006  0.1096191E+03  0.7818608E-02  0.1294201E+00
          2   -1    0    0  502    0  0.00000000000E+00  0.00000000000E+00  0.10846721485E+04  0.10846721485E+04  0.00000000000E+00 0. -1.
          1   -1    0    0  501    0 -0.00000000000E+00 -0.00000000000E+00 -0.72647705780E+03  0.72647705780E+03  0.00000000000E+00 0. -1.
         25    2    1    2    0    0  0.90438654537E+02 -0.83112982053E+02  0.19536604739E+03  0.26245755891E+03  0.12501663783E+03 0.  0.
          2    1    1    2  501    0 -0.10976397651E+03  0.54403817515E+01 -0.68668077680E+03  0.69541945437E+03  0.00000000000E+00 0. -1.
          1    1    1    2  502    0  0.19325321976E+02  0.77672600301E+02  0.84950982009E+03  0.85327219299E+03  0.00000000000E+00 0. -1.
         22    1    3    3    0    0  0.12120546935E+03 -0.66793392690E+02  0.17084567728E+03  0.21986443222E+03  0.00000000000E+00 0. -1.
         22    1    3    3    0    0 -0.30766814817E+02 -0.16319589363E+02  0.24520370107E+02  0.42593126689E+02  0.00000000000E+00 0. -1.
</event>
<event>
 7    1  0.6105960E-006  0.8637632E+02  0.7818608E-02  0.1340434E+00
          2   -1    0    0  502    0  0.00000000000E+00  0.00000000000E+00  0.67648079582E+03  0.67648079582E+03  0.00000000000E+00 0. -1.
          1   -1    0    0  501    0 -0.00000000000E+00 -0.00000000000E+00 -0.31243525647E+03  0.31243525647E+03  0.00000000000E+00 0. -1.
         25    2    1    2    0    0 -0.94852552662E+02 -0.42245115234E+02  0.30724810208E+02  0.16538265093E+03  0.12500300299E+03 0.  0.
          2    1    1    2  501    0  0.11546865612E+02  0.66082149118E+02 -0.23718288177E+03  0.24648711922E+03  0.00000000000E+00 0. -1.
          1    1    1    2  502    0  0.83305687050E+02 -0.23837033884E+02  0.57050361090E+03  0.57704628214E+03  0.00000000000E+00 0. -1.
         22    1    3    3    0    0 -0.34703745078E+02  0.18426764327E+02 -0.38810142204E+02  0.55227915984E+02  0.00000000000E+00 0.  1.
         22    1    3    3    0    0 -0.60148807584E+02 -0.60671879561E+02  0.69534952413E+02  0.11015473494E+03  0.00000000000E+00 0.  1.
</event>
<event>
 7    1  0.6105960E-006  0.8526403E+02  0.7818608E-02  0.1383563E+00
          2   -1    0    0  502    0  0.00000000000E+00  0.00000000000E+00  0.20453888451E+04  0.20453888451E+04  0.00000000000E+00 0. -1.
          1   -1    0    0  501    0 -0.00000000000E+00 -0.00000000000E+00 -0.17419068335E+03  0.17419068335E+03  0.00000000000E+00 0. -1.
         25    2    1    2    0    0  0.69805805716E+02  0.22550765944E+02  0.39573019683E+03  0.42143746172E+03  0.12500303156E+03 0.  0.
          2    1    1    2  501    0 -0.14520727937E+02  0.45063837418E+02 -0.15667065780E+03  0.16366824982E+03  0.00000000000E+00 0. -1.
          1    1    1    2  502    0 -0.55285077779E+02 -0.67614603362E+02  0.16321386227E+04  0.16344738169E+04  0.00000000000E+00 0. -1.
         22    1    3    3    0    0  0.17184124416E+02 -0.54738053972E+01 -0.29930980194E+01  0.18281556641E+02  0.00000000000E+00 0. -1.
         22    1    3    3    0    0  0.52621681300E+02  0.28024571341E+02  0.39872329485E+03  0.40315590508E+03  0.00000000000E+00 0. -1.
</event>
<event>
 7    1  0.6105960E-006  0.2303260E+03  0.7818608E-02  0.1270817E+00
          2   -1    0    0  502    0  0.00000000000E+00  0.00000000000E+00  0.55794122805E+03  0.55794122805E+03  0.00000000000E+00 0. -1.
          1   -1    0    0  501    0 -0.00000000000E+00 -0.00000000000E+00 -0.65001434956E+03  0.65001434956E+03  0.00000000000E+00 0. -1.
         25    2    1    2    0    0 -0.22871566905E+03 -0.40290058937E+01 -0.18823829613E+03  0.32153527104E+03  0.12499673690E+03 0.  0.
          2    1    1    2  501    0  0.22868979441E+03 -0.43516310281E+02 -0.35949488725E+03  0.42828642903E+03  0.00000000000E+00 0. -1.
          1    1    1    2  502    0  0.25874645821E-01  0.47545316175E+02  0.45566006187E+03  0.45813387754E+03  0.00000000000E+00 0. -1.
         22    1    3    3    0    0 -0.28295521458E+02 -0.22104591125E+01  0.18271360059E+02  0.33754485072E+02  0.00000000000E+00 0.  1.
         22    1    3    3    0    0 -0.20042014760E+03 -0.18185467812E+01 -0.20650965619E+03  0.28778078597E+03  0.00000000000E+00 0.  1.
</event>
<event>
 7    1  0.6105960E-006  0.1320502E+03  0.7818608E-02  0.1426554E+00
          2   -1    0    0  502    0  0.00000000000E+00  0.00000000000E+00  0.18823746522E+03  0.18823746522E+03  0.00000000000E+00 0. -1.
          1   -1    0    0  501    0 -0.00000000000E+00 -0.00000000000E+00 -0.34224684912E+03  0.34224684912E+03  0.00000000000E+00 0. -1.
         25    2    1    2    0    0 -0.10958168411E+03 -0.65843544275E+02 -0.13920280266E+03  0.22659658279E+03  0.12500029299E+03 0.  0.
          2    1    1    2  501    0  0.12551860811E+03  0.50963503192E+02 -0.12933885293E+03  0.18729852780E+03  0.00000000000E+00 0. -1.
          1    1    1    2  502    0 -0.15936924000E+02  0.14880041083E+02  0.11453227170E+03  0.11658920374E+03  0.00000000000E+00 0. -1.
         22    1    3    3    0    0 -0.27009977469E+02  0.30059585720E+02 -0.73806917547E+02  0.84146174330E+02  0.00000000000E+00 0.  1.
         22    1    3    3    0    0 -0.82571706638E+02 -0.95903129995E+02 -0.65395885118E+02  0.14245040846E+03  0.00000000000E+00 0.  1.
</event>
<event>
 7    1  0.6105960E-006  0.2857430E+02  0.7818608E-02  0.1666836E+00
          2   -1    0    0  502    0  0.00000000000E+00  0.00000000000E+00  0.75580275353E+03  0.75580275353E+03  0.00000000000E+00 0. -1.
          1   -1    0    0  501    0 -0.00000000000E+00 -0.00000000000E+00 -0.48784460416E+03  0.48784460416E+03  0.00000000000E+00 0. -1.
         25    2    1    2    0    0 -0.16411780387E+02 -0.95375794090E+01  0.30727199931E+03  0.33226612587E+03  0.12499753949E+03 0.  0.
          2    1    1    2  501    0  0.96586065261E+01 -0.18845010314E+02 -0.47462317204E+03  0.47509533626E+03  0.00000000000E+00 0. -1.
          1    1    1    2  502    0  0.67531738607E+01  0.28382589723E+02  0.43530932211E+03  0.43628589557E+03  0.00000000000E+00 0. -1.
         22    1    3    3    0    0 -0.48114148943E+02  0.42132832271E+02  0.18597652113E+03  0.19666574001E+03  0.00000000000E+00 0. -1.
         22    1    3    3    0    0  0.31702368556E+02 -0.51670411680E+02  0.12129547818E+03  0.13560038585E+03  0.00000000000E+00 0. -1.
</event>
<event>
 7    1  0.6105960E-006  0.1274809E+03  0.7818608E-02  0.1279335E+00
          2   -1    0    0  502    0  0.00000000000E+00  0.00000000000E+00  0.34739652580E+04  0.34739652580E+04  0.00000000000E+00 0. -1.
          1   -1    0    0  501    0 -0.00000000000E+00 -0.00000000000E+00 -0.17422796249E+03  0.17422796249E+03  0.00000000000E+00 0. -1.
         25    2    1    2    0    0 -0.14936465672E+03  0.89138585607E+02  0.15935631217E+04  0.16078942655E+04  0.12500023230E+03 0.  0.
          2    1    1    2  501    0  0.78975932591E+02  0.54479805928E+01 -0.15571380689E+03  0.17468161918E+03  0.00000000000E+00 0. -1.
          1    1    1    2  502    0  0.70388724127E+02 -0.94586566200E+02  0.18618879807E+04  0.18656173358E+04  0.00000000000E+00 0. -1.
         22    1    3    3    0    0  0.87523542132E+01 -0.42681758176E+01  0.10916656046E+02  0.14628547717E+02  0.00000000000E+00 0.  1.
         22    1    3    3    0    0 -0.15811701093E+03  0.93406761425E+02  0.15826464656E+04  0.15932657178E+04  0.00000000000E+00 0.  1.
</event>
<event>
 7    1  0.6105960E-006  0.6848749E+02  0.7818608E-02  0.1411182E+00
          2   -1    0    0  502    0  0.00000000000E+00  0.00000000000E+00  0.15967718110E+02  0.15967718110E+02  0.00000000000E+00 0. -1.
          1   -1    0    0  501    0 -0.00000000000E+00 -0.00000000000E+00 -0.24590999781E+04  0.24590999781E+04  0.00000000000E+00 0. -1.
         25    2    1    2    0    0 -0.46168800825E+02  0.32712517555E+02 -0.13874552319E+04  0.13942232428E+04  0.12499905352E+03 0.  0.
          2    1    1    2  501    0 -0.23746340549E+02 -0.40935572237E+02 -0.96446622714E+03  0.96562659090E+03  0.00000000000E+00 0. -1.
          1    1    1    2  502    0  0.69915141374E+02  0.82230546816E+01 -0.91210800964E+02  0.11521786248E+03  0.00000000000E+00 0. -1.
         22    1    3    3    0    0 -0.54999573464E+02  0.68502361973E+02 -0.11978929830E+04  0.12011099556E+04  0.00000000000E+00 0. -1.
         22    1    3    3    0    0  0.88307726388E+01 -0.35789844418E+02 -0.18956224893E+03  0.19311328729E+03  0.00000000000E+00 0. -1.
</event>
<event>
 7    1  0.6105960E-006  0.1485227E+03  0.7818608E-02  0.1217281E+00
          2   -1    0    0  502    0  0.00000000000E+00  0.00000000000E+00  0.21287070834E+04  0.21287070834E+04  0.00000000000E+00 0. -1.
          1   -1    0    0  501    0 -0.00000000000E+00 -0.00000000000E+00 -0.84626129604E+03  0.84626129604E+03  0.00000000000E+00 0. -1.
         25    2    1    2    0    0  0.14721893724E+03 -0.78677546239E+02  0.20273289147E+03  0.29084492525E+03  0.12500629381E+03 0.  0.
          2    1    1    2  501    0 -0.10759236051E+03 -0.66645479113E+02 -0.79417248870E+03  0.80419380608E+03  0.00000000000E+00 0. -1.
          1    1    1    2  502    0 -0.39626576736E+02  0.14532302535E+03  0.18738853845E+04  0.18799296481E+04  0.00000000000E+00 0. -1.
         22    1    3    3    0    0  0.12857470948E+03 -0.64828129906E+02  0.77594879780E+02  0.16356988633E+03  0.00000000000E+00 0. -1.
         22    1    3    3    0    0  0.18644227760E+02 -0.13849416333E+02  0.12513801169E+03  0.12727503892E+03  0.00000000000E+00 0. -1.
</event>
<event>
 7    1  0.6105960E-006  0.4021636E+02  0.7818608E-02  0.1561054E+00
          2   -1    0    0  502    0  0.00000000000E+00  0.00000000000E+00  0.43959270110E+02  0.43959270110E+02  0.00000000000E+00 0. -1.
          1   -1    0    0  501    0 -0.00000000000E+00 -0.00000000000E+00 -0.21084327829E+04  0.21084327829E+04  0.00000000000E+00 0. -1.
         25    2    1    2    0    0 -0.42171299746E+01  0.16924748818E+02 -0.77944580731E+03  0.78959438675E+03  0.12497718887E+03 0.  0.
          2    1    1    2  501    0 -0.26420663645E+02  0.96653274180E+01 -0.13131402595E+04  0.13134415903E+04  0.00000000000E+00 0. -1.
          1    1    1    2  502    0  0.30637793620E+02 -0.26590076236E+02  0.28112553947E+02  0.49356076034E+02  0.00000000000E+00 0. -1.
         22    1    3    3    0    0 -0.71020463927E+01  0.64391771558E+02 -0.25893848211E+03  0.26691923277E+03  0.00000000000E+00 0.  1.
         22    1    3    3    0    0  0.28849164181E+01 -0.47467022741E+02 -0.52050732520E+03  0.52267515397E+03  0.00000000000E+00 0.  1.
</event>
<event>
 7    1  0.6105960E-006  0.2568264E+03  0.7818608E-02  0.1275140E+00
          2   -1    0    0  502    0  0.00000000000E+00  0.00000000000E+00  0.20846853519E+03  0.20846853519E+03  0.00000000000E+00 0. -1.
          1   -1    0    0  501    0 -0.00000000000E+00 -0.00000000000E+00 -0.17242926331E+04  0.17242926331E+04  0.00000000000E+00 0. -1.
         25    2    1    2    0    0 -0.81330549473E+02  0.20444372556E+03 -0.93997432571E+03  0.97344149016E+03  0.12499882629E+03 0.  0.
          2    1    1    2  501    0 -0.22354822020E+02  0.34252453239E+02 -0.67837665665E+03  0.67960860567E+03  0.00000000000E+00 0. -1.
          1    1    1    2  502    0  0.10368537149E+03 -0.23869617880E+03  0.10252688443E+03  0.27971107247E+03  0.00000000000E+00 0. -1.
         22    1    3    3    0    0 -0.71900251059E+02  0.11501241313E+03 -0.32866781514E+03  0.35555595057E+03  0.00000000000E+00 0. -1.
         22    1    3    3    0    0 -0.94302984132E+01  0.89431312426E+02 -0.61130651056E+03  0.61788553959E+03  0.00000000000E+00 0. -1.
</event>
<event>
 7    1  0.6105960E-006  0.2003098E+03  0.7818608E-02  0.1228736E+00
          2   -1    0    0  502    0  0.00000000000E+00  0.00000000000E+00  0.91003387998E+03  0.91003387998E+03  0.00000000000E+00 0. -1.
          1   -1    0    0  501    0 -0.00000000000E+00 -0.00000000000E+00 -0.29253941650E+03  0.29253941650E+03  0.00000000000E+00 0. -1.
         25    2    1    2    0    0  0.12966736834E+03  0.24304063010E+03 -0.14587706797E+02  0.30285357382E+03  0.12500044677E+03 0.  0.
          2    1    1    2  501    0 -0.24336445602E+02 -0.79622158348E+02 -0.10695246889E+03  0.13553885526E+03  0.00000000000E+00 0. -1.
          1    1    1    2  502    0 -0.10533092274E+03 -0.16341847175E+03  0.73903463917E+03  0.76418086739E+03  0.00000000000E+00 0. -1.
         22    1    3    3    0    0 -0.76799981013E+01  0.19047604378E+02 -0.33640777982E+02  0.39414407856E+02  0.00000000000E+00 0. -1.
         22    1    3    3    0    0  0.13734736645E+03  0.22399302572E+03  0.19053071185E+02  0.26343916596E+03  0.00000000000E+00 0. -1.
</event>
<event>
 7    1  0.6105960E-006  0.4160615E+02  0.7818608E-02  0.1546624E+00
          2   -1    0    0  502    0  0.00000000000E+00  0.00000000000E+00  0.48701653527E+03  0.48701653527E+03  0.00000000000E+00 0. -1.
          1   -1    0    0  501    0 -0.00000000000E+00 -0.00000000000E+00 -0.85095498732E+03  0.85095498732E+03  0.00000000000E+00 0. -1.
         25    2    1    2    0    0 -0.64907783475E+01  0.13629378884E+02 -0.29377400845E+03  0.31960216819E+03  0.12495794371E+03 0.  0.
          2    1    1    2  501    0 -0.28335932714E+02  0.92904809636E+01 -0.54294037639E+03  0.54375866930E+03  0.00000000000E+00 0. -1.
          1    1    1    2  502    0  0.34826711062E+02 -0.22919859847E+02  0.47277593280E+03  0.47461068510E+03  0.00000000000E+00 0. -1.
         22    1    3    3    0    0 -0.27415045140E+01  0.41477233218E+02 -0.28791311939E+03  0.29089833455E+03  0.00000000000E+00 0. -1.
         22    1    3    3    0    0 -0.37492738335E+01 -0.27847854334E+02 -0.58608890577E+01  0.28703833644E+02  0.00000000000E+00 0. -1.
</event>
<event>
 7    1  0.6105960E-006  0.4963641E+02  0.7818608E-02  0.1480551E+00
          2   -1    0    0  502    0  0.00000000000E+00  0.00000000000E+00  0.13835547626E+03  0.13835547626E+03  0.00000000000E+00 0. -1.
          1   -1    0    0  501    0 -0.00000000000E+00 -0.00000000000E+00 -0.22931945530E+04  0.22931945530E+04  0.00000000000E+00 0. -1.
         25    2    1    2    0    0  0.84275947805E+02  0.24517708659E+02 -0.57840712990E+03  0.59822841204E+03  0.12497548415E+03 0.  0.
          2    1    1    2  501    0 -0.35733561015E+02 -0.15723248689E+02 -0.16999075165E+04  0.17003557488E+04  0.00000000000E+00 0. -1.
          1    1    1    2  502    0 -0.48542386789E+02 -0.87944599703E+01  0.12347556968E+03  0.13296586836E+03  0.00000000000E+00 0. -1.
         22    1    3    3    0    0  0.41185068679E+02 -0.48889714160E+02 -0.18546878555E+03  0.19617615667E+03  0.00000000000E+00 0. -1.
         22    1    3    3    0    0  0.43090879126E+02  0.73407422819E+02 -0.39293834435E+03  0.40205225537E+03  0.00000000000E+00 0. -1.
</event>
<event>
 7    1  0.6105960E-006  0.1164041E+03  0.7818608E-02  0.1369276E+00
          2   -1    0    0  502    0  0.00000000000E+00  0.00000000000E+00  0.82169742967E+03  0.82169742967E+03  0.00000000000E+00 0. -1.
          1   -1    0    0  501    0 -0.00000000000E+00 -0.00000000000E+00 -0.10721746340E+04  0.10721746340E+04  0.00000000000E+00 0. -1.
         25    2    1    2    0    0 -0.92110191388E+02  0.10419249806E+02 -0.37164449639E+03  0.40291146487E+03  0.12500067482E+03 0.  0.
          2    1    1    2  501    0  0.12524147083E+03  0.10136035543E+02 -0.67865479446E+03  0.69018873888E+03  0.00000000000E+00 0. -1.
          1    1    1    2  502    0 -0.33131279446E+02 -0.20555285349E+02  0.79982208656E+03  0.80077185988E+03  0.00000000000E+00 0. -1.
         22    1    3    3    0    0 -0.20516069802E+02  0.63200396436E+02 -0.14822195632E+03  0.16243444082E+03  0.00000000000E+00 0. -1.
         22    1    3    3    0    0 -0.71594121586E+02 -0.52781146629E+02 -0.22342254007E+03  0.24047702405E+03  0.00000000000E+00 0. -1.
</event>
<event>
 7    1  0.6105960E-006  0.1192470E+03  0.7818608E-02  0.1290557E+00
          2   -1    0    0  502    0  0.00000000000E+00  0.00000000000E+00  0.54029306695E+03  0.54029306695E+03  0.00000000000E+00 0. -1.
          1   -1    0    0  501    0 -0.00000000000E+00 -0.00000000000E+00 -0.10267127045E+03  0.10267127045E+03  0.00000000000E+00 0. -1.
         25    2    1    2    0    0  0.27781725363E+01  0.11667232945E+03  0.32616024190E+03  0.36827299423E+03  0.12499737669E+03 0.  0.
          2    1    1    2  501    0 -0.76134309726E+02 -0.96335834150E+02 -0.18403650238E+02  0.12416005960E+03  0.00000000000E+00 0. -1.
          1    1    1    2  502    0  0.73356137190E+02 -0.20336495304E+02  0.12986520483E+03  0.15053128356E+03  0.00000000000E+00 0. -1.
         22    1    3    3    0    0 -0.52208567285E+02  0.70550125110E+02  0.24333399489E+03  0.25867834799E+03  0.00000000000E+00 0.  1.
         22    1    3    3    0    0  0.54986739821E+02  0.46122204344E+02  0.82826247012E+02  0.10959464624E+03  0.00000000000E+00 0.  1.
</event>
<event>
 7    1  0.6105960E-006  0.4424264E+02  0.7818608E-02  0.1507775E+00
          2   -1    0    0  502    0  0.00000000000E+00  0.00000000000E+00  0.48820481416E+03  0.48820481416E+03  0.00000000000E+00 0. -1.
          1   -1    0    0  501    0 -0.00000000000E+00 -0.00000000000E+00 -0.50425571376E+02  0.50425571376E+02  0.00000000000E+00 0. -1.
         25    2    1    2    0    0  0.31666252370E+02  0.46857997109E+02  0.34771023421E+03  0.37379761091E+03  0.12499529400E+03 0.  0.
          2    1    1    2  501    0  0.44946964349E+01 -0.44024822147E+02 -0.20277181986E+02  0.48678037865E+02  0.00000000000E+00 0. -1.
          1    1    1    2  502    0 -0.36160948805E+02 -0.28331749622E+01  0.11034619057E+03  0.11615473676E+03  0.00000000000E+00 0. -1.
         22    1    3    3    0    0 -0.12213819654E+02 -0.10542750150E+02 -0.23979588020E+01  0.16311872292E+02  0.00000000000E+00 0.  1.
         22    1    3    3    0    0  0.43880072025E+02  0.57400747259E+02  0.35010819301E+03  0.35748573862E+03  0.00000000000E+00 0.  1.
</event>
<event>
 7    1  0.6311202E-006  0.8169218E+02  0.7818608E-02  0.1380450E+00
          2   -1    0    0  502    0  0.00000000000E+00  0.00000000000E+00  0.20143721125E+04  0.20143721125E+04  0.00000000000E+00 0. -1.
          1   -1    0    0  501    0 -0.00000000000E+00 -0.00000000000E+00 -0.39760311445E+03  0.39760311445E+03  0.00000000000E+00 0. -1.
         25    2    1    2    0    0 -0.17610017552E+02  0.30710940305E+02  0.80857958769E+02  0.15302308723E+03  0.12499912462E+03 0.  0.
          2    1    1    2  501    0  0.19529883674E+02 -0.81357189062E+02 -0.35633573986E+03  0.36602673136E+03  0.00000000000E+00 0. -1.
          1    1    1    2  502    0 -0.19198661220E+01  0.50646248757E+02  0.18922467791E+04  0.18929254083E+04  0.00000000000E+00 0. -1.
         22    1    3    3    0    0 -0.50844057771E+02  0.14991291496E+00  0.93244048759E+02  0.10620542977E+03  0.00000000000E+00 0.  1.
         22    1    3    3    0    0  0.33234040219E+02  0.30561027390E+02 -0.12386089991E+02  0.46817657456E+02  0.00000000000E+00 0.  1.
</event>
<event>
 7    1  0.6105960E-006  0.8771146E+02  0.7818608E-02  0.1454276E+00
          2   -1    0    0  502    0  0.00000000000E+00  0.00000000000E+00  0.16685393797E+04  0.16685393797E+04  0.00000000000E+00 0. -1.
          1   -1    0    0  501    0 -0.00000000000E+00 -0.00000000000E+00 -0.10628637331E+04  0.10628637331E+04  0.00000000000E+00 0. -1.
         25    2    1    2    0    0 -0.39101050514E+02 -0.47179701693E+02  0.81889711698E+03  0.83064172008E+03  0.12497344730E+03 0.  0.
          2    1    1    2  501    0  0.53003043576E+02  0.69958911993E+02 -0.10549575539E+04  0.10586023864E+04  0.00000000000E+00 0. -1.
          1    1    1    2  502    0 -0.13901993061E+02 -0.22779210300E+02  0.84173608345E+03  0.84215900637E+03  0.00000000000E+00 0. -1.
         22    1    3    3    0    0 -0.90438205521E+01 -0.58412202194E+02  0.76931580671E+03  0.77158316889E+03  0.00000000000E+00 0. -1.
         22    1    3    3    0    0 -0.30057229962E+02  0.11232500501E+02  0.49581310268E+02  0.59058551188E+02  0.00000000000E+00 0. -1.
</event>
<event>
 7    1  0.8727790E-006  0.1064584E+03  0.7818608E-02  0.1324365E+00
          2   -1    0    0  502    0  0.00000000000E+00  0.00000000000E+00  0.22932676760E+04  0.22932676760E+04  0.00000000000E+00 0. -1.
          1   -1    0    0  501    0 -0.00000000000E+00 -0.00000000000E+00 -0.31212439657E+04  0.31212439657E+04  0.00000000000E+00 0. -1.
         25    2    1    2    0    0 -0.40379532044E+02 -0.10510911988E+03 -0.13358429525E+04  0.13463988581E+04  0.12504022488E+03 0.  0.
          2    1    1    2  501    0 -0.45871578024E+02  0.42686995346E+02 -0.17783323403E+04  0.17794359482E+04  0.00000000000E+00 0. -1.
          1    1    1    2  502    0  0.86251110068E+02  0.62422124534E+02  0.22861990030E+04  0.22886768354E+04  0.00000000000E+00 0. -1.
         22    1    3    3    0    0 -0.71307665297E+02 -0.36123688603E+02 -0.94059616270E+03  0.94398667644E+03  0.00000000000E+00 0. -1.
         22    1    3    3    0    0  0.30928133253E+02 -0.68985431277E+02 -0.39524678978E+03  0.40241218171E+03  0.00000000000E+00 0. -1.
</event>
<event>
 7    1  0.6105960E-006  0.1042355E+03  0.7818608E-02  0.1318874E+00
          2   -1    0    0  502    0  0.00000000000E+00  0.00000000000E+00  0.90575844376E+02  0.90575844376E+02  0.00000000000E+00 0. -1.
          1   -1    0    0  501    0 -0.00000000000E+00 -0.00000000000E+00 -0.57799167107E+03  0.57799167107E+03  0.00000000000E+00 0. -1.
         25    2    1    2    0    0  0.15846466697E+03  0.54504347643E+01 -0.19485014748E+03  0.28059358614E+03  0.12500169077E+03 0.  0.
          2    1    1    2  501    0 -0.66539534340E+02  0.94439026224E+01 -0.28691242966E+03  0.29467853539E+03  0.00000000000E+00 0. -1.
          1    1    1    2  502    0 -0.91925132626E+02 -0.14894337387E+02 -0.56532495526E+01  0.93295393911E+02  0.00000000000E+00 0. -1.
         22    1    3    3    0    0  0.49260629243E+02  0.43843050801E+02 -0.13507830205E+03  0.15031623459E+03  0.00000000000E+00 0. -1.
         22    1    3    3    0    0  0.10920403772E+03 -0.38392616037E+02 -0.59771845433E+02  0.13027735155E+03  0.00000000000E+00 0. -1.
</event>
<event>
 7    1  0.6105960E-006  0.9016248E+02  0.7818608E-02  0.1421759E+00
          2   -1    0    0  502    0  0.00000000000E+00  0.00000000000E+00  0.11001928195E+04  0.11001928195E+04  0.00000000000E+00 0. -1.
          1   -1    0    0  501    0 -0.00000000000E+00 -0.00000000000E+00 -0.27618317481E+03  0.27618317481E+03  0.00000000000E+00 0. -1.
         25    2    1    2    0    0 -0.79810192977E+02 -0.15846535060E+02  0.53992282428E+03  0.56014511003E+03  0.12500043417E+03 0.  0.
          2    1    1    2  501    0 -0.18580959524E+01 -0.33073420194E+02 -0.26089861819E+03  0.26299314177E+03  0.00000000000E+00 0. -1.
          1    1    1    2  502    0  0.81668288929E+02  0.48919955253E+02  0.54498543859E+03  0.55323774249E+03  0.00000000000E+00 0. -1.
         22    1    3    3    0    0 -0.68155396227E+02  0.12460479222E+02  0.51770286371E+03  0.52231855861E+03  0.00000000000E+00 0. -1.
         22    1    3    3    0    0 -0.11654796750E+02 -0.28307014282E+02  0.22219960564E+02  0.37826551420E+02  0.00000000000E+00 0. -1.
</event>
<event>
 7    1  0.6105960E-006  0.7814845E+02  0.7818608E-02  0.1363326E+00
          2   -1    0    0  502    0  0.00000000000E+00  0.00000000000E+00  0.94616624925E+03  0.94616624925E+03  0.00000000000E+00 0. -1.
          1   -1    0    0  501    0 -0.00000000000E+00 -0.00000000000E+00 -0.21292359753E+03  0.21292359753E+03  0.00000000000E+00 0. -1.
         25    2    1    2    0    0 -0.61483625429E+02 -0.37847316940E+02  0.14004882649E+03  0.20112470988E+03  0.12499927810E+03 0.  0.
          2    1    1    2  501    0 -0.15713108338E+02  0.58967264180E+02 -0.17514363930E+03  0.18547057558E+03  0.00000000000E+00 0. -1.
          1    1    1    2  502    0  0.77196733767E+02 -0.21119947240E+02  0.76833746453E+03  0.77249456132E+03  0.00000000000E+00 0. -1.
         22    1    3    3    0    0  0.13534381050E+02 -0.49170762453E+02  0.10667838548E+03  0.11824221445E+03  0.00000000000E+00 0. -1.
         22    1    3    3    0    0 -0.75018006479E+02  0.11323445513E+02  0.33370441010E+02  0.82882495423E+02  0.00000000000E+00 0. -1.
</event>
<event>
 7    1  0.6105960E-006  0.1609940E+03  0.7818608E-02  0.1197059E+00
          2   -1    0    0  502    0  0.00000000000E+00  0.00000000000E+00  0.30741178511E+04  0.30741178511E+04  0.00000000000E+00 0. -1.
          1   -1    0    0  501    0 -0.00000000000E+00 -0.00000000000E+00 -0.13082659924E+04  0.13082659924E+04  0.00000000000E+00 0. -1.
         25    2    1    2    0    0  0.42993401861E+02  0.69472281807E+02 -0.30600723912E+03  0.34050306409E+03  0.12500830260E+03 0.  0.
          2    1    1    2  501    0 -0.49616575060E+02 -0.21436695373E+03 -0.97097378289E+03  0.99559282964E+03  0.00000000000E+00 0. -1.
          1    1    1    2  502    0  0.66231731989E+01  0.14489467192E+03  0.30428328808E+04  0.30462879497E+04  0.00000000000E+00 0. -1.
         22    1    3    3    0    0  0.38716122404E+02  0.98895128448E+02 -0.28486996716E+03  0.30402316155E+03  0.00000000000E+00 0.  1.
         22    1    3    3    0    0  0.42772794574E+01 -0.29422846641E+02 -0.21137271955E+02  0.36479902545E+02  0.00000000000E+00 0.  1.
</event>
<event>
 7    1  0.6105960E-006  0.3663157E+02  0.7818608E-02  0.1587319E+00
          2   -1    0    0  502    0  0.00000000000E+00  0.00000000000E+00  0.10293900159E+03  0.10293900159E+03  0.00000000000E+00 0. -1.
          1   -1    0    0  501    0 -0.00000000000E+00 -0.00000000000E+00 -0.15344906852E+03  0.15344906852E+03  0.00000000000E+00 0. -1.
         25    2    1    2    0    0 -0.21299157486E+02  0.35042449852E+02  0.17974660194E+02  0.13278171489E+03  0.12500507189E+03 0.  0.
          2    1    1    2  501    0  0.34672097008E+02 -0.12477760754E+02 -0.84976995005E+02  0.92622559371E+02  0.00000000000E+00 0. -1.
          1    1    1    2  502    0 -0.13372939522E+02 -0.22564689098E+02  0.16492267886E+02  0.30983795855E+02  0.00000000000E+00 0. -1.
         22    1    3    3    0    0  0.30185588121E+02 -0.68093753918E+01 -0.35841135645E+02  0.47351075255E+02  0.00000000000E+00 0.  1.
         22    1    3    3    0    0 -0.51484745608E+02  0.41851825244E+02  0.53815795839E+02  0.85430639634E+02  0.00000000000E+00 0.  1.
</event>
<event>
 7    1  0.6105960E-006  0.1993435E+03  0.7818608E-02  0.1214481E+00
          2   -1    0    0  502    0  0.00000000000E+00  0.00000000000E+00  0.58647364895E+03  0.58647364895E+03  0.00000000000E+00 0. -1.
          1   -1    0    0  501    0 -0.00000000000E+00 -0.00000000000E+00 -0.15641413871E+04  0.15641413871E+04  0.00000000000E+00 0. -1.
         25    2    1    2    0    0  0.26979936957E+03 -0.81405148372E+02 -0.37305866138E+03  0.48395868054E+03  0.12499896656E+03 0.  0.
          2    1    1    2  501    0 -0.18472424080E+03  0.34542054680E+02 -0.11233195237E+04  0.11389306173E+04  0.00000000000E+00 0. -1.
          1    1    1    2  502    0 -0.85075128769E+02  0.46863093692E+02  0.51871044690E+03  0.52772573825E+03  0.00000000000E+00 0. -1.
         22    1    3    3    0    0  0.85180875303E+02 -0.82936519043E+02 -0.10590874460E+03  0.15921969065E+03  0.00000000000E+00 0. -1.
         22    1    3    3    0    0  0.18461849427E+03  0.15313706705E+01 -0.26714991678E+03  0.32473898989E+03  0.00000000000E+00 0. -1.
</event>
<event>
 7    1  0.6105960E-006  0.1041373E+03  0.7818608E-02  0.1369031E+00
          2   -1    0    0  502    0  0.00000000000E+00  0.00000000000E+00  0.22624932645E+04  0.22624932645E+04  0.00000000000E+00 0. -1.
          1   -1    0    0  501    0 -0.00000000000E+00 -0.00000000000E+00 -0.17995441623E+03  0.17995441623E+03  0.00000000000E+00 0. -1.
         25    2    1    2    0    0 -0.47082082461E+01 -0.14238604487E+03  0.72696281481E+03  0.75126689823E+03  0.12502425870E+03 0.  0.
          2    1    1    2  501    0 -0.13107390854E+02  0.10251427452E+03 -0.15154299732E+03  0.18342916947E+03  0.00000000000E+00 0. -1.
          1    1    1    2  502    0  0.17815599100E+02  0.39871770347E+02  0.15071190308E+04  0.15077516131E+04  0.00000000000E+00 0. -1.
         22    1    3    3    0    0 -0.60879309627E+02 -0.49778649031E+02  0.36852065385E+03  0.37681782940E+03  0.00000000000E+00 0. -1.
         22    1    3    3    0    0  0.56171101381E+02 -0.92607395839E+02  0.35844216097E+03  0.37444906884E+03  0.00000000000E+00 0. -1.
</event>
<event>
 7    1  0.6105960E-006  0.1077523E+03  0.7818608E-02  0.1381695E+00
          2   -1    0    0  502    0  0.00000000000E+00  0.00000000000E+00  0.20272462345E+03  0.20272462345E+03  0.00000000000E+00 0. -1.
          1   -1    0    0  501    0 -0.00000000000E+00 -0.00000000000E+00 -0.27009530713E+04  0.27009530713E+04  0.00000000000E+00 0. -1.
         25    2    1    2    0    0  0.67386566264E+02 -0.63699004728E+02 -0.83959614564E+02  0.17683959133E+03  0.12499804666E+03 0.  0.
          2    1    1    2  501    0 -0.48562420643E+02  0.96751841374E+02 -0.25670812297E+04  0.25693628135E+04  0.00000000000E+00 0. -1.
          1    1    1    2  502    0 -0.18824145621E+02 -0.33052836646E+02  0.15281239637E+03  0.15747528997E+03  0.00000000000E+00 0. -1.
         22    1    3    3    0    0  0.88240463725E+02 -0.33136986823E+02 -0.99186515296E+02  0.13682983648E+03  0.00000000000E+00 0.  1.
         22    1    3    3    0    0 -0.20853897461E+02 -0.30562017905E+02  0.15226900732E+02  0.40009754856E+02  0.00000000000E+00 0.  1.
</event>
<event>
 7    1  0.6105960E-006  0.2093812E+03  0.7818608E-02  0.1364133E+00
          2   -1    0    0  502    0  0.00000000000E+00  0.00000000000E+00  0.18731180670E+04  0.18731180670E+04  0.00000000000E+00 0. -1.
          1   -1    0    0  501    0 -0.00000000000E+00 -0.00000000000E+00 -0.63385830453E+03  0.63385830453E+03  0.00000000000E+00 0. -1.
         25    2    1    2    0    0  0.10771170629E+03  0.18552216135E+03 -0.34825209181E+02  0.25071547895E+03  0.12500068867E+03 0.  0.
          2    1    1    2  501    0  0.15518748632E+02 -0.16461906849E+02 -0.48462444439E+03  0.48515222151E+03  0.00000000000E+00 0. -1.
          1    1    1    2  502    0 -0.12323045492E+03 -0.16906025450E+03  0.17587094161E+04  0.17711086711E+04  0.00000000000E+00 0. -1.
         22    1    3    3    0    0  0.98818773655E+02  0.53003875430E+02  0.44164433378E+01  0.11222328550E+03  0.00000000000E+00 0. -1.
         22    1    3    3    0    0  0.88929326336E+01  0.13251828592E+03 -0.39241652519E+02  0.13849219345E+03  0.00000000000E+00 0. -1.
</event>
<event>
 7    1  0.6105960E-006  0.1665536E+03  0.7818608E-02  0.1229621E+00
          2   -1    0    0  502    0  0.00000000000E+00  0.00000000000E+00  0.52811701832E+03  0.52811701832E+03  0.00000000000E+00 0. -1.
          1   -1    0    0  501    0 -0.00000000000E+00 -0.00000000000E+00 -0.60368653294E+03  0.60368653294E+03  0.00000000000E+00 0. -1.
         25    2    1    2    0    0 -0.17669751825E+03 -0.32092087290E+02 -0.15317602199E+03  0.26709468987E+03  0.12499905849E+03 0.  0.
          2    1    1    2  501    0  0.54707947123E+02 -0.82775360715E+02 -0.37194193387E+03  0.38494872644E+03  0.00000000000E+00 0. -1.
          1    1    1    2  502    0  0.12198957112E+03  0.11486744801E+03  0.44954844123E+03  0.47976013495E+03  0.00000000000E+00 0. -1.
         22    1    3    3    0    0 -0.35626413082E+02 -0.41442793178E+02  0.50765105615E+01  0.54886404282E+02  0.00000000000E+00 0. -1.
         22    1    3    3    0    0 -0.14107110516E+03  0.93507058881E+01 -0.15825253255E+03  0.21220828559E+03  0.00000000000E+00 0. -1.
</event>
<event>
 7    1  0.6105960E-006  0.1157497E+03  0.7818608E-02  0.1339223E+00
          2   -1    0    0  502    0  0.00000000000E+00  0.00000000000E+00  0.26231183392E+04  0.26231183392E+04  0.00000000000E+00 0. -1.
          1   -1    0    0  501    0 -0.00000000000E+00 -0.00000000000E+00 -0.51047223317E+03  0.51047223317E+03  0.00000000000E+00 0. -1.
         25    2    1    2    0    0 -0.15514201179E+03  0.22962619413E+02  0.55308636705E+03  0.58832585884E+03  0.12500584407E+03 0.  0.
          2    1    1    2  501    0  0.10782480700E+03 -0.40856985522E+02 -0.48579130590E+03  0.49928816846E+03  0.00000000000E+00 0. -1.
          1    1    1    2  502    0  0.47317204789E+02  0.17894366109E+02  0.20453510449E+04  0.20459765451E+04  0.00000000000E+00 0. -1.
         22    1    3    3    0    0 -0.44744565663E+02  0.23772459746E+02  0.37771400286E+03  0.38109719752E+03  0.00000000000E+00 0.  1.
         22    1    3    3    0    0 -0.11039744613E+03 -0.80984033328E+00  0.17537236419E+03  0.20722866132E+03  0.00000000000E+00 0.  1.
</event>
<event>
 7    1  0.6105960E-006  0.7303499E+02  0.7818608E-02  0.1411570E+00
          2   -1    0    0  502    0  0.00000000000E+00  0.00000000000E+00  0.47271773604E+03  0.47271773604E+03  0.00000000000E+00 0. -1.
          1   -1    0    0  501    0 -0.00000000000E+00 -0.00000000000E+00 -0.18710153168E+04  0.18710153168E+04  0.00000000000E+00 0. -1.
         25    2    1    2    0    0  0.75491376812E+02 -0.45113383286E+02  0.57221532456E+01  0.15294077865E+03  0.12499589357E+03 0.  0.
          2    1    1    2  501    0 -0.26286872338E+01  0.44165783445E+02 -0.17937564161E+04  0.17943019832E+04  0.00000000000E+00 0. -1.
          1    1    1    2  502    0 -0.72862689578E+02  0.94759984088E+00  0.38973668212E+03  0.39649029102E+03  0.00000000000E+00 0. -1.
         22    1    3    3    0    0  0.39267224330E+02 -0.10875704203E+02  0.64240155274E+02  0.76072290607E+02  0.00000000000E+00 0. -1.
         22    1    3    3    0    0  0.36224152482E+02 -0.34237679083E+02 -0.58518002028E+02  0.76868488039E+02  0.00000000000E+00 0. -1.
</event>
<event>
 7    1  0.6105960E-006  0.3221796E+02  0.7818608E-02  0.1600436E+00
          2   -1    0    0  502    0  0.00000000000E+00  0.00000000000E+00  0.14824208559E+02  0.14824208559E+02  0.00000000000E+00 0. -1.
          1   -1    0    0  501    0 -0.00000000000E+00 -0.00000000000E+00 -0.22075098636E+04  0.22075098636E+04  0.00000000000E+00 0. -1.
         25    2    1    2    0    0  0.22733562393E+02  0.13570246432E+02 -0.29402086290E+03  0.32058408154E+03  0.12499967627E+03 0.  0.
          2    1    1    2  501    0  0.76344440139E+01 -0.31300352323E+02 -0.16773113957E+04  0.16776207899E+04  0.00000000000E+00 0. -1.
          1    1    1    2  502    0 -0.30368006407E+02  0.17730105891E+02 -0.22135339642E+03  0.22412920063E+03  0.00000000000E+00 0. -1.
         22    1    3    3    0    0 -0.48725673874E+02 -0.98143349016E+01 -0.85187439405E+02  0.98627644686E+02  0.00000000000E+00 0.  1.
         22    1    3    3    0    0  0.71459236266E+02  0.23384581333E+02 -0.20883342350E+03  0.22195643686E+03  0.00000000000E+00 0.  1.
</event>
<event>
 7    1  0.6105960E-006  0.7716701E+02  0.7818608E-02  0.1478434E+00
          2   -1    0    0  502    0  0.00000000000E+00  0.00000000000E+00  0.87520008665E+02  0.87520008665E+02  0.00000000000E+00 0. -1.
          1   -1    0    0  501    0 -0.00000000000E+00 -0.00000000000E+00 -0.16697875345E+04  0.16697875345E+04  0.00000000000E+00 0. -1.
         25    2    1    2    0    0  0.43993933619E+02  0.75270252166E+02 -0.10650735456E+03  0.18592744755E+03  0.12499648844E+03 0.  0.
          2    1    1    2  501    0  0.10814013871E+02 -0.23082814481E+02 -0.14934441008E+04  0.14936616221E+04  0.00000000000E+00 0. -1.
          1    1    1    2  502    0 -0.54807947490E+02 -0.52187437685E+02  0.17683929503E+02  0.77718473498E+02  0.00000000000E+00 0. -1.
         22    1    3    3    0    0 -0.25485912108E+02 -0.21403596065E+02 -0.25543630308E+02  0.41953816153E+02  0.00000000000E+00 0. -1.
         22    1    3    3    0    0  0.69479845727E+02  0.96673848231E+02 -0.80963724251E+02  0.14397363140E+03  0.00000000000E+00 0. -1.
</event>
<event>
 7    1  0.6105960E-006  0.1200783E+03  0.7818608E-02  0.1412336E+00
          2   -1    0    0  502    0  0.00000000000E+00  0.00000000000E+00  0.82797286560E+03  0.82797286560E+03  0.00000000000E+00 0. -1.
          1   -1    0    0  501    0 -0.00000000000E+00 -0.00000000000E+00 -0.55697980928E+03  0.55697980928E+03  0.00000000000E+00 0. -1.
         25    2    1    2    0    0 -0.58063753997E+02  0.74278409411E+02 -0.20832809962E+03  0.26060423571E+03  0.12500115579E+03 0.  0.
          2    1    1    2  501    0 -0.11762640641E+02  0.24025508702E+02 -0.31741469063E+03  0.31853990427E+03  0.00000000000E+00 0. -1.
          1    1    1    2  502    0  0.69826394638E+02 -0.98303918113E+02  0.79673584657E+03  0.80580853490E+03  0.00000000000E+00 0. -1.
         22    1    3    3    0    0 -0.59265423476E+02  0.57781817231E+02 -0.40834965088E+02  0.92296387773E+02  0.00000000000E+00 0. -1.
         22    1    3    3    0    0  0.12016694791E+01  0.16496592179E+02 -0.16749313453E+03  0.16830784794E+03  0.00000000000E+00 0. -1.
</event>
<event>
 7    1  0.6105960E-006  0.9424829E+02  0.7818608E-02  0.1393956E+00
          2   -1    0    0  502    0  0.00000000000E+00  0.00000000000E+00  0.58632277782E+02  0.58632277782E+02  0.00000000000E+00 0. -1.
          1   -1    0    0  501    0 -0.00000000000E+00 -0.00000000000E+00 -0.24770668227E+04  0.24770668227E+04  0.00000000000E+00 0. -1.
         25    2    1    2    0    0 -0.85142538587E+02 -0.84617427763E+02 -0.54174448519E+03  0.56879012027E+03  0.12500301084E+03 0.  0.
          2    1    1    2  501    0  0.80463320363E+02  0.45501642294E+02 -0.19118635536E+04  0.19140969131E+04  0.00000000000E+00 0. -1.
          1    1    1    2  502    0  0.46792182236E+01  0.39115785469E+02  0.35173493870E+02  0.52812067059E+02  0.00000000000E+00 0. -1.
         22    1    3    3    0    0 -0.86935015593E+01 -0.20777047018E+02 -0.52468051306E+01  0.23125561966E+02  0.00000000000E+00 0. -1.
         22    1    3    3    0    0 -0.76449037027E+02 -0.63840380745E+02 -0.53649768006E+03  0.54566455830E+03  0.00000000000E+00 0. -1.
</event>
<event>
 7    1  0.6105960E-006  0.4244601E+02  0.7818608E-02  0.1539716E+00
          2   -1    0    0  502    0  0.00000000000E+00  0.00000000000E+00  0.29428188196E+03  0.29428188196E+03  0.00000000000E+00 0. -1.
          1   -1    0    0  501    0 -0.00000000000E+00 -0.00000000000E+00 -0.40550514978E+02  0.40550514978E+02  0.00000000000E+00 0. -1.
         25    2    1    2    0    0  0.22696984079E+02 -0.13594644927E+02  0.12520838893E+03  0.17889337748E+03  0.12500292953E+03 0.  0.
          2    1    1    2  501    0 -0.53216057793E+02  0.11853563242E+02  0.10114110686E+03  0.11489986625E+03  0.00000000000E+00 0. -1.
          1    1    1    2  502    0  0.30519073714E+02  0.17410816846E+01  0.27381871197E+02  0.41039153208E+02  0.00000000000E+00 0. -1.
         22    1    3    3    0    0 -0.35570564541E+02 -0.45581878209E+02  0.79176576096E+02  0.98040312551E+02  0.00000000000E+00 0.  1.
         22    1    3    3    0    0  0.58267548620E+02  0.31987233282E+02  0.46031812830E+02  0.80853064925E+02  0.00000000000E+00 0.  1.
</event>
<event>
 7    1  0.6105960E-006  0.1533065E+03  0.7818608E-02  0.1345768E+00
          2   -1    0    0  502    0  0.00000000000E+00  0.00000000000E+00  0.70065981452E+03  0.70065981452E+03  0.00000000000E+00 0. -1.
          1   -1    0    0  501    0 -0.00000000000E+00 -0.00000000000E+00 -0.10747820383E+04  0.10747820383E+04  0.00000000000E+00 0. -1.
         25    2    1    2    0    0 -0.12113545375E+03  0.23197821497E+02 -0.14786538204E+03  0.22957023310E+03  0.12500553444E+03 0.  0.
          2    1    1    2  501    0 -0.25928235946E+02  0.25114785574E+02 -0.87660856107E+03  0.87735146619E+03  0.00000000000E+00 0. -1.
          1    1    1    2  502    0  0.14706368969E+03 -0.48312607070E+02  0.65035171934E+03  0.66852015353E+03  0.00000000000E+00 0. -1.
         22    1    3    3    0    0  0.21611637386E+02 -0.66022586435E+01 -0.47331544132E+02  0.52449287503E+02  0.00000000000E+00 0.  1.
         22    1    3    3    0    0 -0.14274709113E+03  0.29800080140E+02 -0.10053383791E+03  0.17712094559E+03  0.00000000000E+00 0.  1.
</event>
<event>
 7    1  0.6105960E-006  0.3551202E+02  0.7818608E-02  0.1572657E+00
          2   -1    0    0  502    0  0.00000000000E+00  0.00000000000E+00  0.35526286032E+03  0.35526286032E+03  0.00000000000E+00 0. -1.
          1   -1    0    0  501    0 -0.00000000000E+00 -0.00000000000E+00 -0.18821085413E+03  0.18821085413E+03  0.00000000000E+00 0. -1.
         25    2    1    2    0    0  0.21499808892E+02  0.13688260701E+02  0.15415659530E+03  0.20009655103E+03  0.12499905438E+03 0.  0.
          2    1    1    2  501    0 -0.16801277708E+01 -0.35700755263E+02 -0.16204869612E+03  0.16594320315E+03  0.00000000000E+00 0. -1.
          1    1    1    2  502    0 -0.19819681121E+02  0.22012494562E+02  0.17494410701E+03  0.17743396026E+03  0.00000000000E+00 0. -1.
         22    1    3    3    0    0  0.22643570952E+01  0.24656393635E+02 -0.15361567691E+02  0.29138339384E+02  0.00000000000E+00 0.  1.
         22    1    3    3    0    0  0.19235451796E+02 -0.10968132934E+02  0.16951816299E+03  0.17095821165E+03  0.00000000000E+00 0.  1.
</event>
<event>
 7    1  0.6105960E-006  0.6784934E+02  0.7818608E-02  0.1454806E+00
          2   -1    0    0  502    0  0.00000000000E+00  0.00000000000E+00  0.14397878091E+04  0.14397878091E+04  0.00000000000E+00 0. -1.
          1   -1    0    0  501    0 -0.00000000000E+00 -0.00000000000E+00 -0.26567896545E+03  0.26567896545E+03  0.00000000000E+00 0. -1.
         25    2    1    2    0    0  0.36056660997E+02  0.15026777135E+02 -0.57856244563E+02  0.14317110587E+03  0.12499893474E+03 0.  0.
          2    1    1    2  501    0 -0.68801300463E+02 -0.25454285742E+02 -0.15679654896E+03  0.17310891766E+03  0.00000000000E+00 0. -1.
          1    1    1    2  502    0  0.32744639465E+02  0.10427508606E+02  0.13887616372E+04  0.13891867510E+04  0.00000000000E+00 0. -1.
         22    1    3    3    0    0 -0.44982624998E+01  0.64991868167E+02 -0.39763823601E+02  0.76323908185E+02  0.00000000000E+00 0. -1.
         22    1    3    3    0    0  0.40554923497E+02 -0.49965091032E+02 -0.18092420962E+02  0.66847197682E+02  0.00000000000E+00 0. -1.
</event>
<event>
 7    1  0.6105960E-006  0.5513139E+02  0.7818608E-02  0.1458533E+00
          2   -1    0    0  502    0  0.00000000000E+00  0.00000000000E+00  0.83667109272E+02  0.83667109272E+02  0.00000000000E+00 0. -1.
          1   -1    0    0  501    0 -0.00000000000E+00 -0.00000000000E+00 -0.21676546108E+04  0.21676546108E+04  0.00000000000E+00 0. -1.
         25    2    1    2    0    0  0.23136920927E+02 -0.93367316962E+01 -0.12390896243E+04  0.12456284876E+04  0.12499896125E+03 0.  0.
          2    1    1    2  501    0 -0.60602128100E+02  0.26375273410E+02 -0.91876209701E+03  0.92113628953E+03  0.00000000000E+00 0. -1.
          1    1    1    2  502    0  0.37465207172E+02 -0.17038541714E+02  0.73864219752E+02  0.84556943014E+02  0.00000000000E+00 0. -1.
         22    1    3    3    0    0 -0.22362998011E+02  0.14990232387E+02 -0.10270176554E+04  0.10273704664E+04  0.00000000000E+00 0.  1.
         22    1    3    3    0    0  0.45499918938E+02 -0.24326964084E+02 -0.21207196889E+03  0.21825802115E+03  0.00000000000E+00 0.  1.
</event>
<event>
 7    1  0.6105960E-006  0.2421427E+02  0.7818608E-02  0.1696629E+00
          2   -1    0    0  502    0  0.00000000000E+00  0.00000000000E+00  0.38608752070E+02  0.38608752070E+02  0.00000000000E+00 0. -1.
          1   -1    0    0  501    0 -0.00000000000E+00 -0.00000000000E+00 -0.97811618753E+03  0.97811618753E+03  0.00000000000E+00 0. -1.
         25    2    1    2    0    0  0.28238001856E+02 -0.20088823305E+02 -0.10746968281E+03  0.16845058768E+03  0.12499968878E+03 0.  0.
          2    1    1    2  501    0 -0.71955888847E+01  0.23099639892E+02 -0.82575390749E+03  0.82610827716E+03  0.00000000000E+00 0. -1.
          1    1    1    2  502    0 -0.21042412972E+02 -0.30108165873E+01 -0.62838451608E+01  0.22166074758E+02  0.00000000000E+00 0. -1.
         22    1    3    3    0    0 -0.29219172154E+02  0.78669000433E+01  0.12330315487E+02  0.32675446710E+02  0.00000000000E+00 0. -1.
         22    1    3    3    0    0  0.57457174011E+02 -0.27955723348E+02 -0.11979999830E+03  0.13577514097E+03  0.00000000000E+00 0. -1.
</event>
<event>
 7    1  0.6105960E-006  0.1044724E+03  0.7818608E-02  0.1273610E+00
          2   -1    0    0  502    0  0.00000000000E+00  0.00000000000E+00  0.46599678745E+03  0.46599678745E+03  0.00000000000E+00 0. -1.
          1   -1    0    0  501    0 -0.00000000000E+00 -0.00000000000E+00 -0.71152367891E+03  0.71152367891E+03  0.00000000000E+00 0. -1.
         25    2    1    2    0    0 -0.58104084619E+02  0.94490295677E+02 -0.72673548057E+02  0.18225107523E+03  0.12501803553E+03 0.  0.
          2    1    1    2  501    0 -0.46368019021E+02 -0.94750857376E+02 -0.57252859550E+03  0.58216553559E+03  0.00000000000E+00 0. -1.
          1    1    1    2  502    0  0.10447210364E+03  0.26056169952E+00  0.39967525209E+03  0.41310385554E+03  0.00000000000E+00 0. -1.
         22    1    3    3    0    0  0.25260048638E+01  0.83633996889E+02 -0.85178449652E+02  0.11940014414E+03  0.00000000000E+00 0. -1.
         22    1    3    3    0    0 -0.60630089483E+02  0.10856298787E+02  0.12504901595E+02  0.62850931083E+02  0.00000000000E+00 0. -1.
</event>
<event>
 7    1  0.6105960E-006  0.5148548E+02  0.7818608E-02  0.1447565E+00
          2   -1    0    0  502    0  0.00000000000E+00  0.00000000000E+00  0.70133517983E+03  0.70133517983E+03  0.00000000000E+00 0. -1.
          1   -1    0    0  501    0 -0.00000000000E+00 -0.00000000000E+00 -0.83477452326E+02  0.83477452326E+02  0.00000000000E+00 0. -1.
         25    2    1    2    0    0  0.52595618308E+02 -0.76666355716E+01  0.72304694470E+01  0.13601699049E+03  0.12499306239E+03 0.  0.
          2    1    1    2  501    0 -0.35512285643E+02 -0.40902022926E+02  0.22885954614E+02  0.58803612386E+02  0.00000000000E+00 0. -1.
          1    1    1    2  502    0 -0.17083332665E+02  0.48568658498E+02  0.58774130344E+03  0.58999202928E+03  0.00000000000E+00 0. -1.
         22    1    3    3    0    0  0.17326978752E+02 -0.18830205148E+02 -0.56670775101E+02  0.62180202389E+02  0.00000000000E+00 0. -1.
         22    1    3    3    0    0  0.35268639556E+02  0.11163569577E+02  0.63901244548E+02  0.73836788098E+02  0.00000000000E+00 0. -1.
</event>
<event>
 7    1  0.6105960E-006  0.8188156E+02  0.7818608E-02  0.1361365E+00
          2   -1    0    0  502    0  0.00000000000E+00  0.00000000000E+00  0.10582187791E+03  0.10582187791E+03  0.00000000000E+00 0. -1.
          1   -1    0    0  501    0 -0.00000000000E+00 -0.00000000000E+00 -0.17933731297E+04  0.17933731297E+04  0.00000000000E+00 0. -1.
         25    2    1    2    0    0  0.76202212051E+02  0.25483613487E+02 -0.79071755201E+03  0.80455898642E+03  0.12499889557E+03 0.  0.
          2    1    1    2  501    0 -0.10505264883E+01 -0.59197796116E+02 -0.97753293535E+03  0.97932431929E+03  0.00000000000E+00 0. -1.
          1    1    1    2  502    0 -0.75151685563E+02  0.33714182629E+02  0.80699235614E+02  0.11531170184E+03  0.00000000000E+00 0. -1.
         22    1    3    3    0    0 -0.28780062984E+02  0.18502035893E+02 -0.95902450705E+02  0.10182287272E+03  0.00000000000E+00 0.  1.
         22    1    3    3    0    0  0.10498227504E+03  0.69815775936E+01 -0.69481510131E+03  0.70273611371E+03  0.00000000000E+00 0.  1.
</event>
<event>
 7    1  0.6105960E-006  0.4812835E+02  0.7818608E-02  0.1538529E+00
          2   -1    0    0  502    0  0.00000000000E+00  0.00000000000E+00  0.86107791972E+03  0.86107791972E+03  0.00000000000E+00 0. -1.
          1   -1    0    0  501    0 -0.00000000000E+00 -0.00000000000E+00 -0.68951310775E+02  0.68951310775E+02  0.00000000000E+00 0. -1.
         25    2    1    2    0    0  0.17763621676E+02 -0.23184163887E+02  0.58108254786E+03  0.59509323027E+03  0.12500389420E+03 0.  0.
          2    1    1    2  501    0  0.11469711302E+02 -0.24629019764E+02 -0.55910669517E+02  0.62162254285E+02  0.00000000000E+00 0. -1.
          1    1    1    2  502    0 -0.29233332978E+02  0.47813183651E+02  0.26695473060E+03  0.27277374594E+03  0.00000000000E+00 0. -1.
         22    1    3    3    0    0  0.22057350974E+02 -0.38588476311E+02  0.64890343968E+02  0.78653378670E+02  0.00000000000E+00 0. -1.
         22    1    3    3    0    0 -0.42937292983E+01  0.15404312424E+02  0.51619220390E+03  0.51643985160E+03  0.00000000000E+00 0. -1.
</event>
<event>
 7    1  0.6105960E-006  0.8808873E+02  0.7818608E-02  0.1410677E+00
          2   -1    0    0  502    0  0.00000000000E+00  0.00000000000E+00  0.11313996155E+04  0.11313996155E+04  0.00000000000E+00 0. -1.
          1   -1    0    0  501    0 -0.00000000000E+00 -0.00000000000E+00 -0.30881139104E+04  0.30881139104E+04  0.00000000000E+00 0. -1.
         25    2    1    2    0    0  0.53286853975E+02  0.13373904379E+02 -0.14379573382E+03  0.19829386140E+03  0.12499956912E+03 0.  0.
          2    1    1    2  501    0 -0.79981839425E+02 -0.38905475340E+02 -0.29160819379E+04  0.29174380197E+04  0.00000000000E+00 0. -1.
          1    1    1    2  502    0  0.26694985450E+02  0.25531570961E+02  0.11031633768E+04  0.11037816447E+04  0.00000000000E+00 0. -1.
         22    1    3    3    0    0  0.37692807128E+02  0.68139897337E+02 -0.67244515329E+02  0.10288643331E+03  0.00000000000E+00 0. -1.
         22    1    3    3    0    0  0.15594046847E+02 -0.54765992958E+02 -0.76551218490E+02  0.95407428086E+02  0.00000000000E+00 0. -1.
</event>
<event>
 7    1  0.6105960E-006  0.5134792E+02  0.7818608E-02  0.1445080E+00
          2   -1    0    0  502    0  0.00000000000E+00  0.00000000000E+00  0.65330099370E+03  0.65330099370E+03  0.00000000000E+00 0. -1.
          1   -1    0    0  501    0 -0.00000000000E+00 -0.00000000000E+00 -0.51388648864E+03  0.51388648864E+03  0.00000000000E+00 0. -1.
         25    2    1    2    0    0 -0.11175484138E+02 -0.91518980093E+01 -0.11189224265E+03  0.16838205437E+03  0.12499597427E+03 0.  0.
          2    1    1    2  501    0  0.51023736411E+02 -0.18986759041E+02 -0.37080688677E+03  0.37478215803E+03  0.00000000000E+00 0. -1.
          1    1    1    2  502    0 -0.39848252273E+02  0.28138657050E+02  0.62211363449E+03  0.62402326995E+03  0.00000000000E+00 0. -1.
         22    1    3    3    0    0  0.10267219890E+01 -0.28998065359E+02 -0.13349394345E+03  0.13661103502E+03  0.00000000000E+00 0.  1.
         22    1    3    3    0    0 -0.12202206127E+02  0.19846167350E+02  0.21601700796E+02  0.31771019343E+02  0.00000000000E+00 0.  1.
</event>
<event>
 7    1  0.6105960E-006  0.8737582E+02  0.7818608E-02  0.1414946E+00
          2   -1    0    0  502    0  0.00000000000E+00  0.00000000000E+00  0.14910389847E+02  0.14910389847E+02  0.00000000000E+00 0. -1.
          1   -1    0    0  501    0 -0.00000000000E+00 -0.00000000000E+00 -0.27096464918E+04  0.27096464918E+04  0.00000000000E+00 0. -1.
         25    2    1    2    0    0  0.13399478355E+01 -0.58269790080E+02 -0.19382711180E+04  0.19431719402E+04  0.12500039450E+03 0.  0.
          2    1    1    2  501    0  0.21626927984E+02 -0.28811341899E+02 -0.59825156627E+03  0.59933526009E+03  0.00000000000E+00 0. -1.
          1    1    1    2  502    0 -0.22966875820E+02  0.87081131978E+02 -0.15821341774E+03  0.18204968136E+03  0.00000000000E+00 0. -1.
         22    1    3    3    0    0 -0.50207875672E+02  0.11652044149E+01 -0.44403270985E+03  0.44686377778E+03  0.00000000000E+00 0.  1.
         22    1    3    3    0    0  0.51547823508E+02 -0.59434994494E+02 -0.14942384081E+04  0.14963081624E+04  0.00000000000E+00 0.  1.
</event>
<event>
 7    1  0.6105960E-006  0.1213462E+03  0.7818608E-02  0.1343925E+00
          2   -1    0    0  502    0  0.00000000000E+00  0.00000000000E+00  0.28378887389E+03  0.28378887389E+03  0.00000000000E+00 0. -1.
          1   -1    0    0  501    0 -0.00000000000E+00 -0.00000000000E+00 -0.17116586394E+04  0.17116586394E+04  0.00000000000E+00 0. -1.
         25    2    1    2    0    0  0.64927675943E+02 -0.91036013766E+02 -0.48325748655E+03  0.51153401763E+03  0.12500437586E+03 0.  0.
          2    1    1    2  501    0 -0.37210637966E+02 -0.27606868158E+02 -0.12000303715E+04  0.12009245036E+04  0.00000000000E+00 0. -1.
          1    1    1    2  502    0 -0.27717037977E+02  0.11864288192E+03  0.25541809256E+03  0.28298899207E+03  0.00000000000E+00 0. -1.
         22    1    3    3    0    0  0.23008568274E+02 -0.11641794765E+03 -0.33668241281E+03  0.35698400503E+03  0.00000000000E+00 0.  1.
         22    1    3    3    0    0  0.41919107669E+02  0.25381933879E+02 -0.14657507373E+03  0.15455001260E+03  0.00000000000E+00 0.  1.
</event>
<event>
 7    1  0.6105960E-006  0.9175209E+02  0.7818608E-02  0.1429105E+00
          2   -1    0    0  502    0  0.00000000000E+00  0.00000000000E+00  0.51688311838E+03  0.51688311838E+03  0.00000000000E+00 0. -1.
          1   -1    0    0  501    0 -0.00000000000E+00 -0.00000000000E+00 -0.30929533903E+03  0.30929533903E+03  0.00000000000E+00 0. -1.
         25    2    1    2    0    0 -0.46048539744E+02 -0.10706035464E+03  0.16758911826E+03  0.23936332889E+03  0.12500521233E+03 0.  0.
          2    1    1    2  501    0  0.19942245378E+02  0.23442270317E+02 -0.26638379845E+03  0.26815585257E+03  0.00000000000E+00 0. -1.
          1    1    1    2  502    0  0.26106294366E+02  0.83618084326E+02  0.30638245955E+03  0.31865927595E+03  0.00000000000E+00 0. -1.
         22    1    3    3    0    0  0.15127829253E+02 -0.92017601551E+02  0.49634717017E+02  0.10563945923E+03  0.00000000000E+00 0.  1.
         22    1    3    3    0    0 -0.61176368997E+02 -0.15042753092E+02  0.11795440124E+03  0.13372386966E+03  0.00000000000E+00 0.  1.
</event>
<event>
 7    1  0.6105960E-006  0.4724782E+02  0.7818608E-02  0.1463579E+00
          2   -1    0    0  502    0  0.00000000000E+00  0.00000000000E+00  0.93966798018E+03  0.93966798018E+03  0.00000000000E+00 0. -1.
          1   -1    0    0  501    0 -0.00000000000E+00 -0.00000000000E+00 -0.13099258129E+04  0.13099258129E+04  0.00000000000E+00 0. -1.
         25    2    1    2    0    0  0.75049267327E+02 -0.21790582630E+02 -0.26072165355E+03  0.29951414091E+03  0.12500287179E+03 0.  0.
          2    1    1    2  501    0 -0.44805153813E+02 -0.13264792860E+02 -0.10286948916E+04  0.10297556198E+04  0.00000000000E+00 0. -1.
          1    1    1    2  502    0 -0.30244113514E+02  0.35055375490E+02  0.91915871247E+03  0.92032403232E+03  0.00000000000E+00 0. -1.
         22    1    3    3    0    0  0.81452049677E+02 -0.64674713369E+02 -0.18022547261E+03  0.20808285831E+03  0.00000000000E+00 0.  1.
         22    1    3    3    0    0 -0.64027823496E+01  0.42884130739E+02 -0.80496180942E+02  0.91431282597E+02  0.00000000000E+00 0.  1.
</event>
<event>
 7    1  0.6105960E-006  0.8193333E+02  0.7818608E-02  0.1354726E+00
          2   -1    0    0  502    0  0.00000000000E+00  0.00000000000E+00  0.32259102234E+04  0.32259102234E+04  0.00000000000E+00 0. -1.
          1   -1    0    0  501    0 -0.00000000000E+00 -0.00000000000E+00 -0.46827652778E+03  0.46827652778E+03  0.00000000000E+00 0. -1.
         25    2    1    2    0    0 -0.22918817093E+02 -0.10218935160E+03 -0.70645730090E+02  0.17772250499E+03  0.12500613522E+03 0.  0.
          2    1    1    2  501    0  0.61837590027E+02  0.53190198331E+02 -0.33894523207E+03  0.34862150691E+03  0.00000000000E+00 0. -1.
          1    1    1    2  502    0 -0.38918772935E+02  0.48999153269E+02  0.31672246578E+04  0.31678427393E+04  0.00000000000E+00 0. -1.
         22    1    3    3    0    0 -0.70250489783E+02 -0.31224385510E+02 -0.42816967144E+02  0.87996512662E+02  0.00000000000E+00 0. -1.
         22    1    3    3    0    0  0.47331672691E+02 -0.70964966090E+02 -0.27828762947E+02  0.89725992327E+02  0.00000000000E+00 0. -1.
</event>
<event>
 7    1  0.6105960E-006  0.4826885E+02  0.7818608E-02  0.1460099E+00
          2   -1    0    0  502    0  0.00000000000E+00  0.00000000000E+00  0.18705184186E+03  0.18705184186E+03  0.00000000000E+00 0. -1.
          1   -1    0    0  501    0 -0.00000000000E+00 -0.00000000000E+00 -0.10033975843E+04  0.10033975843E+04  0.00000000000E+00 0. -1.
         25    2    1    2    0    0  0.40824087610E+02  0.52503331120E+02 -0.33803888106E+03  0.36649963468E+03  0.12501396404E+03 0.  0.
          2    1    1    2  501    0 -0.47781839339E+02 -0.65503741705E+01 -0.64708988334E+03  0.64888468058E+03  0.00000000000E+00 0. -1.
          1    1    1    2  502    0  0.69577517293E+01 -0.45952956950E+02  0.16878302194E+03  0.17506511091E+03  0.00000000000E+00 0. -1.
         22    1    3    3    0    0  0.55284561713E+02  0.65930361606E+02 -0.33579071238E+03  0.34663900223E+03  0.00000000000E+00 0. -1.
         22    1    3    3    0    0 -0.14460474103E+02 -0.13427030486E+02 -0.22481686788E+01  0.19860632451E+02  0.00000000000E+00 0. -1.
</event>
<event>
 7    1  0.6105960E-006  0.7935155E+02  0.7818608E-02  0.1359764E+00
          2   -1    0    0  502    0  0.00000000000E+00  0.00000000000E+00  0.12355596967E+04  0.12355596967E+04  0.00000000000E+00 0. -1.
          1   -1    0    0  501    0 -0.00000000000E+00 -0.00000000000E+00 -0.19855413285E+02  0.19855413285E+02  0.00000000000E+00 0. -1.
         25    2    1    2    0    0 -0.15525628859E+02  0.41210769362E+02  0.59724254188E+03  0.61176829042E+03  0.12498965826E+03 0.  0.
          2    1    1    2  501    0 -0.68581091464E+02 -0.39916197173E+02  0.17324019590E+03  0.19054877165E+03  0.00000000000E+00 0. -1.
          1    1    1    2  502    0  0.84106720323E+02 -0.12945721895E+01  0.44522154568E+03  0.45309804795E+03  0.00000000000E+00 0. -1.
         22    1    3    3    0    0 -0.13824464327E+02  0.75126681697E+02  0.53870449053E+03  0.54409343153E+03  0.00000000000E+00 0.  1.
         22    1    3    3    0    0 -0.17011645325E+01 -0.33915912335E+02  0.58538051345E+02  0.67674858889E+02  0.00000000000E+00 0.  1.
</event>
<event>
 7    1  0.6105960E-006  0.1472766E+03  0.7818608E-02  0.1384838E+00
          2   -1    0    0  502    0  0.00000000000E+00  0.00000000000E+00  0.69766318998E+03  0.69766318998E+03  0.00000000000E+00 0. -1.
          1   -1    0    0  501    0 -0.00000000000E+00 -0.00000000000E+00 -0.12454330579E+04  0.12454330579E+04  0.00000000000E+00 0. -1.
         25    2    1    2    0    0  0.68961133462E+02 -0.13406601989E+03 -0.21597957533E+03  0.29154929487E+03  0.12499791504E+03 0.  0.
          2    1    1    2  501    0  0.20833858051E+02  0.17375400414E+02 -0.98326563404E+03  0.98363980260E+03  0.00000000000E+00 0. -1.
          1    1    1    2  502    0 -0.89794991513E+02  0.11669061947E+03  0.65147534140E+03  0.66790715045E+03  0.00000000000E+00 0. -1.
         22    1    3    3    0    0  0.73841951924E+02 -0.28213496151E+02 -0.14131491415E+03  0.16192140128E+03  0.00000000000E+00 0. -1.
         22    1    3    3    0    0 -0.48808184626E+01 -0.10585252373E+03 -0.74664661176E+02  0.12962789360E+03  0.00000000000E+00 0. -1.
</event>
<event>
 7    1  0.6105960E-006  0.5720838E+02  0.7818608E-02  0.1439707E+00
          2   -1    0    0  502    0  0.00000000000E+00  0.00000000000E+00  0.11503051695E+04  0.11503051695E+04  0.00000000000E+00 0. -1.
          1   -1    0    0  501    0 -0.00000000000E+00 -0.00000000000E+00 -0.19082966775E+03  0.19082966775E+03  0.00000000000E+00 0. -1.
         25    2    1    2    0    0 -0.51737717946E+01  0.16063391678E+02  0.26581074149E+03  0.29421883104E+03  0.12499827912E+03 0.  0.
          2    1    1    2  501    0 -0.35867890431E+02  0.28113029686E+02 -0.17262042475E+03  0.17853475584E+03  0.00000000000E+00 0. -1.
          1    1    1    2  502    0  0.41041662226E+02 -0.44176421364E+02  0.86628518501E+03  0.86838125038E+03  0.00000000000E+00 0. -1.
         22    1    3    3    0    0  0.60199673577E+01 -0.44261156606E+02  0.39137381663E+02  0.59388758486E+02  0.00000000000E+00 0.  1.
         22    1    3    3    0    0 -0.11193739152E+02  0.60324548284E+02  0.22667335983E+03  0.23483007256E+03  0.00000000000E+00 0.  1.
</event>
<event>
 7    1  0.6105960E-006  0.5728718E+02  0.7818608E-02  0.1457775E+00
          2   -1    0    0  502    0  0.00000000000E+00  0.00000000000E+00  0.12259738038E+03  0.12259738038E+03  0.00000000000E+00 0. -1.
          1   -1    0    0  501    0 -0.00000000000E+00 -0.00000000000E+00 -0.99128455057E+03  0.99128455057E+03  0.00000000000E+00 0. -1.
         25    2    1    2    0    0  0.20480092873E+02  0.51475391462E+02 -0.19118450370E+03  0.23504277321E+03  0.12499776260E+03 0.  0.
          2    1    1    2  501    0  0.30995251745E+02 -0.25011287276E+02 -0.76929341380E+03  0.77032371549E+03  0.00000000000E+00 0. -1.
          1    1    1    2  502    0 -0.51475344618E+02 -0.26464104186E+02  0.91790747315E+02  0.10851544225E+03  0.00000000000E+00 0. -1.
         22    1    3    3    0    0 -0.18404306732E+02  0.81234387070E+02 -0.14764662342E+03  0.16952070539E+03  0.00000000000E+00 0. -1.
         22    1    3    3    0    0  0.38884399605E+02 -0.29758995608E+02 -0.43537880276E+02  0.65522067818E+02  0.00000000000E+00 0. -1.
</event>
<event>
 7    1  0.6105960E-006  0.1315808E+03  0.7818608E-02  0.1263971E+00
          2   -1    0    0  502    0  0.00000000000E+00  0.00000000000E+00  0.11809889562E+04  0.11809889562E+04  0.00000000000E+00 0. -1.
          1   -1    0    0  501    0 -0.00000000000E+00 -0.00000000000E+00 -0.40477257364E+03  0.40477257364E+03  0.00000000000E+00 0. -1.
         25    2    1    2    0    0 -0.30866109736E+02  0.83162343802E+02  0.12586084862E+01  0.15327854510E+03  0.12499614449E+03 0.  0.
          2    1    1    2  501    0  0.11971639031E+03 -0.79012335145E+02 -0.31121190642E+03  0.34267741962E+03  0.00000000000E+00 0. -1.
          1    1    1    2  502    0 -0.88850280579E+02 -0.41500086565E+01  0.10861696805E+04  0.10898055651E+04  0.00000000000E+00 0. -1.
         22    1    3    3    0    0 -0.34744457043E+02  0.51907269256E+02  0.60009674539E+02  0.86618144376E+02  0.00000000000E+00 0.  1.
         22    1    3    3    0    0  0.38783473074E+01  0.31255074546E+02 -0.58751066053E+02  0.66660400726E+02  0.00000000000E+00 0.  1.
</event>
<event>
 7    1  0.6105960E-006  0.1507488E+03  0.7818608E-02  0.1303301E+00
          2   -1    0    0  502    0  0.00000000000E+00  0.00000000000E+00  0.16843987145E+04  0.16843987145E+04  0.00000000000E+00 0. -1.
          1   -1    0    0  501    0 -0.00000000000E+00 -0.00000000000E+00 -0.10356735360E+04  0.10356735360E+04  0.00000000000E+00 0. -1.
         25    2    1    2    0    0 -0.59840320306E+02  0.18904979888E+03  0.22392389824E+03  0.32417177395E+03  0.12499894574E+03 0.  0.
          2    1    1    2  501    0  0.26709517987E+01 -0.53443946052E+02 -0.98097943849E+03  0.98243780877E+03  0.00000000000E+00 0. -1.
          1    1    1    2  502    0  0.57169368507E+02 -0.13560585283E+03  0.14057807188E+04  0.14134626678E+04  0.00000000000E+00 0. -1.
         22    1    3    3    0    0  0.11064888468E+02  0.14009784689E+03  0.17717946367E+03  0.22614685673E+03  0.00000000000E+00 0. -1.
         22    1    3    3    0    0 -0.70905208774E+02  0.48951951991E+02  0.46744434563E+02  0.98024917228E+02  0.00000000000E+00 0. -1.
</event>
<event>
 7    1  0.6105960E-006  0.1179276E+03  0.7818608E-02  0.1306408E+00
          2   -1    0    0  502    0  0.00000000000E+00  0.00000000000E+00  0.88898150206E+03  0.88898150206E+03  0.00000000000E+00 0. -1.
          1   -1    0    0  501    0 -0.00000000000E+00 -0.00000000000E+00 -0.15375878188E+04  0.15375878188E+04  0.00000000000E+00 0. -1.
         25    2    1    2    0    0 -0.42024963189E+01 -0.99648657531E+02 -0.20693545210E+03  0.26152542675E+03  0.12500300628E+03 0.  0.
          2    1    1    2  501    0  0.66475554358E+02 -0.12159049390E+01 -0.12984260152E+04  0.13001271456E+04  0.00000000000E+00 0. -1.
          1    1    1    2  502    0 -0.62273058039E+02  0.10086456247E+03  0.85675515061E+03  0.86491674848E+03  0.00000000000E+00 0. -1.
         22    1    3    3    0    0 -0.25188881755E+02 -0.66429121025E+02 -0.21040849022E+03  0.22207890633E+03  0.00000000000E+00 0.  1.
         22    1    3    3    0    0  0.20986385436E+02 -0.33219536506E+02  0.34730381117E+01  0.39446520418E+02  0.00000000000E+00 0.  1.
</event>
<event>
 7    1  0.6105960E-006  0.1463935E+03  0.7818608E-02  0.1345180E+00
          2   -1    0    0  502    0  0.00000000000E+00  0.00000000000E+00  0.31202522919E+04  0.31202522919E+04  0.00000000000E+00 0. -1.
          1   -1    0    0  501    0 -0.00000000000E+00 -0.00000000000E+00 -0.66736310361E+03  0.66736310361E+03  0.00000000000E+00 0. -1.
         25    2    1    2    0    0 -0.81861170622E+02 -0.76224888024E+02  0.21594811551E+03  0.27344206134E+03  0.12500195001E+03 0.  0.
          2    1    1    2  501    0 -0.19496744069E+02 -0.32609549834E+02 -0.63612599009E+03  0.63725958686E+03  0.00000000000E+00 0. -1.
          1    1    1    2  502    0  0.10135791469E+03  0.10883443786E+03  0.28730670629E+04  0.28769137473E+04  0.00000000000E+00 0. -1.
         22    1    3    3    0    0 -0.87578379604E+02 -0.29427740599E+02  0.59133487778E+02  0.10969381873E+03  0.00000000000E+00 0. -1.
         22    1    3    3    0    0  0.57172089819E+01 -0.46797147425E+02  0.15681462773E+03  0.16374824261E+03  0.00000000000E+00 0. -1.
</event>
<event>
 7    1  0.6105960E-006  0.8250256E+02  0.7818608E-02  0.1381962E+00
          2   -1    0    0  502    0  0.00000000000E+00  0.00000000000E+00  0.12969523841E+04  0.12969523841E+04  0.00000000000E+00 0. -1.
          1   -1    0    0  501    0 -0.00000000000E+00 -0.00000000000E+00 -0.14693246930E+04  0.14693246930E+04  0.00000000000E+00 0. -1.
         25    2    1    2    0    0 -0.27364580731E+02 -0.20803044596E+02  0.16134389175E+03  0.20697458666E+03  0.12500016471E+03 0.  0.
          2    1    1    2  501    0  0.74478611552E+02  0.36215337230E+02 -0.14447708801E+04  0.14471425328E+04  0.00000000000E+00 0. -1.
          1    1    1    2  502    0 -0.47114030821E+02 -0.15412292634E+02  0.11110546795E+04  0.11121599577E+04  0.00000000000E+00 0. -1.
         22    1    3    3    0    0 -0.53864287246E+02  0.27638660018E+02  0.13018442707E+03  0.14357312429E+03  0.00000000000E+00 0.  1.
         22    1    3    3    0    0  0.26499706516E+02 -0.48441704614E+02  0.31159464680E+02  0.63401462368E+02  0.00000000000E+00 0.  1.
</event>
<event>
 7    1  0.6105960E-006  0.1348816E+03  0.7818608E-02  0.1293164E+00
          2   -1    0    0  502    0  0.00000000000E+00  0.00000000000E+00  0.20154445134E+03  0.20154445134E+03  0.00000000000E+00 0. -1.
          1   -1    0    0  501    0 -0.00000000000E+00 -0.00000000000E+00 -0.48659905926E+03  0.48659905926E+03  0.00000000000E+00 0. -1.
         25    2    1    2    0    0  0.86278298978E+02  0.13654547652E+03  0.48835253169E+02  0.20999580339E+03  0.12499897382E+03 0.  0.
          2    1    1    2  501    0  0.11360331633E+02 -0.64690705676E+02 -0.34976989224E+03  0.35588329837E+03  0.00000000000E+00 0. -1.
          1    1    1    2  502    0 -0.97638630611E+02 -0.71854770844E+02  0.15880031159E+02  0.12226440885E+03  0.00000000000E+00 0. -1.
         22    1    3    3    0    0  0.90917086232E+02  0.27346552051E+02  0.22523146591E+02  0.97575830053E+02  0.00000000000E+00 0.  1.
         22    1    3    3    0    0 -0.46387872543E+01  0.10919892447E+03  0.26312106578E+02  0.11241997334E+03  0.00000000000E+00 0.  1.
</event>
<event>
 7    1  0.6105960E-006  0.1396500E+03  0.7818608E-02  0.1263707E+00
          2   -1    0    0  502    0  0.00000000000E+00  0.00000000000E+00  0.95463029895E+03  0.95463029895E+03  0.00000000000E+00 0. -1.
          1   -1    0    0  501    0 -0.00000000000E+00 -0.00000000000E+00 -0.83891309743E+03  0.83891309743E+03  0.00000000000E+00 0. -1.
         25    2    1    2    0    0 -0.18127124722E+02 -0.88207594914E+02 -0.44864811978E+03  0.47436189916E+03  0.12499961417E+03 0.  0.
          2    1    1    2  501    0 -0.83585437647E+02 -0.85708270509E+01 -0.36740634022E+03  0.37689176603E+03  0.00000000000E+00 0. -1.
          1    1    1    2  502    0  0.10171256237E+03  0.96778421965E+02  0.93177166152E+03  0.94228973120E+03  0.00000000000E+00 0. -1.
         22    1    3    3    0    0  0.38765628053E+02 -0.28465755736E+02 -0.59210461795E+02  0.76282055255E+02  0.00000000000E+00 0. -1.
         22    1    3    3    0    0 -0.56892752775E+02 -0.59741839178E+02 -0.38943765798E+03  0.39807984390E+03  0.00000000000E+00 0. -1.
</event>
<event>
 7    1  0.6105960E-006  0.1054838E+03  0.7818608E-02  0.1271349E+00
          2   -1    0    0  502    0  0.00000000000E+00  0.00000000000E+00  0.47408416584E+03  0.47408416584E+03  0.00000000000E+00 0. -1.
          1   -1    0    0  501    0 -0.00000000000E+00 -0.00000000000E+00 -0.15180697986E+04  0.15180697986E+04  0.00000000000E+00 0. -1.
         25    2    1    2    0    0 -0.10581631607E+02  0.33394542636E+02 -0.90764418104E+02  0.15839533584E+03  0.12499494557E+03 0.  0.
          2    1    1    2  501    0  0.10284563534E+03  0.23443669903E+02 -0.13847853264E+04  0.13887970444E+04  0.00000000000E+00 0. -1.
          1    1    1    2  502    0 -0.92264003733E+02 -0.56838212539E+02  0.43156411178E+03  0.44496158415E+03  0.00000000000E+00 0. -1.
         22    1    3    3    0    0  0.23976888672E+02  0.73120522002E+02 -0.58241327678E+02  0.96506757162E+02  0.00000000000E+00 0. -1.
         22    1    3    3    0    0 -0.34558520279E+02 -0.39725979366E+02 -0.32523090426E+02  0.61888578682E+02  0.00000000000E+00 0. -1.
</event>
<event>
 7    1  0.6105960E-006  0.1328443E+03  0.7818608E-02  0.1305800E+00
          2   -1    0    0  502    0  0.00000000000E+00  0.00000000000E+00  0.78865106798E+03  0.78865106798E+03  0.00000000000E+00 0. -1.
          1   -1    0    0  501    0 -0.00000000000E+00 -0.00000000000E+00 -0.40065191720E+03  0.40065191720E+03  0.00000000000E+00 0. -1.
         25    2    1    2    0    0  0.15451443665E+03  0.76903244233E+02  0.32411309489E+03  0.38789535088E+03  0.12499873941E+03 0.  0.
          2    1    1    2  501    0 -0.35260278500E+02 -0.47739819663E+02 -0.35755597164E+03  0.36244813487E+03  0.00000000000E+00 0. -1.
          1    1    1    2  502    0 -0.11925415815E+03 -0.29163424570E+02  0.42144202753E+03  0.43895949942E+03  0.00000000000E+00 0. -1.
         22    1    3    3    0    0 -0.21663946311E+02  0.69580884144E+01  0.46104259944E+02  0.51413464668E+02  0.00000000000E+00 0.  1.
         22    1    3    3    0    0  0.17617838296E+03  0.69945155819E+02  0.27800883494E+03  0.33648188621E+03  0.00000000000E+00 0.  1.
</event>
<event>
 7    1  0.6105960E-006  0.1604717E+03  0.7818608E-02  0.1269767E+00
          2   -1    0    0  502    0  0.00000000000E+00  0.00000000000E+00  0.13388087144E+04  0.13388087144E+04  0.00000000000E+00 0. -1.
          1   -1    0    0  501    0 -0.00000000000E+00 -0.00000000000E+00 -0.84394226230E+02  0.84394226230E+02  0.00000000000E+00 0. -1.
         25    2    1    2    0    0 -0.14075682536E+03 -0.76085139980E+02  0.32514461925E+03  0.38333481471E+03  0.12500049732E+03 0.  0.
          2    1    1    2  501    0  0.99254511582E+02  0.13113084890E+03  0.71494750213E+02  0.17932723416E+03  0.00000000000E+00 0. -1.
          1    1    1    2  502    0  0.41502313780E+02 -0.55045708924E+02  0.85777511873E+03  0.86054089178E+03  0.00000000000E+00 0. -1.
         22    1    3    3    0    0 -0.84214189847E+02  0.13433015014E+02  0.82764976457E+02  0.11883819669E+03  0.00000000000E+00 0. -1.
         22    1    3    3    0    0 -0.56542635515E+02 -0.89518154994E+02  0.24237964280E+03  0.26449661803E+03  0.00000000000E+00 0. -1.
</event>
<event>
 7    1  0.6183450E-006  0.1539708E+03  0.7818608E-02  0.1295830E+00
          2   -1    0    0  502    0  0.00000000000E+00  0.00000000000E+00  0.38169475405E+04  0.38169475405E+04  0.00000000000E+00 0. -1.
          1   -1    0    0  501    0 -0.00000000000E+00 -0.00000000000E+00 -0.83477485181E+03  0.83477485181E+03  0.00000000000E+00 0. -1.
         25    2    1    2    0    0 -0.29757132875E+02 -0.18829894374E+03 -0.41344562713E+03  0.47214253784E+03  0.12505722798E+03 0.  0.
          2    1    1    2  501    0 -0.30862515973E+02  0.46882047025E+02 -0.38840002967E+03  0.39243471339E+03  0.00000000000E+00 0. -1.
          1    1    1    2  502    0  0.60619648848E+02  0.14141689672E+03  0.37840183455E+04  0.37871451411E+04  0.00000000000E+00 0. -1.
         22    1    3    3    0    0 -0.36574000718E+02 -0.14813413650E+03 -0.40176287401E+03  0.42976131383E+03  0.00000000000E+00 0.  1.
         22    1    3    3    0    0  0.68168678430E+01 -0.40164807246E+02 -0.11682753117E+02  0.42381224011E+02  0.00000000000E+00 0.  1.
</event>
<event>
 7    1  0.6105960E-006  0.1405914E+03  0.7818608E-02  0.1372135E+00
          2   -1    0    0  502    0  0.00000000000E+00  0.00000000000E+00  0.76465086644E+03  0.76465086644E+03  0.00000000000E+00 0. -1.
          1   -1    0    0  501    0 -0.00000000000E+00 -0.00000000000E+00 -0.37482041324E+03  0.37482041324E+03  0.00000000000E+00 0. -1.
         25    2    1    2    0    0 -0.11549735340E+03 -0.57807632974E+02  0.69348307807E+03  0.71639685959E+03  0.12499727911E+03 0.  0.
          2    1    1    2  501    0  0.13661179195E+03  0.34394529712E+02 -0.34408275282E+03  0.37180466130E+03  0.00000000000E+00 0. -1.
          1    1    1    2  502    0 -0.21114438556E+02  0.23413103262E+02  0.40430127952E+02  0.51269758787E+02  0.00000000000E+00 0. -1.
         22    1    3    3    0    0 -0.13792402304E+03 -0.29775865620E+02  0.59709654401E+03  0.61354211035E+03  0.00000000000E+00 0. -1.
         22    1    3    3    0    0  0.22426669643E+02 -0.28031767354E+02  0.96386534067E+02  0.10285474924E+03  0.00000000000E+00 0. -1.
</event>
<event>
 7    1  0.6105960E-006  0.4868143E+02  0.7818608E-02  0.1570031E+00
          2   -1    0    0  502    0  0.00000000000E+00  0.00000000000E+00  0.11628241852E+04  0.11628241852E+04  0.00000000000E+00 0. -1.
          1   -1    0    0  501    0 -0.00000000000E+00 -0.00000000000E+00 -0.13628909167E+04  0.13628909167E+04  0.00000000000E+00 0. -1.
         25    2    1    2    0    0 -0.48743719563E+01  0.49523049390E+02  0.65024842365E+02  0.14943134629E+03  0.12500082083E+03 0.  0.
          2    1    1    2  501    0 -0.20490045756E+02 -0.79122940167E+01 -0.13200338192E+04  0.13202165467E+04  0.00000000000E+00 0. -1.
          1    1    1    2  502    0  0.25364417712E+02 -0.41610755373E+02  0.10549422453E+04  0.10560672089E+04  0.00000000000E+00 0. -1.
         22    1    3    3    0    0 -0.32097308834E+02  0.72820672019E+02  0.77895406632E+02  0.11135879796E+03  0.00000000000E+00 0. -1.
         22    1    3    3    0    0  0.27222936877E+02 -0.23297622629E+02 -0.12870564268E+02  0.38072548338E+02  0.00000000000E+00 0. -1.
</event>
<event>
 7    1  0.6105960E-006  0.8895956E+02  0.7818608E-02  0.1343593E+00
          2   -1    0    0  502    0  0.00000000000E+00  0.00000000000E+00  0.29662846899E+04  0.29662846899E+04  0.00000000000E+00 0. -1.
          1   -1    0    0  501    0 -0.00000000000E+00 -0.00000000000E+00 -0.11581828421E+03  0.11581828421E+03  0.00000000000E+00 0. -1.
         25    2    1    2    0    0 -0.62278542676E+01  0.68312164716E+02  0.18486921062E+03  0.23346745264E+03  0.12500035357E+03 0.  0.
          2    1    1    2  501    0 -0.56914086575E+02 -0.73831909347E+02 -0.67316824135E+02  0.11498660313E+03  0.00000000000E+00 0. -1.
          1    1    1    2  502    0  0.63141940843E+02  0.55197446310E+01  0.27329140192E+04  0.27336489184E+04  0.00000000000E+00 0. -1.
         22    1    3    3    0    0  0.49636736217E+02 -0.23538993229E+01  0.44645680545E+02  0.66802568930E+02  0.00000000000E+00 0. -1.
         22    1    3    3    0    0 -0.55864590485E+02  0.70666064039E+02  0.14022353007E+03  0.16666488371E+03  0.00000000000E+00 0. -1.
</event>
<event>
 7    1  0.6105960E-006  0.1574792E+03  0.7818608E-02  0.1349206E+00
          2   -1    0    0  502    0  0.00000000000E+00  0.00000000000E+00  0.12219108298E+04  0.12219108298E+04  0.00000000000E+00 0. -1.
          1   -1    0    0  501    0 -0.00000000000E+00 -0.00000000000E+00 -0.13797647474E+03  0.13797647474E+03  0.00000000000E+00 0. -1.
         25    2    1    2    0    0 -0.13916635957E+03 -0.11172683845E+03  0.11380594903E+03  0.24581878328E+03  0.12499967246E+03 0.  0.
          2    1    1    2  501    0  0.12493360007E+03  0.80715500017E+02  0.55043535896E+01  0.14884117132E+03  0.00000000000E+00 0. -1.
          1    1    1    2  502    0  0.14232759492E+02  0.31011338430E+02  0.96462405245E+03  0.96522734997E+03  0.00000000000E+00 0. -1.
         22    1    3    3    0    0  0.51791040631E+01  0.85781741541E+01  0.44379511516E+02  0.45496694750E+02  0.00000000000E+00 0. -1.
         22    1    3    3    0    0 -0.14434546363E+03 -0.12030501260E+03  0.69426437518E+02  0.20032208853E+03  0.00000000000E+00 0. -1.
</event>
<event>
 7    1  0.6105960E-006  0.4514607E+03  0.7818608E-02  0.1065429E+00
          2   -1    0    0  502    0  0.00000000000E+00  0.00000000000E+00  0.23708606168E+04  0.23708606168E+04  0.00000000000E+00 0. -1.
          1   -1    0    0  501    0 -0.00000000000E+00 -0.00000000000E+00 -0.11772130715E+04  0.11772130715E+04  0.00000000000E+00 0. -1.
         25    2    1    2    0    0 -0.21922728099E+03  0.60832070455E+03 -0.12679524459E+03  0.67068505184E+03  0.12500689739E+03 0.  0.
          2    1    1    2  501    0  0.48079771813E+02 -0.41134256737E+03 -0.71446531455E+03  0.82581781156E+03  0.00000000000E+00 0. -1.
          1    1    1    2  502    0  0.17114750918E+03 -0.19697813718E+03  0.20349081044E+04  0.20515708249E+04  0.00000000000E+00 0. -1.
         22    1    3    3    0    0 -0.17451388095E+03  0.57540334473E+03 -0.12958934229E+03  0.61509145776E+03  0.00000000000E+00 0.  1.
         22    1    3    3    0    0 -0.44713400043E+02  0.32917359819E+02  0.27940977010E+01  0.55593594081E+02  0.00000000000E+00 0.  1.
</event>
<event>
 7    1  0.6105960E-006  0.1455495E+03  0.7818608E-02  0.1309376E+00
          2   -1    0    0  502    0  0.00000000000E+00  0.00000000000E+00  0.92873145597E+03  0.92873145597E+03  0.00000000000E+00 0. -1.
          1   -1    0    0  501    0 -0.00000000000E+00 -0.00000000000E+00 -0.91923723672E+02  0.91923723672E+02  0.00000000000E+00 0. -1.
         25    2    1    2    0    0 -0.10894453044E+03 -0.15079015019E+03  0.28271675339E+03  0.36078647943E+03  0.12502616120E+03 0.  0.
          2    1    1    2  501    0  0.71690968317E+02  0.11389281923E+03  0.36242463609E+02  0.13937246994E+03  0.00000000000E+00 0. -1.
          1    1    1    2  502    0  0.37253562124E+02  0.36897330965E+02  0.51784851530E+03  0.52049623027E+03  0.00000000000E+00 0. -1.
         22    1    3    3    0    0  0.16481295536E+02  0.10029818310E+02  0.34509492090E+02  0.39536507208E+02  0.00000000000E+00 0. -1.
         22    1    3    3    0    0 -0.12542582598E+03 -0.16081996850E+03  0.24820726130E+03  0.32124997222E+03  0.00000000000E+00 0. -1.
</event>
<event>
 7    1  0.6105960E-006  0.1341131E+03  0.7818608E-02  0.1295079E+00
          2   -1    0    0  502    0  0.00000000000E+00  0.00000000000E+00  0.96042234002E+03  0.96042234002E+03  0.00000000000E+00 0. -1.
          1   -1    0    0  501    0 -0.00000000000E+00 -0.00000000000E+00 -0.16531731219E+04  0.16531731219E+04  0.00000000000E+00 0. -1.
         25    2    1    2    0    0 -0.16996785206E+03 -0.49675209208E+02  0.15354767513E+03  0.26562932195E+03  0.12500140400E+03 0.  0.
          2    1    1    2  501    0  0.39519096144E+02  0.51468608997E+02 -0.15907987731E+04  0.15921217017E+04  0.00000000000E+00 0. -1.
          1    1    1    2  502    0  0.13044875591E+03 -0.17933997884E+01  0.74450031607E+03  0.75584443825E+03  0.00000000000E+00 0. -1.
         22    1    3    3    0    0  0.83444192903E+01  0.15054887891E+02  0.42417101471E+02  0.45776516686E+02  0.00000000000E+00 0.  1.
         22    1    3    3    0    0 -0.17831227135E+03 -0.64730097099E+02  0.11113057366E+03  0.21985280527E+03  0.00000000000E+00 0.  1.
</event>
<event>
 7    1  0.6105960E-006  0.1083192E+03  0.7818608E-02  0.1272601E+00
          2   -1    0    0  502    0  0.00000000000E+00  0.00000000000E+00  0.58761600958E+03  0.58761600958E+03  0.00000000000E+00 0. -1.
          1   -1    0    0  501    0 -0.00000000000E+00 -0.00000000000E+00 -0.19795189468E+03  0.19795189468E+03  0.00000000000E+00 0. -1.
         25    2    1    2    0    0 -0.21691323322E+01  0.57352965068E+01  0.12782307463E+03  0.17889135637E+03  0.12500312082E+03 0.  0.
          2    1    1    2  501    0  0.11008704382E+03 -0.15051098641E+02 -0.14669484556E+03  0.18402464645E+03  0.00000000000E+00 0. -1.
          1    1    1    2  502    0 -0.10791791149E+03  0.93158021342E+01  0.40853588582E+03  0.42265190144E+03  0.00000000000E+00 0. -1.
         22    1    3    3    0    0 -0.23452830446E+02 -0.53451824286E+02  0.39572381007E+02  0.70520253219E+02  0.00000000000E+00 0.  1.
         22    1    3    3    0    0  0.21283698114E+02  0.59187120793E+02  0.88250693623E+02  0.10837110315E+03  0.00000000000E+00 0.  1.
</event>
<event>
 7    1  0.6105960E-006  0.7008327E+02  0.7818608E-02  0.1428952E+00
          2   -1    0    0  502    0  0.00000000000E+00  0.00000000000E+00  0.12291523001E+03  0.12291523001E+03  0.00000000000E+00 0. -1.
          1   -1    0    0  501    0 -0.00000000000E+00 -0.00000000000E+00 -0.25032448628E+04  0.25032448628E+04  0.00000000000E+00 0. -1.
         25    2    1    2    0    0 -0.95072247889E+01 -0.90869834592E+02 -0.39404802284E+03  0.42337683267E+03  0.12500553578E+03 0.  0.
          2    1    1    2  501    0  0.35355194326E+02  0.59898977016E+02 -0.20901755622E+04  0.20913325317E+04  0.00000000000E+00 0. -1.
          1    1    1    2  502    0 -0.25847969537E+02  0.30970857576E+02  0.10389395228E+03  0.11145072843E+03  0.00000000000E+00 0. -1.
         22    1    3    3    0    0 -0.33096556311E+02 -0.11443499760E+03 -0.27380939812E+03  0.29860063163E+03  0.00000000000E+00 0.  1.
         22    1    3    3    0    0  0.23589331522E+02  0.23565163011E+02 -0.12023862473E+03  0.12477620104E+03  0.00000000000E+00 0.  1.
</event>
<event>
 7    1  0.6105960E-006  0.3548053E+02  0.7818608E-02  0.1630726E+00
          2   -1    0    0  502    0  0.00000000000E+00  0.00000000000E+00  0.29105961109E+04  0.29105961109E+04  0.00000000000E+00 0. -1.
          1   -1    0    0  501    0 -0.00000000000E+00 -0.00000000000E+00 -0.39006297516E+01  0.39006297516E+01  0.00000000000E+00 0. -1.
         25    2    1    2    0    0  0.28410240760E+02 -0.24507896725E+02  0.20011526212E+04  0.20054038487E+04  0.12500001682E+03 0.  0.
          2    1    1    2  501    0 -0.18318429821E+02 -0.10100126088E+02  0.77731849580E+02  0.80497315838E+02  0.00000000000E+00 0. -1.
          1    1    1    2  502    0 -0.10091810940E+02  0.34608022813E+02  0.82781101035E+03  0.82859557611E+03  0.00000000000E+00 0. -1.
         22    1    3    3    0    0  0.29443632840E+02 -0.59497841038E+02  0.18003081164E+04  0.18015316358E+04  0.00000000000E+00 0.  1.
         22    1    3    3    0    0 -0.10333920797E+01  0.34989944313E+02  0.20084450481E+03  0.20387221295E+03  0.00000000000E+00 0.  1.
</event>
<event>
 7    1  0.6105960E-006  0.8732871E+02  0.7818608E-02  0.1323566E+00
          2   -1    0    0  502    0  0.00000000000E+00  0.00000000000E+00  0.42854911317E+03  0.42854911317E+03  0.00000000000E+00 0. -1.
          1   -1    0    0  501    0 -0.00000000000E+00 -0.00000000000E+00 -0.55949565721E+03  0.55949565721E+03  0.00000000000E+00 0. -1.
         25    2    1    2    0    0  0.15199581111E+03 -0.35348762617E+02 -0.44160178056E+02  0.20474966861E+03  0.12498017385E+03 0.  0.
          2    1    1    2  501    0 -0.75100821771E+02  0.37682398717E+02 -0.42664397298E+03  0.43483925338E+03  0.00000000000E+00 0. -1.
          1    1    1    2  502    0 -0.76894989337E+02 -0.23336360998E+01  0.33985760699E+03  0.34845584838E+03  0.00000000000E+00 0. -1.
         22    1    3    3    0    0  0.14514678527E+03  0.17100160878E+02 -0.40848936244E+02  0.15175190400E+03  0.00000000000E+00 0. -1.
         22    1    3    3    0    0  0.68490258399E+01 -0.52448923495E+02 -0.33112418119E+01  0.52997764604E+02  0.00000000000E+00 0. -1.
</event>
<event>
 7    1  0.6105960E-006  0.6013439E+02  0.7818608E-02  0.1434967E+00
          2   -1    0    0  502    0  0.00000000000E+00  0.00000000000E+00  0.94778860245E+02  0.94778860245E+02  0.00000000000E+00 0. -1.
          1   -1    0    0  501    0 -0.00000000000E+00 -0.00000000000E+00 -0.67337426011E+03  0.67337426011E+03  0.00000000000E+00 0. -1.
         25    2    1    2    0    0 -0.10425545966E+02  0.62280782405E+02 -0.13368117624E+03  0.19361000222E+03  0.12500635268E+03 0.  0.
          2    1    1    2  501    0 -0.37701830654E+02 -0.24428262123E+02 -0.49401771061E+03  0.49605611217E+03  0.00000000000E+00 0. -1.
          1    1    1    2  502    0  0.48127376621E+02 -0.37852520282E+02  0.49103486986E+02  0.78487005971E+02  0.00000000000E+00 0. -1.
         22    1    3    3    0    0 -0.34084487558E+02  0.46596343246E+01 -0.12628075536E+03  0.13088274775E+03  0.00000000000E+00 0.  1.
         22    1    3    3    0    0  0.23658941591E+02  0.57621148080E+02 -0.74004208798E+01  0.62727254464E+02  0.00000000000E+00 0.  1.
</event>
<event>
 7    1  0.6105960E-006  0.9228000E+02  0.7818608E-02  0.1344234E+00
          2   -1    0    0  502    0  0.00000000000E+00  0.00000000000E+00  0.12050636803E+04  0.12050636803E+04  0.00000000000E+00 0. -1.
          1   -1    0    0  501    0 -0.00000000000E+00 -0.00000000000E+00 -0.26306851568E+02  0.26306851568E+02  0.00000000000E+00 0. -1.
         25    2    1    2    0    0  0.34766192972E+02  0.43049172427E+02  0.54486491939E+03  0.56175157376E+03  0.12500052329E+03 0.  0.
          2    1    1    2  501    0 -0.23609039066E+02 -0.10278194904E+03  0.15861800208E+03  0.19047620943E+03  0.00000000000E+00 0. -1.
          1    1    1    2  502    0 -0.11157153906E+02  0.59732776615E+02  0.47527390722E+03  0.47914274863E+03  0.00000000000E+00 0. -1.
         22    1    3    3    0    0 -0.90094431065E+01 -0.37429252499E+02  0.92301503910E+02  0.10000843280E+03  0.00000000000E+00 0. -1.
         22    1    3    3    0    0  0.43775636078E+02  0.80478424926E+02  0.45256341548E+03  0.46174314096E+03  0.00000000000E+00 0. -1.
</event>
<event>
 7    1  0.6105960E-006  0.3754919E+02  0.7818608E-02  0.1542233E+00
          2   -1    0    0  502    0  0.00000000000E+00  0.00000000000E+00  0.47530344309E+03  0.47530344309E+03  0.00000000000E+00 0. -1.
          1   -1    0    0  501    0 -0.00000000000E+00 -0.00000000000E+00 -0.18362930125E+03  0.18362930125E+03  0.00000000000E+00 0. -1.
         25    2    1    2    0    0  0.32817011385E+02 -0.26306607440E+02  0.70395182740E+00  0.13188769552E+03  0.12499949940E+03 0.  0.
          2    1    1    2  501    0 -0.89600157410E+00  0.37996605060E+02 -0.11424766035E+03  0.12040379026E+03  0.00000000000E+00 0. -1.
          1    1    1    2  502    0 -0.31921009811E+02 -0.11689997620E+02  0.40521785036E+03  0.40664125856E+03  0.00000000000E+00 0. -1.
         22    1    3    3    0    0  0.38966334901E+02 -0.15076729574E+02  0.58947808614E+02  0.72253215642E+02  0.00000000000E+00 0. -1.
         22    1    3    3    0    0 -0.61493235157E+01 -0.11229877866E+02 -0.58243856786E+02  0.59634479875E+02  0.00000000000E+00 0. -1.
</event>
<event>
 7    1  0.6105960E-006  0.5351182E+02  0.7818608E-02  0.1510708E+00
          2   -1    0    0  502    0  0.00000000000E+00  0.00000000000E+00  0.16043170451E+04  0.16043170451E+04  0.00000000000E+00 0. -1.
          1   -1    0    0  501    0 -0.00000000000E+00 -0.00000000000E+00 -0.10450444705E+04  0.10450444705E+04  0.00000000000E+00 0. -1.
         25    2    1    2    0    0  0.32681059587E+02  0.44934230807E+02  0.11687420947E+02  0.13729171235E+03  0.12500112687E+03 0.  0.
          2    1    1    2  501    0  0.16696870803E+02 -0.24196128415E+02 -0.98155346578E+03  0.98199360707E+03  0.00000000000E+00 0. -1.
          1    1    1    2  502    0 -0.49377930390E+02 -0.20738102392E+02  0.15291386194E+04  0.15300761962E+04  0.00000000000E+00 0. -1.
         22    1    3    3    0    0  0.50907244767E+02 -0.29357609823E+02 -0.50657986790E+01  0.58983719284E+02  0.00000000000E+00 0. -1.
         22    1    3    3    0    0 -0.18226185180E+02  0.74291840629E+02  0.16753219626E+02  0.78307993067E+02  0.00000000000E+00 0. -1.
</event>
<event>
 7    1  0.6105960E-006  0.2838061E+02  0.7818608E-02  0.1649589E+00
          2   -1    0    0  502    0  0.00000000000E+00  0.00000000000E+00  0.45785897304E+03  0.45785897304E+03  0.00000000000E+00 0. -1.
          1   -1    0    0  501    0 -0.00000000000E+00 -0.00000000000E+00 -0.96079203806E+03  0.96079203806E+03  0.00000000000E+00 0. -1.
         25    2    1    2    0    0  0.56829586514E+01 -0.27649689186E+01 -0.50256163134E+03  0.51791395406E+03  0.12500691760E+03 0.  0.
          2    1    1    2  501    0 -0.26927355833E+02  0.12759597538E+02 -0.44975480182E+03  0.45074080310E+03  0.00000000000E+00 0. -1.
          1    1    1    2  502    0  0.21244397182E+02 -0.99946286190E+01  0.44938336813E+03  0.44999625395E+03  0.00000000000E+00 0. -1.
         22    1    3    3    0    0 -0.38968450914E+02  0.35369809445E+02 -0.12225600852E+03  0.13310182270E+03  0.00000000000E+00 0. -1.
         22    1    3    3    0    0  0.44651409566E+02 -0.38134778364E+02 -0.38030562281E+03  0.38481213136E+03  0.00000000000E+00 0. -1.
</event>
<event>
 7    1  0.6105960E-006  0.6335085E+02  0.7818608E-02  0.1387871E+00
          2   -1    0    0  502    0  0.00000000000E+00  0.00000000000E+00  0.20425571247E+04  0.20425571247E+04  0.00000000000E+00 0. -1.
          1   -1    0    0  501    0 -0.00000000000E+00 -0.00000000000E+00 -0.33484797307E+03  0.33484797307E+03  0.00000000000E+00 0. -1.
         25    2    1    2    0    0 -0.13016181150E+02 -0.57563455836E+02 -0.17855750934E+03  0.22581008272E+03  0.12499774757E+03 0.  0.
          2    1    1    2  501    0 -0.47631822452E+02  0.38967614024E+02 -0.12500017687E+03  0.13932806490E+03  0.00000000000E+00 0. -1.
          1    1    1    2  502    0  0.60648003603E+02  0.18595841812E+02  0.20112668379E+04  0.20122669502E+04  0.00000000000E+00 0. -1.
         22    1    3    3    0    0  0.26987243959E+01 -0.96106944418E+02 -0.11591120342E+03  0.15059626475E+03  0.00000000000E+00 0. -1.
         22    1    3    3    0    0 -0.15714905546E+02  0.38543488581E+02 -0.62646305921E+02  0.75213817972E+02  0.00000000000E+00 0. -1.
</event>
<event>
 7    1  0.6105960E-006  0.5989702E+02  0.7818608E-02  0.1524253E+00
          2   -1    0    0  502    0  0.00000000000E+00  0.00000000000E+00  0.13902251671E+04  0.13902251671E+04  0.00000000000E+00 0. -1.
          1   -1    0    0  501    0 -0.00000000000E+00 -0.00000000000E+00 -0.93612824799E+02  0.93612824799E+02  0.00000000000E+00 0. -1.
         25    2    1    2    0    0  0.72537270757E+02  0.22141952096E+02  0.21998269177E+03  0.26413848310E+03  0.12499932753E+03 0.  0.
          2    1    1    2  501    0 -0.59166601918E+02 -0.22326758525E+01 -0.59135016088E+02  0.83681669149E+02  0.00000000000E+00 0. -1.
          1    1    1    2  502    0 -0.13370668840E+02 -0.19909276243E+02  0.11357646666E+04  0.11360178396E+04  0.00000000000E+00 0. -1.
         22    1    3    3    0    0  0.89645151447E+02  0.39000749961E+02  0.93090660393E+02  0.13499326919E+03  0.00000000000E+00 0. -1.
         22    1    3    3    0    0 -0.17107880689E+02 -0.16858797866E+02  0.12689203138E+03  0.12914521390E+03  0.00000000000E+00 0. -1.
</event>
<event>
 7    1  0.6105960E-006  0.7256605E+02  0.7818608E-02  0.1375898E+00
          2   -1    0    0  502    0  0.00000000000E+00  0.00000000000E+00  0.95123629132E+03  0.95123629132E+03  0.00000000000E+00 0. -1.
          1   -1    0    0  501    0 -0.00000000000E+00 -0.00000000000E+00 -0.33746339621E+03  0.33746339621E+03  0.00000000000E+00 0. -1.
         25    2    1    2    0    0  0.89261779763E+02 -0.66286529741E+02 -0.14250478408E+03  0.21975989137E+03  0.12500090807E+03 0.  0.
          2    1    1    2  501    0 -0.59218752465E+02  0.45016944206E+00 -0.14922681505E+03  0.16054814114E+03  0.00000000000E+00 0. -1.
          1    1    1    2  502    0 -0.30043027298E+02  0.65836360299E+02  0.90550449424E+03  0.90839165502E+03  0.00000000000E+00 0. -1.
         22    1    3    3    0    0  0.15826064675E+02  0.93269912958E+01  0.19304025706E+02  0.26647748464E+02  0.00000000000E+00 0. -1.
         22    1    3    3    0    0  0.73435715088E+02 -0.75613521037E+02 -0.16180880979E+03  0.19311214291E+03  0.00000000000E+00 0. -1.
</event>
<event>
 7    1  0.6105960E-006  0.7388977E+02  0.7818608E-02  0.1422485E+00
          2   -1    0    0  502    0  0.00000000000E+00  0.00000000000E+00  0.33754268173E+03  0.33754268173E+03  0.00000000000E+00 0. -1.
          1   -1    0    0  501    0 -0.00000000000E+00 -0.00000000000E+00 -0.63402967713E+03  0.63402967713E+03  0.00000000000E+00 0. -1.
         25    2    1    2    0    0  0.99946098452E+02 -0.44725897916E+01  0.51460271259E+02  0.16817311658E+03  0.12499924387E+03 0.  0.
          2    1    1    2  501    0 -0.67710754708E+02  0.28485557619E+02 -0.57153023978E+03  0.57623171405E+03  0.00000000000E+00 0. -1.
          1    1    1    2  502    0 -0.32235343744E+02 -0.24012967827E+02  0.22358297313E+03  0.22716752823E+03  0.00000000000E+00 0. -1.
         22    1    3    3    0    0  0.58571066677E+02  0.43154419776E+02  0.71472415271E+02  0.10198617525E+03  0.00000000000E+00 0. -1.
         22    1    3    3    0    0  0.41375031776E+02 -0.47627009568E+02 -0.20012144012E+02  0.66186941331E+02  0.00000000000E+00 0. -1.
</event>
<event>
 7    1  0.6105960E-006  0.8800186E+02  0.7818608E-02  0.1395714E+00
          2   -1    0    0  502    0  0.00000000000E+00  0.00000000000E+00  0.17173057137E+04  0.17173057137E+04  0.00000000000E+00 0. -1.
          1   -1    0    0  501    0 -0.00000000000E+00 -0.00000000000E+00 -0.90731605116E+02  0.90731605116E+02  0.00000000000E+00 0. -1.
         25    2    1    2    0    0  0.92132124784E+02  0.73365212367E+02  0.29869835758E+03  0.34455206056E+03  0.12499852323E+03 0.  0.
          2    1    1    2  501    0 -0.78783535913E+02 -0.33961595107E+02 -0.40223784014E+02  0.94753302178E+02  0.00000000000E+00 0. -1.
          1    1    1    2  502    0 -0.13348588870E+02 -0.39403617260E+02  0.13680995350E+04  0.13687319561E+04  0.00000000000E+00 0. -1.
         22    1    3    3    0    0  0.11305235300E+03  0.40828572302E+02  0.15735471453E+03  0.19801089117E+03  0.00000000000E+00 0. -1.
         22    1    3    3    0    0 -0.20920228221E+02  0.32536640065E+02  0.14134364305E+03  0.14654116939E+03  0.00000000000E+00 0. -1.
</event>
<event>
 7    1  0.6105960E-006  0.1757311E+03  0.7818608E-02  0.1305556E+00
          2   -1    0    0  502    0  0.00000000000E+00  0.00000000000E+00  0.11638287263E+04  0.11638287263E+04  0.00000000000E+00 0. -1.
          1   -1    0    0  501    0 -0.00000000000E+00 -0.00000000000E+00 -0.17960662238E+04  0.17960662238E+04  0.00000000000E+00 0. -1.
         25    2    1    2    0    0 -0.13903343806E+03 -0.11153971077E+03 -0.17474973099E+03  0.27916713075E+03  0.12500165772E+03 0.  0.
          2    1    1    2  501    0  0.33979986131E+02 -0.29449832549E+02 -0.15618296592E+04  0.15624768211E+04  0.00000000000E+00 0. -1.
          1    1    1    2  502    0  0.10505345193E+03  0.14098954332E+03  0.11043418927E+04  0.11182509982E+04  0.00000000000E+00 0. -1.
         22    1    3    3    0    0 -0.15126265406E+03 -0.11357693000E+03 -0.18385464159E+03  0.26378521334E+03  0.00000000000E+00 0.  1.
         22    1    3    3    0    0  0.12229216006E+02  0.20372192262E+01  0.91049105986E+01  0.15381917413E+02  0.00000000000E+00 0.  1.
</event>
<event>
 7    1  0.6105960E-006  0.1248259E+03  0.7818608E-02  0.1396788E+00
          2   -1    0    0  502    0  0.00000000000E+00  0.00000000000E+00  0.16767525443E+04  0.16767525443E+04  0.00000000000E+00 0. -1.
          1   -1    0    0  501    0 -0.00000000000E+00 -0.00000000000E+00 -0.76427850852E+03  0.76427850852E+03  0.00000000000E+00 0. -1.
         25    2    1    2    0    0  0.11086489930E+03 -0.57484659735E+02 -0.14404584503E+03  0.22796227351E+03  0.12498832214E+03 0.  0.
          2    1    1    2  501    0 -0.94904184733E+02  0.81793628968E+02 -0.57135692358E+03  0.58493224919E+03  0.00000000000E+00 0. -1.
          1    1    1    2  502    0 -0.15960714567E+02 -0.24308969233E+02  0.16278768044E+04  0.16281365301E+04  0.00000000000E+00 0. -1.
         22    1    3    3    0    0  0.12321282547E+03 -0.56562732048E+01 -0.10337615984E+03  0.16093484462E+03  0.00000000000E+00 0. -1.
         22    1    3    3    0    0 -0.12347926174E+02 -0.51828386530E+02 -0.40669685186E+02  0.67027428895E+02  0.00000000000E+00 0. -1.
</event>
<event>
 7    1  0.6105960E-006  0.8244174E+02  0.7818608E-02  0.1477200E+00
          2   -1    0    0  502    0  0.00000000000E+00  0.00000000000E+00  0.14562452616E+04  0.14562452616E+04  0.00000000000E+00 0. -1.
          1   -1    0    0  501    0 -0.00000000000E+00 -0.00000000000E+00 -0.87288922756E+03  0.87288922756E+03  0.00000000000E+00 0. -1.
         25    2    1    2    0    0 -0.66270049085E+02  0.62303317884E+02  0.36867993576E+02  0.15892889983E+03  0.12500289367E+03 0.  0.
          2    1    1    2  501    0  0.22827253294E+02  0.76307912568E+01 -0.81043246238E+03  0.81078979307E+03  0.00000000000E+00 0. -1.
          1    1    1    2  502    0  0.43442795790E+02 -0.69934109141E+02  0.13569205028E+04  0.13594157963E+04  0.00000000000E+00 0. -1.
         22    1    3    3    0    0  0.12754981665E+02  0.41330830137E+02  0.59993765577E+02  0.73960658361E+02  0.00000000000E+00 0.  1.
         22    1    3    3    0    0 -0.79025030749E+02  0.20972487747E+02 -0.23125772001E+02  0.84968241466E+02  0.00000000000E+00 0.  1.
</event>
<event>
 7    1  0.6105960E-006  0.3725156E+02  0.7818608E-02  0.1606973E+00
          2   -1    0    0  502    0  0.00000000000E+00  0.00000000000E+00  0.44518311480E+03  0.44518311480E+03  0.00000000000E+00 0. -1.
          1   -1    0    0  501    0 -0.00000000000E+00 -0.00000000000E+00 -0.99987156522E+02  0.99987156522E+02  0.00000000000E+00 0. -1.
         25    2    1    2    0    0 -0.19031817524E+02  0.15139137832E+02  0.28200766779E+03  0.30942677518E+03  0.12500080374E+03 0.  0.
          2    1    1    2  501    0  0.42368815609E+01  0.22511253735E+02 -0.81940615287E+02  0.85082149383E+02  0.00000000000E+00 0. -1.
          1    1    1    2  502    0  0.14794935963E+02 -0.37650391568E+02  0.14512890577E+03  0.15066134676E+03  0.00000000000E+00 0. -1.
         22    1    3    3    0    0 -0.41767475776E+02  0.38314109871E+02  0.26824039181E+03  0.27416309169E+03  0.00000000000E+00 0. -1.
         22    1    3    3    0    0  0.22735658252E+02 -0.23174972039E+02  0.13767275975E+02  0.35263683485E+02  0.00000000000E+00 0. -1.
</event>
<event>
 7    1  0.6105960E-006  0.2017527E+03  0.7818608E-02  0.1200216E+00
          2   -1    0    0  502    0  0.00000000000E+00  0.00000000000E+00  0.76542247025E+03  0.76542247025E+03  0.00000000000E+00 0. -1.
          1   -1    0    0  501    0 -0.00000000000E+00 -0.00000000000E+00 -0.17661896359E+04  0.17661896359E+04  0.00000000000E+00 0. -1.
         25    2    1    2    0    0 -0.90242590768E+02  0.20884699668E+03 -0.70429460942E+03  0.75061091957E+03  0.12500024998E+03 0.  0.
          2    1    1    2  501    0  0.11153548576E+03 -0.81636548181E+01 -0.10219124995E+04  0.10280136022E+04  0.00000000000E+00 0. -1.
          1    1    1    2  502    0 -0.21292894988E+02 -0.20068334186E+03  0.72543994318E+03  0.75298758439E+03  0.00000000000E+00 0. -1.
         22    1    3    3    0    0 -0.50467772119E+02  0.37521443520E+02 -0.34373586442E+03  0.34944126722E+03  0.00000000000E+00 0.  1.
         22    1    3    3    0    0 -0.39774818649E+02  0.17132555316E+03 -0.36055874501E+03  0.40116965235E+03  0.00000000000E+00 0.  1.
</event>
<event>
 7    1  0.6105960E-006  0.8669575E+02  0.7818608E-02  0.1451637E+00
          2   -1    0    0  502    0  0.00000000000E+00  0.00000000000E+00  0.18948157016E+04  0.18948157016E+04  0.00000000000E+00 0. -1.
          1   -1    0    0  501    0 -0.00000000000E+00 -0.00000000000E+00 -0.54017496644E+03  0.54017496644E+03  0.00000000000E+00 0. -1.
         25    2    1    2    0    0  0.55823407714E+02 -0.21848553533E+02  0.27476823012E+03  0.30775967321E+03  0.12499929613E+03 0.  0.
          2    1    1    2  501    0 -0.78694228769E+02  0.37166793508E+02 -0.51994419262E+03  0.52717749916E+03  0.00000000000E+00 0. -1.
          1    1    1    2  502    0  0.22870821055E+02 -0.15318239974E+02  0.15998166976E+04  0.16000534956E+04  0.00000000000E+00 0. -1.
         22    1    3    3    0    0  0.23898686150E+02 -0.36181190382E+01 -0.57476833881E+01  0.24844996466E+02  0.00000000000E+00 0. -1.
         22    1    3    3    0    0  0.31924721564E+02 -0.18230434495E+02  0.28051591350E+03  0.28291467675E+03  0.00000000000E+00 0. -1.
</event>
<event>
 7    1  0.6105960E-006  0.2811435E+03  0.7818608E-02  0.1226835E+00
          2   -1    0    0  502    0  0.00000000000E+00  0.00000000000E+00  0.92439375920E+03  0.92439375920E+03  0.00000000000E+00 0. -1.
          1   -1    0    0  501    0 -0.00000000000E+00 -0.00000000000E+00 -0.77903889499E+03  0.77903889499E+03  0.00000000000E+00 0. -1.
         25    2    1    2    0    0  0.69649090372E+00 -0.24841822834E+03  0.26256439157E+03  0.38246047606E+03  0.12499541894E+03 0.  0.
          2    1    1    2  501    0 -0.29866617516E+02 -0.52613810431E+02 -0.67966830882E+03  0.68235565353E+03  0.00000000000E+00 0. -1.
          1    1    1    2  502    0  0.29170126612E+02  0.30103203877E+03  0.56245878146E+03  0.63861652460E+03  0.00000000000E+00 0. -1.
         22    1    3    3    0    0 -0.39773561644E+02 -0.20847282212E+02  0.61206545674E+02  0.75913020061E+02  0.00000000000E+00 0.  1.
         22    1    3    3    0    0  0.40470052548E+02 -0.22757094613E+03  0.20135784590E+03  0.30654745600E+03  0.00000000000E+00 0.  1.
</event>
<event>
 7    1  0.6105960E-006  0.4212561E+02  0.7818608E-02  0.1520550E+00
          2   -1    0    0  502    0  0.00000000000E+00  0.00000000000E+00  0.30759319991E+04  0.30759319991E+04  0.00000000000E+00 0. -1.
          1   -1    0    0  501    0 -0.00000000000E+00 -0.00000000000E+00 -0.12200401966E+02  0.12200401966E+02  0.00000000000E+00 0. -1.
         25    2    1    2    0    0 -0.24411002855E+01 -0.73769192733E+02  0.13092066679E+04  0.13172296738E+04  0.12499624577E+03 0.  0.
          2    1    1    2  501    0 -0.62523334165E+01  0.34387915124E+02  0.30447742052E+02  0.46353914352E+02  0.00000000000E+00 0. -1.
          1    1    1    2  502    0  0.86934337020E+01  0.39381277610E+02  0.17240771871E+04  0.17245488129E+04  0.00000000000E+00 0. -1.
         22    1    3    3    0    0 -0.58631584106E+02 -0.50484396552E+02  0.92590909078E+03  0.92913614790E+03  0.00000000000E+00 0. -1.
         22    1    3    3    0    0  0.56190483821E+02 -0.23284796181E+02  0.38329757715E+03  0.38809352591E+03  0.00000000000E+00 0. -1.
</event>
<event>
 7    1  0.6105960E-006  0.1840382E+03  0.7818608E-02  0.1382335E+00
          2   -1    0    0  502    0  0.00000000000E+00  0.00000000000E+00  0.10622498435E+04  0.10622498435E+04  0.00000000000E+00 0. -1.
          1   -1    0    0  501    0 -0.00000000000E+00 -0.00000000000E+00 -0.41346289562E+03  0.41346289562E+03  0.00000000000E+00 0. -1.
         25    2    1    2    0    0  0.30869230505E+01 -0.19460267451E+03 -0.14566277097E+03  0.27335422924E+03  0.12500064711E+03 0.  0.
          2    1    1    2  501    0 -0.18856205839E+02  0.11630893845E+02 -0.19487611642E+03  0.19613142262E+03  0.00000000000E+00 0. -1.
          1    1    1    2  502    0  0.15769282788E+02  0.18297178066E+03  0.98932583531E+03  0.10062270873E+04  0.00000000000E+00 0. -1.
         22    1    3    3    0    0 -0.54604422790E+02 -0.13699822863E+03 -0.11184035884E+03  0.18509031175E+03  0.00000000000E+00 0.  1.
         22    1    3    3    0    0  0.57691345840E+02 -0.57604445875E+02 -0.33822412130E+02  0.88263917496E+02  0.00000000000E+00 0.  1.
</event>
<event>
 7    1  0.6270524E-006  0.8447606E+02  0.7818608E-02  0.1376917E+00
          2   -1    0    0  502    0  0.00000000000E+00  0.00000000000E+00  0.29312382788E+04  0.29312382788E+04  0.00000000000E+00 0. -1.
          1   -1    0    0  501    0 -0.00000000000E+00 -0.00000000000E+00 -0.44415122172E+03  0.44415122172E+03  0.00000000000E+00 0. -1.
         25    2    1    2    0    0 -0.29499854021E+02 -0.11464135627E+03 -0.20099485188E+03  0.26464375307E+03  0.12499801438E+03 0.  0.
          2    1    1    2  501    0 -0.20036973640E+02  0.46297752790E+02 -0.20769754396E+03  0.21373636095E+03  0.00000000000E+00 0. -1.
          1    1    1    2  502    0  0.49536827661E+02  0.68343603481E+02  0.28957794529E+04  0.28970093865E+04  0.00000000000E+00 0. -1.
         22    1    3    3    0    0  0.43030625625E+01  0.82904191445E+01  0.12724442663E+02  0.15784766013E+02  0.00000000000E+00 0. -1.
         22    1    3    3    0    0 -0.33802916584E+02 -0.12293177542E+03 -0.21371929455E+03  0.24885898705E+03  0.00000000000E+00 0. -1.
</event>
<event>
 7    1  0.6105960E-006  0.7560230E+02  0.7818608E-02  0.1448599E+00
          2   -1    0    0  502    0  0.00000000000E+00  0.00000000000E+00  0.15140218926E+04  0.15140218926E+04  0.00000000000E+00 0. -1.
          1   -1    0    0  501    0 -0.00000000000E+00 -0.00000000000E+00 -0.10315545315E+04  0.10315545315E+04  0.00000000000E+00 0. -1.
         25    2    1    2    0    0 -0.76123152572E+02  0.63337583810E+02  0.19313261748E+02  0.16063822025E+03  0.12500100737E+03 0.  0.
          2    1    1    2  501    0  0.32208797858E+02 -0.21488545943E+01 -0.95962462510E+03  0.96016740485E+03  0.00000000000E+00 0. -1.
          1    1    1    2  502    0  0.43914354714E+02 -0.61188729216E+02  0.14227787244E+04  0.14247707991E+04  0.00000000000E+00 0. -1.
         22    1    3    3    0    0 -0.35519751627E+02  0.51388733003E+02  0.70515871070E+02  0.94206914333E+02  0.00000000000E+00 0.  1.
         22    1    3    3    0    0 -0.40603400945E+02  0.11948850807E+02 -0.51202609322E+02  0.66431305913E+02  0.00000000000E+00 0.  1.
</event>
<event>
 7    1  0.6105960E-006  0.7398919E+02  0.7818608E-02  0.1421863E+00
          2   -1    0    0  502    0  0.00000000000E+00  0.00000000000E+00  0.11397593612E+04  0.11397593612E+04  0.00000000000E+00 0. -1.
          1   -1    0    0  501    0 -0.00000000000E+00 -0.00000000000E+00 -0.14956480072E+03  0.14956480072E+03  0.00000000000E+00 0. -1.
         25    2    1    2    0    0  0.16438093320E+02 -0.50655379973E+02  0.77011393918E+03  0.78200717062E+03  0.12499422844E+03 0.  0.
          2    1    1    2  501    0 -0.56691306210E+02  0.48099387471E+02 -0.13276989348E+03  0.15216865607E+03  0.00000000000E+00 0. -1.
          1    1    1    2  502    0  0.40253212890E+02  0.25559925029E+01  0.35285051478E+03  0.35514833524E+03  0.00000000000E+00 0. -1.
         22    1    3    3    0    0  0.13431312221E+02  0.75228955319E+01  0.63100225982E+03  0.63119002369E+03  0.00000000000E+00 0.  1.
         22    1    3    3    0    0  0.30067810994E+01 -0.58178275505E+02  0.13911167936E+03  0.15081714693E+03  0.00000000000E+00 0.  1.
</event>
<event>
 7    1  0.6105960E-006  0.7949349E+02  0.7818608E-02  0.1351449E+00
          2   -1    0    0  502    0  0.00000000000E+00  0.00000000000E+00  0.12240651759E+03  0.12240651759E+03  0.00000000000E+00 0. -1.
          1   -1    0    0  501    0 -0.00000000000E+00 -0.00000000000E+00 -0.35660906149E+03  0.35660906149E+03  0.00000000000E+00 0. -1.
         25    2    1    2    0    0  0.97008111957E+02  0.81516833578E+02 -0.42496738484E+02  0.18299347374E+03  0.12500028283E+03 0.  0.
          2    1    1    2  501    0 -0.30840541325E+02 -0.58707347887E+02 -0.21282420723E+03  0.22291665454E+03  0.00000000000E+00 0. -1.
          1    1    1    2  502    0 -0.66167570633E+02 -0.22809485691E+02  0.21118401821E+02  0.73105450798E+02  0.00000000000E+00 0. -1.
         22    1    3    3    0    0  0.77415699954E+02  0.11608473183E+02 -0.70334752206E+02  0.10523746774E+03  0.00000000000E+00 0.  1.
         22    1    3    3    0    0  0.19592412004E+02  0.69908360395E+02  0.27838013721E+02  0.77756006001E+02  0.00000000000E+00 0.  1.
</event>
<event>
 7    1  0.6105960E-006  0.5067458E+02  0.7818608E-02  0.1501273E+00
          2   -1    0    0  502    0  0.00000000000E+00  0.00000000000E+00  0.33919836678E+03  0.33919836678E+03  0.00000000000E+00 0. -1.
          1   -1    0    0  501    0 -0.00000000000E+00 -0.00000000000E+00 -0.16862162914E+04  0.16862162914E+04  0.00000000000E+00 0. -1.
         25    2    1    2    0    0 -0.44199467335E+01 -0.58302177296E+02 -0.11293288339E+02  0.13845933543E+03  0.12499907760E+03 0.  0.
          2    1    1    2  501    0  0.31703438541E+02  0.39551242661E+02 -0.16099455206E+04  0.16107433030E+04  0.00000000000E+00 0. -1.
          1    1    1    2  502    0 -0.27283491808E+02  0.18750934635E+02  0.27422088431E+03  0.27621201977E+03  0.00000000000E+00 0. -1.
         22    1    3    3    0    0 -0.17713364051E+02 -0.29673137253E+02 -0.66455898696E+02  0.74904237609E+02  0.00000000000E+00 0. -1.
         22    1    3    3    0    0  0.13293417317E+02 -0.28629040043E+02  0.55162610356E+02  0.63555097822E+02  0.00000000000E+00 0. -1.
</event>
<event>
 7    1  0.6105960E-006  0.2985575E+02  0.7818608E-02  0.1646462E+00
          2   -1    0    0  502    0  0.00000000000E+00  0.00000000000E+00  0.40666400777E+03  0.40666400777E+03  0.00000000000E+00 0. -1.
          1   -1    0    0  501    0 -0.00000000000E+00 -0.00000000000E+00 -0.53344314219E+02  0.53344314219E+02  0.00000000000E+00 0. -1.
         25    2    1    2    0    0 -0.86686639645E+01 -0.82733559923E+01  0.29618432859E+03  0.32170804816E+03  0.12500927003E+03 0.  0.
          2    1    1    2  501    0 -0.20597272843E+02 -0.95809208982E+01 -0.34022418412E+02  0.40909248935E+02  0.00000000000E+00 0. -1.
          1    1    1    2  502    0  0.29265936808E+02  0.17854276891E+02  0.91157783375E+02  0.97391024896E+02  0.00000000000E+00 0. -1.
         22    1    3    3    0    0 -0.32009511340E+02 -0.18503463749E+02  0.29379464404E+03  0.29611193804E+03  0.00000000000E+00 0. -1.
         22    1    3    3    0    0  0.23340847376E+02  0.10230107757E+02  0.23896845561E+01  0.25596110119E+02  0.00000000000E+00 0. -1.
</event>
<event>
 7    1  0.6105960E-006  0.4901530E+02  0.7818608E-02  0.1549368E+00
          2   -1    0    0  502    0  0.00000000000E+00  0.00000000000E+00  0.13640652965E+04  0.13640652965E+04  0.00000000000E+00 0. -1.
          1   -1    0    0  501    0 -0.00000000000E+00 -0.00000000000E+00 -0.17632030232E+04  0.17632030232E+04  0.00000000000E+00 0. -1.
         25    2    1    2    0    0 -0.32557924519E+02 -0.47918781752E+02  0.47246199221E+02  0.14564406013E+03  0.12499504317E+03 0.  0.
          2    1    1    2  501    0  0.42159102155E+02  0.24977670888E+02 -0.17135318147E+04  0.17142323512E+04  0.00000000000E+00 0. -1.
          1    1    1    2  502    0 -0.96011776360E+01  0.22941110865E+02  0.12671478888E+04  0.12673919084E+04  0.00000000000E+00 0. -1.
         22    1    3    3    0    0 -0.61822150356E+02 -0.57925280672E+02  0.67800514205E+02  0.10850910626E+03  0.00000000000E+00 0.  1.
         22    1    3    3    0    0  0.29264225836E+02  0.10006498920E+02 -0.20554314984E+02  0.37134953870E+02  0.00000000000E+00 0.  1.
</event>
<event>
 7    1  0.6105960E-006  0.1071192E+03  0.7818608E-02  0.1349722E+00
          2   -1    0    0  502    0  0.00000000000E+00  0.00000000000E+00  0.30680523860E+04  0.30680523860E+04  0.00000000000E+00 0. -1.
          1   -1    0    0  501    0 -0.00000000000E+00 -0.00000000000E+00 -0.15891826798E+04  0.15891826798E+04  0.00000000000E+00 0. -1.
         25    2    1    2    0    0  0.38037188306E+02  0.13008370188E+03 -0.73788098107E+02  0.19859422136E+03  0.12500553646E+03 0.  0.
          2    1    1    2  501    0  0.58796344482E+01 -0.10630175945E+03 -0.14508334179E+04  0.14547344228E+04  0.00000000000E+00 0. -1.
          1    1    1    2  502    0 -0.43916822754E+02 -0.23781942431E+02  0.30034912223E+04  0.30039064217E+04  0.00000000000E+00 0. -1.
         22    1    3    3    0    0  0.51595764117E+02  0.14973292353E+03 -0.73792847111E+02  0.17472107929E+03  0.00000000000E+00 0. -1.
         22    1    3    3    0    0 -0.13558575811E+02 -0.19649221654E+02  0.47490042417E-02  0.23873142067E+02  0.00000000000E+00 0. -1.
</event>
<event>
 7    1  0.6105960E-006  0.1457183E+03  0.7818608E-02  0.1333398E+00
          2   -1    0    0  502    0  0.00000000000E+00  0.00000000000E+00  0.15893107809E+04  0.15893107809E+04  0.00000000000E+00 0. -1.
          1   -1    0    0  501    0 -0.00000000000E+00 -0.00000000000E+00 -0.61705639072E+03  0.61705639072E+03  0.00000000000E+00 0. -1.
         25    2    1    2    0    0 -0.11693188204E+02 -0.16476232790E+03  0.10811452674E+04  0.11008129150E+04  0.12502251508E+03 0.  0.
          2    1    1    2  501    0  0.23042556514E+02  0.35443943936E+02 -0.59800942540E+03  0.59950188110E+03  0.00000000000E+00 0. -1.
          1    1    1    2  502    0 -0.11349368310E+02  0.12931838397E+03  0.48911854821E+03  0.50605237555E+03  0.00000000000E+00 0. -1.
         22    1    3    3    0    0 -0.37290154932E+02 -0.79864035172E+01  0.10260579438E+03  0.10946363476E+03  0.00000000000E+00 0. -1.
         22    1    3    3    0    0  0.25596966728E+02 -0.15677592439E+03  0.97853947303E+03  0.99134928025E+03  0.00000000000E+00 0. -1.
</event>
<event>
 7    1  0.6105960E-006  0.8945151E+02  0.7818608E-02  0.1321816E+00
          2   -1    0    0  502    0  0.00000000000E+00  0.00000000000E+00  0.42332261967E+03  0.42332261967E+03  0.00000000000E+00 0. -1.
          1   -1    0    0  501    0 -0.00000000000E+00 -0.00000000000E+00 -0.83709533472E+03  0.83709533472E+03  0.00000000000E+00 0. -1.
         25    2    1    2    0    0 -0.50644072386E+02  0.60688654566E+02 -0.42076515150E+03  0.44599957774E+03  0.12499750303E+03 0.  0.
          2    1    1    2  501    0  0.10470925558E+03 -0.68730937121E+01 -0.39323030494E+03  0.40699058999E+03  0.00000000000E+00 0. -1.
          1    1    1    2  502    0 -0.54065183195E+02 -0.53815560854E+02  0.40022274138E+03  0.40742778666E+03  0.00000000000E+00 0. -1.
         22    1    3    3    0    0 -0.54127328972E+01  0.11176970405E+02 -0.34336017527E+03  0.34358467996E+03  0.00000000000E+00 0.  1.
         22    1    3    3    0    0 -0.45231339489E+02  0.49511684161E+02 -0.77404976233E+02  0.10241489777E+03  0.00000000000E+00 0.  1.
</event>
<event>
 7    1  0.6105960E-006  0.9643031E+02  0.7818608E-02  0.1298964E+00
          2   -1    0    0  502    0  0.00000000000E+00  0.00000000000E+00  0.23791249499E+04  0.23791249499E+04  0.00000000000E+00 0. -1.
          1   -1    0    0  501    0 -0.00000000000E+00 -0.00000000000E+00 -0.14729808944E+03  0.14729808944E+03  0.00000000000E+00 0. -1.
         25    2    1    2    0    0 -0.87359285038E+02  0.11626906837E+03  0.98352070688E+03  0.10020430543E+04  0.12500864334E+03 0.  0.
          2    1    1    2  501    0  0.91461017254E+02 -0.29307292847E+02 -0.11977843436E+03  0.15352820076E+03  0.00000000000E+00 0. -1.
          1    1    1    2  502    0 -0.41017322156E+01 -0.86961775521E+02  0.13680845879E+04  0.13708517842E+04  0.00000000000E+00 0. -1.
         22    1    3    3    0    0 -0.14852672487E+02 -0.26443227967E+02  0.11740991212E+03  0.12126390085E+03  0.00000000000E+00 0.  1.
         22    1    3    3    0    0 -0.72506612551E+02  0.14271229634E+03  0.86611079476E+03  0.88077915347E+03  0.00000000000E+00 0.  1.
</event>
<event>
 7    1  0.6105960E-006  0.6483400E+02  0.7818608E-02  0.1508164E+00
          2   -1    0    0  502    0  0.00000000000E+00  0.00000000000E+00  0.95396959983E+03  0.95396959983E+03  0.00000000000E+00 0. -1.
          1   -1    0    0  501    0 -0.00000000000E+00 -0.00000000000E+00 -0.41995717482E+03  0.41995717482E+03  0.00000000000E+00 0. -1.
         25    2    1    2    0    0 -0.81978225076E+02  0.31650712350E+02  0.78388605141E+01  0.15299774633E+03  0.12499866267E+03 0.  0.
          2    1    1    2  501    0  0.61421742928E+02 -0.17981359372E+02 -0.34425347568E+03  0.35015198886E+03  0.00000000000E+00 0. -1.
          1    1    1    2  502    0  0.20556482148E+02 -0.13669352978E+02  0.87042704018E+03  0.87077703945E+03  0.00000000000E+00 0. -1.
         22    1    3    3    0    0  0.37703787019E+01 -0.28749763320E+02 -0.29784830358E+02  0.41568025764E+02  0.00000000000E+00 0. -1.
         22    1    3    3    0    0 -0.85748603778E+02  0.60400475670E+02  0.37623690872E+02  0.11142972057E+03  0.00000000000E+00 0. -1.
</event>
<event>
 7    1  0.6105960E-006  0.6822360E+02  0.7818608E-02  0.1413561E+00
          2   -1    0    0  502    0  0.00000000000E+00  0.00000000000E+00  0.48597054942E+03  0.48597054942E+03  0.00000000000E+00 0. -1.
          1   -1    0    0  501    0 -0.00000000000E+00 -0.00000000000E+00 -0.26103399155E+03  0.26103399155E+03  0.00000000000E+00 0. -1.
         25    2    1    2    0    0 -0.78389059923E+02 -0.68060058545E+02 -0.51498535883E+01  0.16256809391E+03  0.12499939152E+03 0.  0.
          2    1    1    2  501    0  0.15630135232E+02  0.43939480959E+02 -0.17126049570E+03  0.17749686336E+03  0.00000000000E+00 0. -1.
          1    1    1    2  502    0  0.62758924691E+02  0.24120577586E+02  0.40134690717E+03  0.40693958370E+03  0.00000000000E+00 0. -1.
         22    1    3    3    0    0 -0.20823648906E+02 -0.34084431267E+02 -0.62714351332E+02  0.74353632538E+02  0.00000000000E+00 0. -1.
         22    1    3    3    0    0 -0.57565411017E+02 -0.33975627277E+02  0.57564497744E+02  0.88214461371E+02  0.00000000000E+00 0. -1.
</event>
<event>
 7    1  0.6105960E-006  0.1198366E+03  0.7818608E-02  0.1332166E+00
          2   -1    0    0  502    0  0.00000000000E+00  0.00000000000E+00  0.34759179423E+03  0.34759179423E+03  0.00000000000E+00 0. -1.
          1   -1    0    0  501    0 -0.00000000000E+00 -0.00000000000E+00 -0.11624642684E+03  0.11624642684E+03  0.00000000000E+00 0. -1.
         25    2    1    2    0    0 -0.69447538747E+02  0.71293304192E+02  0.40197472145E+02  0.16476301542E+03  0.12500127449E+03 0.  0.
          2    1    1    2  501    0  0.12135503945E+03 -0.73712258502E+02  0.53135799976E+02  0.15160460380E+03  0.00000000000E+00 0. -1.
          1    1    1    2  502    0 -0.51907500701E+02  0.24189543107E+01  0.13801209527E+03  0.14747060185E+03  0.00000000000E+00 0. -1.
         22    1    3    3    0    0 -0.53676450950E+02  0.51842036251E+02  0.85201596844E+02  0.11326107104E+03  0.00000000000E+00 0.  1.
         22    1    3    3    0    0 -0.15771087798E+02  0.19451267941E+02 -0.45004124699E+02  0.51501944378E+02  0.00000000000E+00 0.  1.
</event>
<event>
 7    1  0.6105960E-006  0.1325112E+03  0.7818608E-02  0.1270692E+00
          2   -1    0    0  502    0  0.00000000000E+00  0.00000000000E+00  0.23974938532E+04  0.23974938532E+04  0.00000000000E+00 0. -1.
          1   -1    0    0  501    0 -0.00000000000E+00 -0.00000000000E+00 -0.38336333821E+02  0.38336333821E+02  0.00000000000E+00 0. -1.
         25    2    1    2    0    0  0.29115744499E+02 -0.92122779133E+02  0.34891206092E+03  0.38301189994E+03  0.12499662484E+03 0.  0.
          2    1    1    2  501    0 -0.17739490227E+01  0.17021615350E+03  0.33722539945E+03  0.37775343260E+03  0.00000000000E+00 0. -1.
          1    1    1    2  502    0 -0.27341795477E+02 -0.78093374364E+02  0.16730200590E+04  0.16750648545E+04  0.00000000000E+00 0. -1.
         22    1    3    3    0    0 -0.18647839386E+01 -0.87737328967E+02  0.33902303284E+03  0.35019699186E+03  0.00000000000E+00 0. -1.
         22    1    3    3    0    0  0.30980528438E+02 -0.43854501662E+01  0.98890280833E+01  0.32814908074E+02  0.00000000000E+00 0. -1.
</event>
<event>
 7    1  0.6105960E-006  0.1172741E+03  0.7818608E-02  0.1256555E+00
          2   -1    0    0  502    0  0.00000000000E+00  0.00000000000E+00  0.16167497619E+04  0.16167497619E+04  0.00000000000E+00 0. -1.
          1   -1    0    0  501    0 -0.00000000000E+00 -0.00000000000E+00 -0.52532740814E+03  0.52532740814E+03  0.00000000000E+00 0. -1.
         25    2    1    2    0    0 -0.93602780829E+02  0.19833451133E+03  0.19030693188E+03  0.31613122213E+03  0.12499664925E+03 0.  0.
          2    1    1    2  501    0  0.63333030080E+02 -0.95351220166E+02 -0.45317503895E+03  0.46740832665E+03  0.00000000000E+00 0. -1.
          1    1    1    2  502    0  0.30269750748E+02 -0.10298329116E+03  0.13542904608E+04  0.13585376212E+04  0.00000000000E+00 0. -1.
         22    1    3    3    0    0 -0.10436344438E+03  0.19715178775E+03  0.13709927123E+03  0.26183347018E+03  0.00000000000E+00 0. -1.
         22    1    3    3    0    0  0.10760663552E+02  0.11827235747E+01  0.53207660645E+02  0.54297751946E+02  0.00000000000E+00 0. -1.
</event>
<event>
 7    1  0.6105960E-006  0.8295739E+02  0.7818608E-02  0.1382364E+00
          2   -1    0    0  502    0  0.00000000000E+00  0.00000000000E+00  0.11827787631E+04  0.11827787631E+04  0.00000000000E+00 0. -1.
          1   -1    0    0  501    0 -0.00000000000E+00 -0.00000000000E+00 -0.74047006524E+03  0.74047006524E+03  0.00000000000E+00 0. -1.
         25    2    1    2    0    0  0.36861470276E+02  0.94575713686E+02  0.23965763739E+02  0.16279530122E+03  0.12499847463E+03 0.  0.
          2    1    1    2  501    0 -0.63403352512E+02 -0.53222497635E+02 -0.66794484860E+03  0.67305493099E+03  0.00000000000E+00 0. -1.
          1    1    1    2  502    0  0.26541882237E+02 -0.41353216051E+02  0.10862877827E+04  0.10873985961E+04  0.00000000000E+00 0. -1.
         22    1    3    3    0    0 -0.52359858616E+01  0.94196539510E+02 -0.25609910250E+02  0.97756181936E+02  0.00000000000E+00 0. -1.
         22    1    3    3    0    0  0.42097456137E+02  0.37917417584E+00  0.49575673989E+02  0.65039119288E+02  0.00000000000E+00 0. -1.
</event>
<event>
 7    1  0.6105960E-006  0.6771785E+02  0.7818608E-02  0.1393458E+00
          2   -1    0    0  502    0  0.00000000000E+00  0.00000000000E+00  0.50239330229E+03  0.50239330229E+03  0.00000000000E+00 0. -1.
          1   -1    0    0  501    0 -0.00000000000E+00 -0.00000000000E+00 -0.47938513321E+03  0.47938513321E+03  0.00000000000E+00 0. -1.
         25    2    1    2    0    0  0.43405784825E+02  0.10167525459E+03 -0.20214818080E+03  0.26213829264E+03  0.12502270959E+03 0.  0.
          2    1    1    2  501    0 -0.41815584385E+02 -0.46650869975E+02 -0.24162982637E+03  0.24961934973E+03  0.00000000000E+00 0. -1.
          1    1    1    2  502    0 -0.15902004405E+01 -0.55024384616E+02  0.46678617626E+03  0.47002079314E+03  0.00000000000E+00 0. -1.
         22    1    3    3    0    0  0.26341310824E+02  0.12104006373E+03 -0.10743783217E+03  0.16397392923E+03  0.00000000000E+00 0.  1.
         22    1    3    3    0    0  0.17064474002E+02 -0.19364809143E+02 -0.94710348631E+02  0.98164363411E+02  0.00000000000E+00 0.  1.
</event>
<event>
 7    1  0.6105960E-006  0.7308608E+02  0.7818608E-02  0.1377927E+00
          2   -1    0    0  502    0  0.00000000000E+00  0.00000000000E+00  0.21103967937E+04  0.21103967937E+04  0.00000000000E+00 0. -1.
          1   -1    0    0  501    0 -0.00000000000E+00 -0.00000000000E+00 -0.31013443942E+03  0.31013443942E+03  0.00000000000E+00 0. -1.
         25    2    1    2    0    0  0.89885508129E+02 -0.63135351275E+02  0.82242850081E+02  0.18560433810E+03  0.12497842525E+03 0.  0.
          2    1    1    2  501    0 -0.32075814393E+02  0.64658823881E+02 -0.25298209749E+03  0.26307710472E+03  0.00000000000E+00 0. -1.
          1    1    1    2  502    0 -0.57809693736E+02 -0.15234726056E+01  0.19710016017E+04  0.19718497903E+04  0.00000000000E+00 0. -1.
         22    1    3    3    0    0  0.86501966398E+01 -0.74297905780E+02  0.84233067116E+01  0.75272550117E+02  0.00000000000E+00 0.  1.
         22    1    3    3    0    0  0.81235311489E+02  0.11162554505E+02  0.73819543370E+02  0.11033178798E+03  0.00000000000E+00 0.  1.
</event>
<event>
 7    1  0.6105960E-006  0.5944905E+02  0.7818608E-02  0.1476928E+00
          2   -1    0    0  502    0  0.00000000000E+00  0.00000000000E+00  0.51280690037E+03  0.51280690037E+03  0.00000000000E+00 0. -1.
          1   -1    0    0  501    0 -0.00000000000E+00 -0.00000000000E+00 -0.12266087658E+04  0.12266087658E+04  0.00000000000E+00 0. -1.
         25    2    1    2    0    0  0.46239581200E+02 -0.13460160412E+02 -0.88854420410E+02  0.16074738217E+03  0.12500135223E+03 0.  0.
          2    1    1    2  501    0 -0.80305418555E+01 -0.32463818139E+02 -0.10996816100E+04  0.11001899984E+04  0.00000000000E+00 0. -1.
          1    1    1    2  502    0 -0.38209039344E+02  0.45923978551E+02  0.47473416495E+03  0.47847828568E+03  0.00000000000E+00 0. -1.
         22    1    3    3    0    0 -0.26405344856E+02  0.33361861413E+02 -0.98950686473E+01  0.43682587119E+02  0.00000000000E+00 0.  1.
         22    1    3    3    0    0  0.72644926056E+02 -0.46822021825E+02 -0.78959351762E+02  0.11706479505E+03  0.00000000000E+00 0.  1.
</event>
<event>
 7    1  0.6105960E-006  0.6007566E+02  0.7818608E-02  0.1547920E+00
          2   -1    0    0  502    0  0.00000000000E+00  0.00000000000E+00  0.93175762952E+03  0.93175762952E+03  0.00000000000E+00 0. -1.
          1   -1    0    0  501    0 -0.00000000000E+00 -0.00000000000E+00 -0.79948246204E+02  0.79948246204E+02  0.00000000000E+00 0. -1.
         25    2    1    2    0    0  0.48214914668E+02  0.80320393035E+00 -0.51961680732E+00  0.13398240772E+03  0.12500276974E+03 0.  0.
          2    1    1    2  501    0  0.95428224563E+01 -0.18121363663E+02 -0.26229979614E+01  0.20647745634E+02  0.00000000000E+00 0. -1.
          1    1    1    2  502    0 -0.57757737124E+02  0.17318159733E+02  0.85495199809E+03  0.85707572238E+03  0.00000000000E+00 0. -1.
         22    1    3    3    0    0 -0.82633824546E+01  0.87043967724E+01  0.53861075655E+02  0.55182111988E+02  0.00000000000E+00 0.  1.
         22    1    3    3    0    0  0.56478297123E+02 -0.79011928421E+01 -0.54380692462E+02  0.78800295728E+02  0.00000000000E+00 0.  1.
</event>
<event>
 7    1  0.6105960E-006  0.7735346E+02  0.7818608E-02  0.1360083E+00
          2   -1    0    0  502    0  0.00000000000E+00  0.00000000000E+00  0.10566067569E+04  0.10566067569E+04  0.00000000000E+00 0. -1.
          1   -1    0    0  501    0 -0.00000000000E+00 -0.00000000000E+00 -0.28358443405E+03  0.28358443405E+03  0.00000000000E+00 0. -1.
         25    2    1    2    0    0  0.88321525733E+02 -0.85711824926E+02  0.33106988646E+03  0.37466922518E+03  0.12499019856E+03 0.  0.
          2    1    1    2  501    0 -0.26447099497E+02  0.72113815725E+02 -0.25468210328E+03  0.26601282905E+03  0.00000000000E+00 0. -1.
          1    1    1    2  502    0 -0.61874426236E+02  0.13598009201E+02  0.69663453971E+03  0.69950913674E+03  0.00000000000E+00 0. -1.
         22    1    3    3    0    0  0.15733362629E+02 -0.55855135439E+01 -0.81915867426E+01  0.18596740427E+02  0.00000000000E+00 0.  1.
         22    1    3    3    0    0  0.72588163104E+02 -0.80126311382E+02  0.33926147321E+03  0.35607248476E+03  0.00000000000E+00 0.  1.
</event>
<event>
 7    1  0.6105960E-006  0.1135635E+03  0.7818608E-02  0.1389610E+00
          2   -1    0    0  502    0  0.00000000000E+00  0.00000000000E+00  0.73844560598E+03  0.73844560598E+03  0.00000000000E+00 0. -1.
          1   -1    0    0  501    0 -0.00000000000E+00 -0.00000000000E+00 -0.27081355493E+03  0.27081355493E+03  0.00000000000E+00 0. -1.
         25    2    1    2    0    0  0.66295639069E+02  0.49893343656E+02  0.41476505188E+03  0.44106329382E+03  0.12498929311E+03 0.  0.
          2    1    1    2  501    0 -0.99450191794E+02 -0.56735437421E+02 -0.24393525018E+03  0.26946921306E+03  0.00000000000E+00 0. -1.
          1    1    1    2  502    0  0.33154552725E+02  0.68420937659E+01  0.29680224934E+03  0.29872665403E+03  0.00000000000E+00 0. -1.
         22    1    3    3    0    0  0.10164880335E+03  0.22684186987E+02  0.31519144957E+03  0.33195286027E+03  0.00000000000E+00 0. -1.
         22    1    3    3    0    0 -0.35353164281E+02  0.27209156668E+02  0.99573602310E+02  0.10911043354E+03  0.00000000000E+00 0. -1.
</event>
<event>
 7    1  0.6105960E-006  0.9142442E+02  0.7818608E-02  0.1312256E+00
          2   -1    0    0  502    0  0.00000000000E+00  0.00000000000E+00  0.17503209884E+04  0.17503209884E+04  0.00000000000E+00 0. -1.
          1   -1    0    0  501    0 -0.00000000000E+00 -0.00000000000E+00 -0.85363041359E+02  0.85363041359E+02  0.00000000000E+00 0. -1.
         25    2    1    2    0    0 -0.71485116962E+02 -0.83424426260E+02  0.63646242671E+03  0.65786177887E+03  0.12501177001E+03 0.  0.
          2    1    1    2  501    0 -0.94290342412E+01  0.91579350841E+02 -0.44147110482E+02  0.10210118291E+03  0.00000000000E+00 0. -1.
          1    1    1    2  502    0  0.80914151203E+02 -0.81549245811E+01  0.10726426308E+04  0.10757210680E+04  0.00000000000E+00 0. -1.
         22    1    3    3    0    0 -0.46311856880E+02 -0.99587199923E+02  0.28984297860E+03  0.30995378804E+03  0.00000000000E+00 0.  1.
         22    1    3    3    0    0 -0.25173260081E+02  0.16162773663E+02  0.34661944811E+03  0.34790799083E+03  0.00000000000E+00 0.  1.
</event>
<event>
 7    1  0.6105960E-006  0.8704081E+02  0.7818608E-02  0.1360296E+00
          2   -1    0    0  502    0  0.00000000000E+00  0.00000000000E+00  0.58523370002E+03  0.58523370002E+03  0.00000000000E+00 0. -1.
          1   -1    0    0  501    0 -0.00000000000E+00 -0.00000000000E+00 -0.12988022929E+04  0.12988022929E+04  0.00000000000E+00 0. -1.
         25    2    1    2    0    0 -0.43968145427E+02  0.51173851877E+02 -0.34903066140E+03  0.37683225535E+03  0.12501273994E+03 0.  0.
          2    1    1    2  501    0  0.54763928599E+01 -0.92122545944E+02 -0.93220485226E+03  0.93676167777E+03  0.00000000000E+00 0. -1.
          1    1    1    2  502    0  0.38491752567E+02  0.40948694067E+02  0.56766692081E+03  0.57044205976E+03  0.00000000000E+00 0. -1.
         22    1    3    3    0    0 -0.43537306776E+02  0.53454212959E+02 -0.35952967110E+03  0.36607981966E+03  0.00000000000E+00 0.  1.
         22    1    3    3    0    0 -0.43083865043E+00 -0.22803610820E+01  0.10499009698E+02  0.10752435689E+02  0.00000000000E+00 0.  1.
</event>
<event>
 7    1  0.6105960E-006  0.8046626E+02  0.7818608E-02  0.1449120E+00
          2   -1    0    0  502    0  0.00000000000E+00  0.00000000000E+00  0.37591943575E+03  0.37591943575E+03  0.00000000000E+00 0. -1.
          1   -1    0    0  501    0 -0.00000000000E+00 -0.00000000000E+00 -0.29147807871E+03  0.29147807871E+03  0.00000000000E+00 0. -1.
         25    2    1    2    0    0  0.38558039969E+02 -0.42640638320E+02  0.88867857805E+02  0.16379071012E+03  0.12499981635E+03 0.  0.
          2    1    1    2  501    0  0.28682860655E+02 -0.94920157559E+01 -0.24581377366E+03  0.24766351403E+03  0.00000000000E+00 0. -1.
          1    1    1    2  502    0 -0.67240900625E+02  0.52132654076E+02  0.24138727290E+03  0.25594329031E+03  0.00000000000E+00 0. -1.
         22    1    3    3    0    0 -0.33119092717E+02 -0.16614437987E+02 -0.10521873126E+02  0.38517835689E+02  0.00000000000E+00 0.  1.
         22    1    3    3    0    0  0.71677132687E+02 -0.26026200333E+02  0.99389730931E+02  0.12527287443E+03  0.00000000000E+00 0.  1.
</event>
<event>
 7    1  0.6105960E-006  0.5428608E+02  0.7818608E-02  0.1467231E+00
          2   -1    0    0  502    0  0.00000000000E+00  0.00000000000E+00  0.45684976242E+02  0.45684976242E+02  0.00000000000E+00 0. -1.
          1   -1    0    0  501    0 -0.00000000000E+00 -0.00000000000E+00 -0.17811397855E+04  0.17811397855E+04  0.00000000000E+00 0. -1.
         25    2    1    2    0    0 -0.25801107408E+02 -0.28722384447E+02 -0.19190726331E+03  0.23225727618E+03  0.12499748843E+03 0.  0.
          2    1    1    2  501    0  0.54887460987E+02  0.23693725914E+01 -0.15531818409E+04  0.15541531708E+04  0.00000000000E+00 0. -1.
          1    1    1    2  502    0 -0.29086353579E+02  0.26353011855E+02  0.96342949851E+01  0.40414314769E+02  0.00000000000E+00 0. -1.
         22    1    3    3    0    0  0.22546202426E+02  0.36107691127E+02 -0.32670193660E+02  0.53660396534E+02  0.00000000000E+00 0.  1.
         22    1    3    3    0    0 -0.48347309834E+02 -0.64830075574E+02 -0.15923706965E+03  0.17859687964E+03  0.00000000000E+00 0.  1.
</event>
<event>
 7    1  0.6105960E-006  0.2098411E+03  0.7818608E-02  0.1271491E+00
          2   -1    0    0  502    0  0.00000000000E+00  0.00000000000E+00  0.17648007156E+04  0.17648007156E+04  0.00000000000E+00 0. -1.
          1   -1    0    0  501    0 -0.00000000000E+00 -0.00000000000E+00 -0.57405097005E+02  0.57405097005E+02  0.00000000000E+00 0. -1.
         25    2    1    2    0    0  0.21671845294E+03  0.14230070284E+02  0.49163348728E+03  0.55181264756E+03  0.12499731776E+03 0.  0.
          2    1    1    2  501    0 -0.19723617723E+03 -0.62279050705E+02  0.37684631359E+03  0.42987664955E+03  0.00000000000E+00 0. -1.
          1    1    1    2  502    0 -0.19482275704E+02  0.48048980421E+02  0.83891581772E+03  0.84051651549E+03  0.00000000000E+00 0. -1.
         22    1    3    3    0    0  0.24043150320E+02 -0.26395838390E+02  0.17756931338E+03  0.18112336794E+03  0.00000000000E+00 0. -1.
         22    1    3    3    0    0  0.19267530262E+03  0.40625908674E+02  0.31406417390E+03  0.37068927962E+03  0.00000000000E+00 0. -1.
</event>
<event>
 7    1  0.6105960E-006  0.7043676E+02  0.7818608E-02  0.1365724E+00
          2   -1    0    0  502    0  0.00000000000E+00  0.00000000000E+00  0.17871746200E+03  0.17871746200E+03  0.00000000000E+00 0. -1.
          1   -1    0    0  501    0 -0.00000000000E+00 -0.00000000000E+00 -0.17119639704E+04  0.17119639704E+04  0.00000000000E+00 0. -1.
         25    2    1    2    0    0 -0.97042664531E+02  0.26495862648E+02 -0.39540039101E+02  0.16525042940E+03  0.12499992099E+03 0.  0.
          2    1    1    2  501    0  0.58460021289E+02  0.31411606246E+02 -0.15983701798E+04  0.15997473222E+04  0.00000000000E+00 0. -1.
          1    1    1    2  502    0  0.38582643243E+02 -0.57907468895E+02  0.10466371054E+03  0.12568368079E+03  0.00000000000E+00 0. -1.
         22    1    3    3    0    0 -0.64886092905E+02  0.13562849069E+02 -0.85184610119E+02  0.10793782344E+03  0.00000000000E+00 0.  1.
         22    1    3    3    0    0 -0.32156571626E+02  0.12933013579E+02  0.45644571018E+02  0.57312605964E+02  0.00000000000E+00 0.  1.
</event>
<event>
 7    1  0.6105960E-006  0.5090494E+02  0.7818608E-02  0.1497693E+00
          2   -1    0    0  502    0  0.00000000000E+00  0.00000000000E+00  0.11928902341E+03  0.11928902341E+03  0.00000000000E+00 0. -1.
          1   -1    0    0  501    0 -0.00000000000E+00 -0.00000000000E+00 -0.19387250008E+03  0.19387250008E+03  0.00000000000E+00 0. -1.
         25    2    1    2    0    0  0.38007551497E+02  0.23479834708E+02 -0.11796518364E+03  0.17758749184E+03  0.12500262436E+03 0.  0.
          2    1    1    2  501    0 -0.21860436296E+02  0.25748940929E+02 -0.30383962150E+02  0.45432056853E+02  0.00000000000E+00 0. -1.
          1    1    1    2  502    0 -0.16147115201E+02 -0.49228775636E+02  0.73765669114E+02  0.90141974794E+02  0.00000000000E+00 0. -1.
         22    1    3    3    0    0  0.32848063982E+02  0.31733076871E+02  0.12028482554E+02  0.47229946725E+02  0.00000000000E+00 0.  1.
         22    1    3    3    0    0  0.51594875150E+01 -0.82532421637E+01 -0.12999366619E+03  0.13035754511E+03  0.00000000000E+00 0.  1.
</event>
<event>
 7    1  0.6105960E-006  0.2853727E+03  0.7818608E-02  0.1249911E+00
          2   -1    0    0  502    0  0.00000000000E+00  0.00000000000E+00  0.15163343336E+04  0.15163343336E+04  0.00000000000E+00 0. -1.
          1   -1    0    0  501    0 -0.00000000000E+00 -0.00000000000E+00 -0.61812265504E+03  0.61812265504E+03  0.00000000000E+00 0. -1.
         25    2    1    2    0    0 -0.24812476011E+03 -0.20677953534E+03  0.27103491720E+03  0.43978270987E+03  0.12500093097E+03 0.  0.
          2    1    1    2  501    0  0.43115270158E+02  0.19012938741E+02 -0.51601682768E+03  0.51816385903E+03  0.00000000000E+00 0. -1.
          1    1    1    2  502    0  0.20500948995E+03  0.18776659660E+03  0.11431935890E+04  0.11765104198E+04  0.00000000000E+00 0. -1.
         22    1    3    3    0    0  0.39284350083E+00 -0.14584805848E+02  0.58956823166E+02  0.60735310039E+02  0.00000000000E+00 0. -1.
         22    1    3    3    0    0 -0.24851760361E+03 -0.19219472949E+03  0.21207809403E+03  0.37904739983E+03  0.00000000000E+00 0. -1.
</event>
<event>
 7    1  0.6105960E-006  0.1075592E+03  0.7818608E-02  0.1386961E+00
          2   -1    0    0  502    0  0.00000000000E+00  0.00000000000E+00  0.22537706650E+04  0.22537706650E+04  0.00000000000E+00 0. -1.
          1   -1    0    0  501    0 -0.00000000000E+00 -0.00000000000E+00 -0.10444991048E+04  0.10444991048E+04  0.00000000000E+00 0. -1.
         25    2    1    2    0    0  0.68984899542E+02  0.19178763901E+02  0.23191849135E+03  0.27301619732E+03  0.12499966408E+03 0.  0.
          2    1    1    2  501    0 -0.10503348739E+03 -0.24988803333E+02 -0.10209370453E+04  0.10266298867E+04  0.00000000000E+00 0. -1.
          1    1    1    2  502    0  0.36048587849E+02  0.58100394320E+01  0.19982901141E+04  0.19986236858E+04  0.00000000000E+00 0. -1.
         22    1    3    3    0    0  0.71505133175E+02  0.15027463588E+02  0.24678607204E+03  0.25737555068E+03  0.00000000000E+00 0.  1.
         22    1    3    3    0    0 -0.25202336327E+01  0.41513003134E+01 -0.14867580691E+02  0.15640646645E+02  0.00000000000E+00 0.  1.
</event>
<event>
 7    1  0.6105960E-006  0.3048259E+02  0.7818608E-02  0.1610784E+00
          2   -1    0    0  502    0  0.00000000000E+00  0.00000000000E+00  0.16121728986E+02  0.16121728986E+02  0.00000000000E+00 0. -1.
          1   -1    0    0  501    0 -0.00000000000E+00 -0.00000000000E+00 -0.67099114330E+03  0.67099114330E+03  0.00000000000E+00 0. -1.
         25    2    1    2    0    0 -0.75328692187E+01 -0.39265831190E+02 -0.42849420012E+03  0.44814120447E+03  0.12499883996E+03 0.  0.
          2    1    1    2  501    0 -0.16274750263E+02  0.25771927182E+02 -0.19487598259E+03  0.19724529986E+03  0.00000000000E+00 0. -1.
          1    1    1    2  502    0  0.23807619482E+02  0.13493904008E+02 -0.31499231604E+02  0.41726367952E+02  0.00000000000E+00 0. -1.
         22    1    3    3    0    0 -0.54539324354E+02 -0.47244009212E+02 -0.16098491742E+03  0.17641620658E+03  0.00000000000E+00 0. -1.
         22    1    3    3    0    0  0.47006455136E+02  0.79781780219E+01 -0.26750928270E+03  0.27172499789E+03  0.00000000000E+00 0. -1.
</event>
<event>
 7    1  0.6105960E-006  0.1075543E+03  0.7818608E-02  0.1294027E+00
          2   -1    0    0  502    0  0.00000000000E+00  0.00000000000E+00  0.20444081684E+04  0.20444081684E+04  0.00000000000E+00 0. -1.
          1   -1    0    0  501    0 -0.00000000000E+00 -0.00000000000E+00 -0.15598457494E+03  0.15598457494E+03  0.00000000000E+00 0. -1.
         25    2    1    2    0    0  0.34614473559E+02 -0.27065178584E+02  0.22028861537E+03  0.25706512298E+03  0.12499887088E+03 0.  0.
          2    1    1    2  501    0 -0.11431711741E+03  0.90675235517E+01 -0.11260222226E+03  0.16071678125E+03  0.00000000000E+00 0. -1.
          1    1    1    2  502    0  0.79702643854E+02  0.17997655033E+02  0.17807372003E+04  0.17826108391E+04  0.00000000000E+00 0. -1.
         22    1    3    3    0    0  0.61224813277E+02  0.30303071704E+02  0.99030208676E+02  0.12030684164E+03  0.00000000000E+00 0.  1.
         22    1    3    3    0    0 -0.26610339718E+02 -0.57368250288E+02  0.12125840669E+03  0.13675828134E+03  0.00000000000E+00 0.  1.
</event>
<event>
 7    1  0.6105960E-006  0.5424896E+02  0.7818608E-02  0.1438367E+00
          2   -1    0    0  502    0  0.00000000000E+00  0.00000000000E+00  0.44698031037E+03  0.44698031037E+03  0.00000000000E+00 0. -1.
          1   -1    0    0  501    0 -0.00000000000E+00 -0.00000000000E+00 -0.51821325353E+03  0.51821325353E+03  0.00000000000E+00 0. -1.
         25    2    1    2    0    0 -0.89909317151E+02  0.63141004813E+01  0.13677481446E+03  0.20604984285E+03  0.12500253875E+03 0.  0.
          2    1    1    2  501    0  0.44471660034E+02  0.19459529064E+02 -0.47986450569E+03  0.48231353458E+03  0.00000000000E+00 0. -1.
          1    1    1    2  502    0  0.45437657116E+02 -0.25773629545E+02  0.27185674808E+03  0.27683018647E+03  0.00000000000E+00 0. -1.
         22    1    3    3    0    0  0.12764710962E+02 -0.39119690698E+02  0.28381229012E+02  0.49987820582E+02  0.00000000000E+00 0. -1.
         22    1    3    3    0    0 -0.10267402811E+03  0.45433791180E+02  0.10839358544E+03  0.15606202227E+03  0.00000000000E+00 0. -1.
</event>
<event>
 7    1  0.6105960E-006  0.6763695E+02  0.7818608E-02  0.1393929E+00
          2   -1    0    0  502    0  0.00000000000E+00  0.00000000000E+00  0.35547275473E+03  0.35547275473E+03  0.00000000000E+00 0. -1.
          1   -1    0    0  501    0 -0.00000000000E+00 -0.00000000000E+00 -0.69648289121E+03  0.69648289121E+03  0.00000000000E+00 0. -1.
         25    2    1    2    0    0  0.66286470800E+02 -0.13822663083E+02 -0.48537834891E+03  0.50576858512E+03  0.12499903152E+03 0.  0.
          2    1    1    2  501    0 -0.31971973021E+02 -0.44636984679E+02 -0.19373004592E+03  0.20136036888E+03  0.00000000000E+00 0. -1.
          1    1    1    2  502    0 -0.34314497779E+02  0.58459647761E+02  0.33809825836E+03  0.34482669195E+03  0.00000000000E+00 0. -1.
         22    1    3    3    0    0  0.73842277741E+02  0.35484252700E+02 -0.20110866391E+03  0.21715549468E+03  0.00000000000E+00 0.  1.
         22    1    3    3    0    0 -0.75558069410E+01 -0.49306915783E+02 -0.28426968500E+03  0.28861309044E+03  0.00000000000E+00 0.  1.
</event>
<event>
 7    1  0.6105960E-006  0.1201509E+03  0.7818608E-02  0.1337981E+00
          2   -1    0    0  502    0  0.00000000000E+00  0.00000000000E+00  0.10238170186E+03  0.10238170186E+03  0.00000000000E+00 0. -1.
          1   -1    0    0  501    0 -0.00000000000E+00 -0.00000000000E+00 -0.77245828136E+03  0.77245828136E+03  0.00000000000E+00 0. -1.
         25    2    1    2    0    0  0.25549514084E+02  0.72847516350E+02 -0.43368228373E+03  0.45789124926E+03  0.12499813844E+03 0.  0.
          2    1    1    2  501    0 -0.13979582428E+01  0.49243353005E+02 -0.28058698905E+03  0.28487878216E+03  0.00000000000E+00 0. -1.
          1    1    1    2  502    0 -0.24151555842E+02 -0.12209086936E+03  0.44192693285E+02  0.13206995180E+03  0.00000000000E+00 0. -1.
         22    1    3    3    0    0  0.92444840914E+01  0.39364865988E+02 -0.41361557423E+03  0.41558741127E+03  0.00000000000E+00 0.  1.
         22    1    3    3    0    0  0.16305029993E+02  0.33482650362E+02 -0.20066709508E+02  0.42303837991E+02  0.00000000000E+00 0.  1.
</event>
<event>
 7    1  0.6105960E-006  0.3694849E+02  0.7818608E-02  0.1626518E+00
          2   -1    0    0  502    0  0.00000000000E+00  0.00000000000E+00  0.20839837784E+04  0.20839837784E+04  0.00000000000E+00 0. -1.
          1   -1    0    0  501    0 -0.00000000000E+00 -0.00000000000E+00 -0.13899986064E+03  0.13899986064E+03  0.00000000000E+00 0. -1.
         25    2    1    2    0    0  0.74572781278E+01  0.55209056549E+02  0.70118595732E+03  0.71441624798E+03  0.12500071084E+03 0.  0.
          2    1    1    2  501    0  0.27883616660E+01 -0.20393822736E+02 -0.13134376627E+03  0.13294686120E+03  0.00000000000E+00 0. -1.
          1    1    1    2  502    0 -0.10245639794E+02 -0.34815233813E+02  0.13751417267E+04  0.13756205298E+04  0.00000000000E+00 0. -1.
         22    1    3    3    0    0 -0.55815751444E+02  0.38579294445E+02  0.43781393129E+03  0.44304040279E+03  0.00000000000E+00 0. -1.
         22    1    3    3    0    0  0.63273029572E+02  0.16629762104E+02  0.26337202603E+03  0.27137584519E+03  0.00000000000E+00 0. -1.
</event>
<event>
 7    1  0.6105960E-006  0.8272046E+02  0.7818608E-02  0.1340741E+00
          2   -1    0    0  502    0  0.00000000000E+00  0.00000000000E+00  0.47205731588E+02  0.47205731588E+02  0.00000000000E+00 0. -1.
          1   -1    0    0  501    0 -0.00000000000E+00 -0.00000000000E+00 -0.21152252282E+04  0.21152252282E+04  0.00000000000E+00 0. -1.
         25    2    1    2    0    0 -0.39391347856E+01 -0.14779164083E+03 -0.39957790650E+03  0.44401108473E+03  0.12500181646E+03 0.  0.
          2    1    1    2  501    0  0.14138976155E+02  0.78677594863E+02 -0.16416517946E+04  0.16435968755E+04  0.00000000000E+00 0. -1.
          1    1    1    2  502    0 -0.10199841369E+02  0.69114045965E+02 -0.26789795517E+02  0.74822999522E+02  0.00000000000E+00 0. -1.
         22    1    3    3    0    0  0.24195692059E+02 -0.15858508827E+03 -0.30307456867E+03  0.34291231520E+03  0.00000000000E+00 0.  1.
         22    1    3    3    0    0 -0.28134826844E+02  0.10793447446E+02 -0.96503337829E+02  0.10109876954E+03  0.00000000000E+00 0.  1.
</event>
<event>
 7    1  0.6105960E-006  0.6287670E+02  0.7818608E-02  0.1414714E+00
          2   -1    0    0  502    0  0.00000000000E+00  0.00000000000E+00  0.33903041318E+03  0.33903041318E+03  0.00000000000E+00 0. -1.
          1   -1    0    0  501    0 -0.00000000000E+00 -0.00000000000E+00 -0.29999829154E+04  0.29999829154E+04  0.00000000000E+00 0. -1.
         25    2    1    2    0    0 -0.77709620626E+01  0.96997497802E+02 -0.12954819078E+04  0.13051310263E+04  0.12499888001E+03 0.  0.
          2    1    1    2  501    0 -0.25064666831E+02 -0.43439406472E+02 -0.16963503128E+04  0.16970915129E+04  0.00000000000E+00 0. -1.
          1    1    1    2  502    0  0.32835628894E+02 -0.53558091330E+02  0.33087971843E+03  0.33679078927E+03  0.00000000000E+00 0. -1.
         22    1    3    3    0    0 -0.11361945109E+02  0.59532305492E+02 -0.19949491267E+03  0.20849798410E+03  0.00000000000E+00 0.  1.
         22    1    3    3    0    0  0.35909830469E+01  0.37465192310E+02 -0.10959869951E+04  0.10966330422E+04  0.00000000000E+00 0.  1.
</event>
<event>
 7    1  0.6105960E-006  0.5974419E+02  0.7818608E-02  0.1448954E+00
          2   -1    0    0  502    0  0.00000000000E+00  0.00000000000E+00  0.14068299840E+04  0.14068299840E+04  0.00000000000E+00 0. -1.
          1   -1    0    0  501    0 -0.00000000000E+00 -0.00000000000E+00 -0.23070654462E+02  0.23070654462E+02  0.00000000000E+00 0. -1.
         25    2    1    2    0    0 -0.26421914838E+02 -0.14954781839E+02  0.31511861298E+03  0.34036232158E+03  0.12500002649E+03 0.  0.
          2    1    1    2  501    0  0.63270852521E+02  0.32334260543E+02  0.11603558969E+03  0.13606235063E+03  0.00000000000E+00 0. -1.
          1    1    1    2  502    0 -0.36848937683E+02 -0.17379478705E+02  0.95260512687E+03  0.95347596626E+03  0.00000000000E+00 0. -1.
         22    1    3    3    0    0 -0.62906310654E+02 -0.44326463136E+02  0.14809571156E+03  0.16689631223E+03  0.00000000000E+00 0.  1.
         22    1    3    3    0    0  0.36484395817E+02  0.29371681298E+02  0.16702290142E+03  0.17346600935E+03  0.00000000000E+00 0.  1.
</event>
<event>
 7    1  0.6105960E-006  0.7955593E+02  0.7818608E-02  0.1404036E+00
          2   -1    0    0  502    0  0.00000000000E+00  0.00000000000E+00  0.39031725676E+03  0.39031725676E+03  0.00000000000E+00 0. -1.
          1   -1    0    0  501    0 -0.00000000000E+00 -0.00000000000E+00 -0.12768873483E+04  0.12768873483E+04  0.00000000000E+00 0. -1.
         25    2    1    2    0    0  0.46085399897E+02  0.35663488822E+02 -0.11502109113E+03  0.17957926236E+03  0.12499244596E+03 0.  0.
          2    1    1    2  501    0 -0.80314465149E+02 -0.94971373923E+01 -0.11268365023E+04  0.11297349742E+04  0.00000000000E+00 0. -1.
          1    1    1    2  502    0  0.34229065252E+02 -0.26166351430E+02  0.35528750191E+03  0.35789036851E+03  0.00000000000E+00 0. -1.
         22    1    3    3    0    0  0.77619509712E+02  0.50722570318E+02 -0.48985422340E+02  0.10486724479E+03  0.00000000000E+00 0. -1.
         22    1    3    3    0    0 -0.31534109815E+02 -0.15059081496E+02 -0.66035668793E+02  0.74712017576E+02  0.00000000000E+00 0. -1.
</event>
<event>
 7    1  0.6105960E-006  0.9193307E+02  0.7818608E-02  0.1303529E+00
          2   -1    0    0  502    0  0.00000000000E+00  0.00000000000E+00  0.11136995636E+04  0.11136995636E+04  0.00000000000E+00 0. -1.
          1   -1    0    0  501    0 -0.00000000000E+00 -0.00000000000E+00 -0.32497683047E+02  0.32497683047E+02  0.00000000000E+00 0. -1.
         25    2    1    2    0    0 -0.18014355051E+02  0.44964368001E+02  0.45571728221E+03  0.47501687885E+03  0.12496592540E+03 0.  0.
          2    1    1    2  501    0  0.10542371092E+03 -0.39790638727E+02  0.14950834251E+03  0.18721698169E+03  0.00000000000E+00 0. -1.
          1    1    1    2  502    0 -0.87409355873E+02 -0.51737292740E+01  0.47597625584E+03  0.48396338610E+03  0.00000000000E+00 0. -1.
         22    1    3    3    0    0  0.17466166839E+02 -0.34380983544E+02  0.22872294812E+03  0.23195108538E+03  0.00000000000E+00 0.  1.
         22    1    3    3    0    0 -0.35480521890E+02  0.79345351545E+02  0.22699433410E+03  0.24306579347E+03  0.00000000000E+00 0.  1.
</event>
<event>
 7    1  0.6105960E-006  0.5509474E+02  0.7818608E-02  0.1521867E+00
          2   -1    0    0  502    0  0.00000000000E+00  0.00000000000E+00  0.17380356543E+04  0.17380356543E+04  0.00000000000E+00 0. -1.
          1   -1    0    0  501    0 -0.00000000000E+00 -0.00000000000E+00 -0.17851982548E+03  0.17851982548E+03  0.00000000000E+00 0. -1.
         25    2    1    2    0    0  0.52026629234E+02 -0.53678306454E+02  0.60391221374E+03  0.62122724996E+03  0.12500081381E+03 0.  0.
          2    1    1    2  501    0 -0.47560339611E+02  0.27567295619E+02 -0.16525407663E+03  0.17415754803E+03  0.00000000000E+00 0. -1.
          1    1    1    2  502    0 -0.44662896227E+01  0.26111010836E+02  0.11208576917E+04  0.11211706818E+04  0.00000000000E+00 0. -1.
         22    1    3    3    0    0 -0.12355422505E+02 -0.44729345331E+02  0.47091169731E+03  0.47319255854E+03  0.00000000000E+00 0. -1.
         22    1    3    3    0    0  0.64382051739E+02 -0.89489611232E+01  0.13300051643E+03  0.14803469142E+03  0.00000000000E+00 0. -1.
</event>
<event>
 7    1  0.6105960E-006  0.5660212E+02  0.7818608E-02  0.1527406E+00
          2   -1    0    0  502    0  0.00000000000E+00  0.00000000000E+00  0.27870439161E+03  0.27870439161E+03  0.00000000000E+00 0. -1.
          1   -1    0    0  501    0 -0.00000000000E+00 -0.00000000000E+00 -0.57173554009E+03  0.57173554009E+03  0.00000000000E+00 0. -1.
         25    2    1    2    0    0 -0.62562147640E+01  0.78391132954E+02  0.94298232714E+02  0.17522261263E+03  0.12500598919E+03 0.  0.
          2    1    1    2  501    0  0.34970560054E+01 -0.24605753049E+02 -0.52593209914E+03  0.52651898864E+03  0.00000000000E+00 0. -1.
          1    1    1    2  502    0  0.27591587586E+01 -0.53785379905E+02  0.13860271796E+03  0.14869833043E+03  0.00000000000E+00 0. -1.
         22    1    3    3    0    0 -0.44822701440E+01 -0.19517773348E+02 -0.17504952982E+02  0.26598075137E+02  0.00000000000E+00 0.  1.
         22    1    3    3    0    0 -0.17739446200E+01  0.97908906302E+02  0.11180318570E+03  0.14862453749E+03  0.00000000000E+00 0.  1.
</event>
<event>
 7    1  0.6105960E-006  0.4270371E+02  0.7818608E-02  0.1535365E+00
          2   -1    0    0  502    0  0.00000000000E+00  0.00000000000E+00  0.28695538317E+03  0.28695538317E+03  0.00000000000E+00 0. -1.
          1   -1    0    0  501    0 -0.00000000000E+00 -0.00000000000E+00 -0.85795053797E+03  0.85795053797E+03  0.00000000000E+00 0. -1.
         25    2    1    2    0    0 -0.45194838406E+02  0.34490887940E+02 -0.26858263708E+03  0.30165295541E+03  0.12500271116E+03 0.  0.
          2    1    1    2  501    0  0.26526166544E+01 -0.31147133685E+02 -0.57071883654E+03  0.57157429149E+03  0.00000000000E+00 0. -1.
          1    1    1    2  502    0  0.42542221751E+02 -0.33437542552E+01  0.26830631881E+03  0.27167867424E+03  0.00000000000E+00 0. -1.
         22    1    3    3    0    0 -0.76140887199E+02  0.11268766314E+02 -0.24390743108E+03  0.25576406067E+03  0.00000000000E+00 0.  1.
         22    1    3    3    0    0  0.30946048794E+02  0.23222121626E+02 -0.24675206002E+02  0.45888894735E+02  0.00000000000E+00 0.  1.
</event>
<event>
 7    1  0.6105960E-006  0.1457998E+03  0.7818608E-02  0.1266418E+00
          2   -1    0    0  502    0  0.00000000000E+00  0.00000000000E+00  0.20872259714E+04  0.20872259714E+04  0.00000000000E+00 0. -1.
          1   -1    0    0  501    0 -0.00000000000E+00 -0.00000000000E+00 -0.22296317135E+03  0.22296317135E+03  0.00000000000E+00 0. -1.
         25    2    1    2    0    0  0.11593813078E+03  0.13281235139E+03  0.35370624510E+03  0.41450557406E+03  0.12500396897E+03 0.  0.
          2    1    1    2  501    0 -0.13336512845E+03 -0.56393576192E+02 -0.16429657507E+03  0.21899739154E+03  0.00000000000E+00 0. -1.
          1    1    1    2  502    0  0.17426997674E+02 -0.76418775193E+02  0.16748531300E+04  0.16766861771E+04  0.00000000000E+00 0. -1.
         22    1    3    3    0    0  0.65093302158E+02  0.14911701605E+03  0.26405212390E+03  0.31015568123E+03  0.00000000000E+00 0.  1.
         22    1    3    3    0    0  0.50844828620E+02 -0.16304664662E+02  0.89654121190E+02  0.10434989283E+03  0.00000000000E+00 0.  1.
</event>
<event>
 7    1  0.6105960E-006  0.1669050E+03  0.7818608E-02  0.1287379E+00
          2   -1    0    0  502    0  0.00000000000E+00  0.00000000000E+00  0.15900289633E+04  0.15900289633E+04  0.00000000000E+00 0. -1.
          1   -1    0    0  501    0 -0.00000000000E+00 -0.00000000000E+00 -0.13856275484E+04  0.13856275484E+04  0.00000000000E+00 0. -1.
         25    2    1    2    0    0  0.69594226967E+01  0.21841005877E+03 -0.13141610178E+02  0.25208656245E+03  0.12499418270E+03 0.  0.
          2    1    1    2  501    0  0.79778556601E+01 -0.16440532923E+03 -0.12470699105E+04  0.12578855752E+04  0.00000000000E+00 0. -1.
          1    1    1    2  502    0 -0.14937278357E+02 -0.54004729545E+02  0.14646129356E+04  0.14656843740E+04  0.00000000000E+00 0. -1.
         22    1    3    3    0    0 -0.44476970830E+02  0.54546889788E+02 -0.35608819221E+02  0.78876816151E+02  0.00000000000E+00 0.  1.
         22    1    3    3    0    0  0.51436393527E+02  0.16386316899E+03  0.22467209043E+02  0.17320974630E+03  0.00000000000E+00 0.  1.
</event>
<event>
 7    1  0.6105960E-006  0.6584349E+02  0.7818608E-02  0.1501982E+00
          2   -1    0    0  502    0  0.00000000000E+00  0.00000000000E+00  0.96464855571E+02  0.96464855571E+02  0.00000000000E+00 0. -1.
          1   -1    0    0  501    0 -0.00000000000E+00 -0.00000000000E+00 -0.31127256118E+03  0.31127256118E+03  0.00000000000E+00 0. -1.
         25    2    1    2    0    0 -0.12460899093E+02 -0.40579599814E+02 -0.16837976478E+03  0.21395971799E+03  0.12500015123E+03 0.  0.
          2    1    1    2  501    0 -0.83724293589E+01 -0.23932984422E+02 -0.10263123121E+03  0.10571686212E+03  0.00000000000E+00 0. -1.
          1    1    1    2  502    0  0.20833328451E+02  0.64512584236E+02  0.56203290384E+02  0.88060836636E+02  0.00000000000E+00 0. -1.
         22    1    3    3    0    0  0.73729636399E+01  0.38070156194E+02 -0.17254839360E+02  0.42443219327E+02  0.00000000000E+00 0.  1.
         22    1    3    3    0    0 -0.19833862732E+02 -0.78649756009E+02 -0.15112492542E+03  0.17151649866E+03  0.00000000000E+00 0.  1.
</event>
<event>
 7    1  0.6105960E-006  0.5221904E+02  0.7818608E-02  0.1515240E+00
          2   -1    0    0  502    0  0.00000000000E+00  0.00000000000E+00  0.12033003638E+04  0.12033003638E+04  0.00000000000E+00 0. -1.
          1   -1    0    0  501    0 -0.00000000000E+00 -0.00000000000E+00 -0.58640508143E+03  0.58640508143E+03  0.00000000000E+00 0. -1.
         25    2    1    2    0    0 -0.42091495446E+02 -0.13107199712E+01  0.61832034000E+03  0.63222855837E+03  0.12497797880E+03 0.  0.
          2    1    1    2  501    0  0.42406735186E+02  0.30527040959E+02 -0.57790229853E+03  0.58025968158E+03  0.00000000000E+00 0. -1.
          1    1    1    2  502    0 -0.31523973941E+00 -0.29216320988E+02  0.57647724086E+03  0.57721720523E+03  0.00000000000E+00 0. -1.
         22    1    3    3    0    0 -0.59196467481E+02  0.35214330679E+02  0.53758598281E+03  0.54198058984E+03  0.00000000000E+00 0. -1.
         22    1    3    3    0    0  0.17104972035E+02 -0.36525050650E+02  0.80734357190E+02  0.90247968532E+02  0.00000000000E+00 0. -1.
</event>
<event>
 7    1  0.6105960E-006  0.6190435E+02  0.7818608E-02  0.1478611E+00
          2   -1    0    0  502    0  0.00000000000E+00  0.00000000000E+00  0.15603172407E+04  0.15603172407E+04  0.00000000000E+00 0. -1.
          1   -1    0    0  501    0 -0.00000000000E+00 -0.00000000000E+00 -0.62316726546E+02  0.62316726546E+02  0.00000000000E+00 0. -1.
         25    2    1    2    0    0 -0.28040843058E+02  0.15498756124E+02  0.13146486318E+04  0.13209665681E+04  0.12500059464E+03 0.  0.
          2    1    1    2  501    0  0.59691705787E+02 -0.17811362640E+02 -0.41329352257E+02  0.74756001343E+02  0.00000000000E+00 0. -1.
          1    1    1    2  502    0 -0.31650862728E+02  0.23126065160E+01  0.22468123458E+03  0.22691139776E+03  0.00000000000E+00 0. -1.
         22    1    3    3    0    0 -0.71760697878E+01 -0.52141086282E+02  0.37794414149E+03  0.38159135596E+03  0.00000000000E+00 0.  1.
         22    1    3    3    0    0 -0.20864773271E+02  0.67639842406E+02  0.93670449033E+03  0.93937521217E+03  0.00000000000E+00 0.  1.
</event>
<event>
 7    1  0.6105960E-006  0.4385803E+02  0.7818608E-02  0.1572004E+00
          2   -1    0    0  502    0  0.00000000000E+00  0.00000000000E+00  0.17186188486E+04  0.17186188486E+04  0.00000000000E+00 0. -1.
          1   -1    0    0  501    0 -0.00000000000E+00 -0.00000000000E+00 -0.22370268125E+03  0.22370268125E+03  0.00000000000E+00 0. -1.
         25    2    1    2    0    0  0.23178414617E+02 -0.69984334576E+01  0.30403291682E+03  0.32962948336E+03  0.12503345478E+03 0.  0.
          2    1    1    2  501    0  0.10999886788E+02 -0.21422641679E+02 -0.20986325305E+03  0.21124041296E+03  0.00000000000E+00 0. -1.
          1    1    1    2  502    0 -0.34178301405E+02  0.28421075136E+02  0.14007465035E+04  0.14014516335E+04  0.00000000000E+00 0. -1.
         22    1    3    3    0    0  0.50352621058E+02  0.39086492300E+01  0.29455353388E+03  0.29885188356E+03  0.00000000000E+00 0.  1.
         22    1    3    3    0    0 -0.27174206442E+02 -0.10907082688E+02  0.94793829415E+01  0.30777599800E+02  0.00000000000E+00 0.  1.
</event>
<event>
 7    1  0.6105960E-006  0.1411823E+03  0.7818608E-02  0.1216598E+00
          2   -1    0    0  502    0  0.00000000000E+00  0.00000000000E+00  0.54875509061E+02  0.54875509061E+02  0.00000000000E+00 0. -1.
          1   -1    0    0  501    0 -0.00000000000E+00 -0.00000000000E+00 -0.20123368666E+04  0.20123368666E+04  0.00000000000E+00 0. -1.
         25    2    1    2    0    0  0.46738385600E+02 -0.18933989413E+03 -0.64970069020E+03  0.68976149794E+03  0.12500345996E+03 0.  0.
          2    1    1    2  501    0 -0.11691027625E+03  0.75060255968E+02 -0.11926602475E+04  0.12007249980E+04  0.00000000000E+00 0. -1.
          1    1    1    2  502    0  0.70171890648E+02  0.11427963817E+03 -0.11510041986E+03  0.17672587979E+03  0.00000000000E+00 0. -1.
         22    1    3    3    0    0 -0.41448098886E+02 -0.87834920663E+02 -0.28028732795E+03  0.29663766518E+03  0.00000000000E+00 0. -1.
         22    1    3    3    0    0  0.88186484486E+02 -0.10150497347E+03 -0.36941336224E+03  0.39312383277E+03  0.00000000000E+00 0. -1.
</event>
<event>
 7    1  0.6105960E-006  0.1415307E+03  0.7818608E-02  0.1291361E+00
          2   -1    0    0  502    0  0.00000000000E+00  0.00000000000E+00  0.93824657465E+03  0.93824657465E+03  0.00000000000E+00 0. -1.
          1   -1    0    0  501    0 -0.00000000000E+00 -0.00000000000E+00 -0.73152643579E+03  0.73152643579E+03  0.00000000000E+00 0. -1.
         25    2    1    2    0    0  0.11125353995E+03 -0.32917570077E+02 -0.10632924139E+03  0.20097298444E+03  0.12499326515E+03 0.  0.
          2    1    1    2  501    0  0.29729656863E+02  0.56287894599E+02 -0.57036258121E+03  0.57390387141E+03  0.00000000000E+00 0. -1.
          1    1    1    2  502    0 -0.14098319681E+03 -0.23370324522E+02  0.88341196146E+03  0.89489615459E+03  0.00000000000E+00 0. -1.
         22    1    3    3    0    0  0.70020481457E+00  0.38724858804E+02 -0.21724785980E+02  0.44408009436E+02  0.00000000000E+00 0. -1.
         22    1    3    3    0    0  0.11055333513E+03 -0.71642428881E+02 -0.84604455407E+02  0.15656497501E+03  0.00000000000E+00 0. -1.
</event>
<event>
 7    1  0.6105960E-006  0.5528023E+02  0.7818608E-02  0.1563875E+00
          2   -1    0    0  502    0  0.00000000000E+00  0.00000000000E+00  0.54286546534E+02  0.54286546534E+02  0.00000000000E+00 0. -1.
          1   -1    0    0  501    0 -0.00000000000E+00 -0.00000000000E+00 -0.12534644225E+04  0.12534644225E+04  0.00000000000E+00 0. -1.
         25    2    1    2    0    0 -0.35554367842E+02 -0.43704490586E+02 -0.10600979627E+04  0.10689280941E+04  0.12500153736E+03 0.  0.
          2    1    1    2  501    0  0.48403321254E+02  0.28240849494E+02 -0.18253422593E+03  0.19094284674E+03  0.00000000000E+00 0. -1.
          1    1    1    2  502    0 -0.12848953412E+02  0.15463641092E+02  0.43454312702E+02  0.47880028112E+02  0.00000000000E+00 0. -1.
         22    1    3    3    0    0 -0.92249375223E+00  0.10580106417E+02 -0.82787903460E+03  0.82794715144E+03  0.00000000000E+00 0.  1.
         22    1    3    3    0    0 -0.34631874090E+02 -0.54284597003E+02 -0.23221892810E+03  0.24098094270E+03  0.00000000000E+00 0.  1.
</event>
<event>
 7    1  0.6105960E-006  0.2999147E+03  0.7818608E-02  0.1274792E+00
          2   -1    0    0  502    0  0.00000000000E+00  0.00000000000E+00  0.24555890676E+04  0.24555890676E+04  0.00000000000E+00 0. -1.
          1   -1    0    0  501    0 -0.00000000000E+00 -0.00000000000E+00 -0.76969780642E+03  0.76969780642E+03  0.00000000000E+00 0. -1.
         25    2    1    2    0    0  0.17769472858E+03 -0.26011380362E+03 -0.27066812562E+02  0.33998848308E+03  0.12499979554E+03 0.  0.
          2    1    1    2  501    0  0.15415170860E+02  0.31581495717E+02 -0.57589830594E+03  0.57696956345E+03  0.00000000000E+00 0. -1.
          1    1    1    2  502    0 -0.19310989944E+03  0.22853230791E+03  0.22888563796E+04  0.23083288274E+04  0.00000000000E+00 0. -1.
         22    1    3    3    0    0  0.10935402188E+03 -0.22033194759E+03  0.21947567161E+02  0.24695377084E+03  0.00000000000E+00 0. -1.
         22    1    3    3    0    0  0.68340706701E+02 -0.39781856034E+02 -0.49014379723E+02  0.93034712240E+02  0.00000000000E+00 0. -1.
</event>
<event>
 7    1  0.6105960E-006  0.1207361E+03  0.7818608E-02  0.1421016E+00
          2   -1    0    0  502    0  0.00000000000E+00  0.00000000000E+00  0.47356599033E+03  0.47356599033E+03  0.00000000000E+00 0. -1.
          1   -1    0    0  501    0 -0.00000000000E+00 -0.00000000000E+00 -0.74714311233E+03  0.74714311233E+03  0.00000000000E+00 0. -1.
         25    2    1    2    0    0 -0.11686991477E+03  0.24019601409E+02 -0.80400774449E+02  0.19061994080E+03  0.12504462831E+03 0.  0.
          2    1    1    2  501    0  0.11112788651E+03 -0.48226628111E+02 -0.60525553304E+03  0.61725964965E+03  0.00000000000E+00 0. -1.
          1    1    1    2  502    0  0.57420282624E+01  0.24207026702E+02  0.41207918549E+03  0.41282951220E+03  0.00000000000E+00 0. -1.
         22    1    3    3    0    0 -0.75674254318E+02  0.81092542235E+00  0.21169018971E+02  0.78583571635E+02  0.00000000000E+00 0. -1.
         22    1    3    3    0    0 -0.41195660454E+02  0.23208675987E+02 -0.10156979342E+03  0.11203636917E+03  0.00000000000E+00 0. -1.
</event>
<event>
 7    1  0.6105960E-006  0.8371407E+02  0.7818608E-02  0.1396533E+00
          2   -1    0    0  502    0  0.00000000000E+00  0.00000000000E+00  0.11173083994E+04  0.11173083994E+04  0.00000000000E+00 0. -1.
          1   -1    0    0  501    0 -0.00000000000E+00 -0.00000000000E+00 -0.18763921695E+03  0.18763921695E+03  0.00000000000E+00 0. -1.
         25    2    1    2    0    0  0.44187483502E+02  0.10697914997E+03  0.71848761171E+02  0.18489058874E+03  0.12500085239E+03 0.  0.
          2    1    1    2  501    0 -0.35865112773E+02 -0.24527493996E+02 -0.12572768548E+03  0.13302388948E+03  0.00000000000E+00 0. -1.
          1    1    1    2  502    0 -0.83223707294E+01 -0.82451655969E+02  0.98354810679E+03  0.98703313815E+03  0.00000000000E+00 0. -1.
         22    1    3    3    0    0  0.84465929309E+02  0.66946343240E+02  0.23507596358E+02  0.11031279696E+03  0.00000000000E+00 0. -1.
         22    1    3    3    0    0 -0.40278445807E+02  0.40032806725E+02  0.48341164813E+02  0.74577791778E+02  0.00000000000E+00 0. -1.
</event>
<event>
 7    1  0.6105960E-006  0.1937604E+03  0.7818608E-02  0.1232049E+00
          2   -1    0    0  502    0  0.00000000000E+00  0.00000000000E+00  0.66488261783E+03  0.66488261783E+03  0.00000000000E+00 0. -1.
          1   -1    0    0  501    0 -0.00000000000E+00 -0.00000000000E+00 -0.33378676598E+03  0.33378676598E+03  0.00000000000E+00 0. -1.
         25    2    1    2    0    0  0.26624062572E+02  0.24201414910E+03 -0.17945621802E+03  0.32727711155E+03  0.12500433785E+03 0.  0.
          2    1    1    2  501    0  0.49718789986E+02 -0.66684920384E+02 -0.37273987161E+02  0.91149255637E+02  0.00000000000E+00 0. -1.
          1    1    1    2  502    0 -0.76342852558E+02 -0.17532922872E+03  0.54782605704E+03  0.58024301663E+03  0.00000000000E+00 0. -1.
         22    1    3    3    0    0  0.66066236589E+02  0.20278894417E+03 -0.11561179910E+03  0.24259882849E+03  0.00000000000E+00 0. -1.
         22    1    3    3    0    0 -0.39442174016E+02  0.39225204929E+02 -0.63844418926E+02  0.84678283053E+02  0.00000000000E+00 0. -1.
</event>
<event>
 7    1  0.6157621E-006  0.6481468E+02  0.7818608E-02  0.1438779E+00
          2   -1    0    0  502    0  0.00000000000E+00  0.00000000000E+00  0.59240510139E+03  0.59240510139E+03  0.00000000000E+00 0. -1.
          1   -1    0    0  501    0 -0.00000000000E+00 -0.00000000000E+00 -0.10983352953E+04  0.10983352953E+04  0.00000000000E+00 0. -1.
         25    2    1    2    0    0  0.99062771363E+02 -0.28853557132E+02 -0.36304545322E+03  0.39758395630E+03  0.12500016309E+03 0.  0.
          2    1    1    2  501    0 -0.40474719631E+02  0.15518954325E+01 -0.71563003657E+03  0.71677539059E+03  0.00000000000E+00 0. -1.
          1    1    1    2  502    0 -0.58588051732E+02  0.27301661700E+02  0.57274529592E+03  0.57638104977E+03  0.00000000000E+00 0. -1.
         22    1    3    3    0    0  0.12258755337E+02 -0.64831678784E+02 -0.18229538339E+03  0.19386859071E+03  0.00000000000E+00 0. -1.
         22    1    3    3    0    0  0.86804016026E+02  0.35978121652E+02 -0.18075006983E+03  0.20371536560E+03  0.00000000000E+00 0. -1.
</event>
<event>
 7    1  0.6105960E-006  0.7360547E+02  0.7818608E-02  0.1441050E+00
          2   -1    0    0  502    0  0.00000000000E+00  0.00000000000E+00  0.11251162664E+04  0.11251162664E+04  0.00000000000E+00 0. -1.
          1   -1    0    0  501    0 -0.00000000000E+00 -0.00000000000E+00 -0.13827860234E+04  0.13827860234E+04  0.00000000000E+00 0. -1.
         25    2    1    2    0    0 -0.10096641440E+02  0.10681525795E+03  0.16275956371E+03  0.23157530296E+03  0.12500001545E+03 0.  0.
          2    1    1    2  501    0 -0.64605796016E+00 -0.73434620683E+02 -0.13470463463E+04  0.13490466708E+04  0.00000000000E+00 0. -1.
          1    1    1    2  502    0  0.10742699400E+02 -0.33380637270E+02  0.92661702554E+03  0.92728031606E+03  0.00000000000E+00 0. -1.
         22    1    3    3    0    0  0.41626435105E+01  0.22421284605E+02  0.14157842797E+03  0.14340325265E+03  0.00000000000E+00 0.  1.
         22    1    3    3    0    0 -0.14259284950E+02  0.84393973349E+02  0.21181135743E+02  0.88172050312E+02  0.00000000000E+00 0.  1.
</event>
<event>
 7    1  0.6105960E-006  0.1044016E+03  0.7818608E-02  0.1304811E+00
          2   -1    0    0  502    0  0.00000000000E+00  0.00000000000E+00  0.46356723154E+03  0.46356723154E+03  0.00000000000E+00 0. -1.
          1   -1    0    0  501    0 -0.00000000000E+00 -0.00000000000E+00 -0.10755499902E+03  0.10755499902E+03  0.00000000000E+00 0. -1.
         25    2    1    2    0    0  0.48641135688E+01 -0.13060369428E+03  0.93160625196E+02  0.20343290792E+03  0.12500024551E+03 0.  0.
          2    1    1    2  501    0  0.55619556409E+02  0.84247676588E+02  0.75230885467E+01  0.10123143250E+03  0.00000000000E+00 0. -1.
          1    1    1    2  502    0 -0.60483669978E+02  0.46356017697E+02  0.25532851878E+03  0.26645789013E+03  0.00000000000E+00 0. -1.
         22    1    3    3    0    0 -0.19058473698E+02 -0.90953022987E+02 -0.68916445496E+01  0.93183542403E+02  0.00000000000E+00 0.  1.
         22    1    3    3    0    0  0.23922587267E+02 -0.39650671298E+02  0.10005226975E+03  0.11024936552E+03  0.00000000000E+00 0.  1.
</event>
<event>
 7    1  0.6105960E-006  0.7676515E+02  0.7818608E-02  0.1355470E+00
          2   -1    0    0  502    0  0.00000000000E+00  0.00000000000E+00  0.28906397467E+04  0.28906397467E+04  0.00000000000E+00 0. -1.
          1   -1    0    0  501    0 -0.00000000000E+00 -0.00000000000E+00 -0.44046748971E+03  0.44046748971E+03  0.00000000000E+00 0. -1.
         25    2    1    2    0    0  0.73753195403E+02 -0.37656214014E+02 -0.10619975645E+02  0.15031259299E+03  0.12499426964E+03 0.  0.
          2    1    1    2  501    0 -0.55122488766E+02 -0.36963063056E+02 -0.35641307675E+03  0.36253970552E+03  0.00000000000E+00 0. -1.
          1    1    1    2  502    0 -0.18630706637E+02  0.74619277071E+02  0.28172053094E+04  0.28182549379E+04  0.00000000000E+00 0. -1.
         22    1    3    3    0    0 -0.33176971469E+02  0.65832590904E+01 -0.69713465700E+01  0.34534771016E+02  0.00000000000E+00 0. -1.
         22    1    3    3    0    0  0.10693016687E+03 -0.44239473105E+02 -0.36486290748E+01  0.11577782198E+03  0.00000000000E+00 0. -1.
</event>
<event>
 7    1  0.6105960E-006  0.1834938E+03  0.7818608E-02  0.1165837E+00
          2   -1    0    0  502    0  0.00000000000E+00  0.00000000000E+00  0.11914846194E+04  0.11914846194E+04  0.00000000000E+00 0. -1.
          1   -1    0    0  501    0 -0.00000000000E+00 -0.00000000000E+00 -0.22635314994E+04  0.22635314994E+04  0.00000000000E+00 0. -1.
         25    2    1    2    0    0  0.20674593104E+03 -0.15528586385E+03  0.10487688437E+03  0.30574771366E+03  0.12499969609E+03 0.  0.
          2    1    1    2  501    0 -0.17882411431E+03 -0.25343230154E+02 -0.21508097546E+04  0.21583797033E+04  0.00000000000E+00 0. -1.
          1    1    1    2  502    0 -0.27921816726E+02  0.18062909400E+03  0.97388599018E+03  0.99088870178E+03  0.00000000000E+00 0. -1.
         22    1    3    3    0    0  0.18829396630E+03 -0.79230707397E+02  0.99699878500E+02  0.22731517440E+03  0.00000000000E+00 0.  1.
         22    1    3    3    0    0  0.18451964736E+02 -0.76055156450E+02  0.51770058703E+01  0.78432539261E+02  0.00000000000E+00 0.  1.
</event>
<event>
 7    1  0.6105960E-006  0.7940598E+02  0.7818608E-02  0.1359240E+00
          2   -1    0    0  502    0  0.00000000000E+00  0.00000000000E+00  0.25958457071E+03  0.25958457071E+03  0.00000000000E+00 0. -1.
          1   -1    0    0  501    0 -0.00000000000E+00 -0.00000000000E+00 -0.27563292029E+03  0.27563292029E+03  0.00000000000E+00 0. -1.
         25    2    1    2    0    0  0.26994147008E+02 -0.59909559703E+02 -0.47017574088E+02  0.14883673237E+03  0.12499552518E+03 0.  0.
          2    1    1    2  501    0  0.51439902929E+02  0.34883436040E+02 -0.16365477094E+03  0.17505942355E+03  0.00000000000E+00 0. -1.
          1    1    1    2  502    0 -0.78434049937E+02  0.25026123663E+02  0.19462399544E+03  0.21132133507E+03  0.00000000000E+00 0. -1.
         22    1    3    3    0    0  0.85806295169E+00 -0.60534979565E+02  0.29954326863E+02  0.67546145121E+02  0.00000000000E+00 0.  1.
         22    1    3    3    0    0  0.26136084057E+02  0.62541986168E+00 -0.76971900951E+02  0.81290587252E+02  0.00000000000E+00 0.  1.
</event>
<event>
 7    1  0.6105960E-006  0.6413308E+02  0.7818608E-02  0.1421233E+00
          2   -1    0    0  502    0  0.00000000000E+00  0.00000000000E+00  0.33563160594E+03  0.33563160594E+03  0.00000000000E+00 0. -1.
          1   -1    0    0  501    0 -0.00000000000E+00 -0.00000000000E+00 -0.26518635370E+03  0.26518635370E+03  0.00000000000E+00 0. -1.
         25    2    1    2    0    0 -0.24638023509E+02  0.40228136840E+01 -0.14148232051E+01  0.12747908087E+03  0.12500279638E+03 0.  0.
          2    1    1    2  501    0  0.55654557116E+02 -0.39013024937E+02 -0.19287827323E+03  0.20450299295E+03  0.00000000000E+00 0. -1.
          1    1    1    2  502    0 -0.31016533607E+02  0.34990211253E+02  0.26473834868E+03  0.26883588582E+03  0.00000000000E+00 0. -1.
         22    1    3    3    0    0  0.35707030838E+02 -0.27472106969E-01  0.40424858898E+02  0.53936648236E+02  0.00000000000E+00 0.  1.
         22    1    3    3    0    0 -0.60345054347E+02  0.40502857909E+01 -0.41839682103E+02  0.73542432634E+02  0.00000000000E+00 0.  1.
</event>
<event>
 7    1  0.6105960E-006  0.6757168E+02  0.7818608E-02  0.1374776E+00
          2   -1    0    0  502    0  0.00000000000E+00  0.00000000000E+00  0.26223449349E+03  0.26223449349E+03  0.00000000000E+00 0. -1.
          1   -1    0    0  501    0 -0.00000000000E+00 -0.00000000000E+00 -0.35343073656E+03  0.35343073656E+03  0.00000000000E+00 0. -1.
         25    2    1    2    0    0  0.11539854285E+03 -0.32797725460E+02 -0.87212777204E+02  0.19396833271E+03  0.12500052439E+03 0.  0.
          2    1    1    2  501    0 -0.63678352563E+02 -0.80563281061E+01 -0.20255050140E+03  0.21247715789E+03  0.00000000000E+00 0. -1.
          1    1    1    2  502    0 -0.51720190291E+02  0.40854053566E+02  0.19856703553E+03  0.20921973945E+03  0.00000000000E+00 0. -1.
         22    1    3    3    0    0  0.91247456927E+02 -0.55909819529E+02 -0.72030807251E+01  0.10725619184E+03  0.00000000000E+00 0.  1.
         22    1    3    3    0    0  0.24151085926E+02  0.23112094068E+02 -0.80009696479E+02  0.86712140870E+02  0.00000000000E+00 0.  1.
</event>
<event>
 7    1  0.6105960E-006  0.3306358E+02  0.7818608E-02  0.1601041E+00
          2   -1    0    0  502    0  0.00000000000E+00  0.00000000000E+00  0.89114550353E+03  0.89114550353E+03  0.00000000000E+00 0. -1.
          1   -1    0    0  501    0 -0.00000000000E+00 -0.00000000000E+00 -0.74314087405E+03  0.74314087405E+03  0.00000000000E+00 0. -1.
         25    2    1    2    0    0 -0.84653491170E+01  0.43664742348E+02  0.46090399473E+03  0.47962178355E+03  0.12500516402E+03 0.  0.
          2    1    1    2  501    0  0.22730363369E+02 -0.14085547577E+02 -0.73289719964E+03  0.73338487665E+03  0.00000000000E+00 0. -1.
          1    1    1    2  502    0 -0.14265014252E+02 -0.29579194772E+02  0.41999783438E+03  0.42127971739E+03  0.00000000000E+00 0. -1.
         22    1    3    3    0    0 -0.19746819313E+02  0.45647541333E+02  0.46485275824E+03  0.46750585210E+03  0.00000000000E+00 0.  1.
         22    1    3    3    0    0  0.11281470196E+02 -0.19827989848E+01 -0.39487635082E+01  0.12115931447E+02  0.00000000000E+00 0.  1.
</event>
<event>
 7    1  0.6105960E-006  0.1565399E+03  0.7818608E-02  0.1221758E+00
          2   -1    0    0  502    0  0.00000000000E+00  0.00000000000E+00  0.52910912724E+03  0.52910912724E+03  0.00000000000E+00 0. -1.
          1   -1    0    0  501    0 -0.00000000000E+00 -0.00000000000E+00 -0.21765193997E+04  0.21765193997E+04  0.00000000000E+00 0. -1.
         25    2    1    2    0    0 -0.13545604182E+03  0.20791383277E+03 -0.66051019675E+03  0.71657292646E+03  0.12500615108E+03 0.  0.
          2    1    1    2  501    0  0.43942285582E+02 -0.13899502044E+03 -0.14777961955E+04  0.14849687322E+04  0.00000000000E+00 0. -1.
          1    1    1    2  502    0  0.91513756233E+02 -0.68918812326E+02  0.49089611983E+03  0.50408686824E+03  0.00000000000E+00 0. -1.
         22    1    3    3    0    0 -0.15691551674E+03  0.17402299962E+03 -0.51817207756E+03  0.56869041292E+03  0.00000000000E+00 0. -1.
         22    1    3    3    0    0  0.21459474924E+02  0.33890833148E+02 -0.14233811920E+03  0.14788251354E+03  0.00000000000E+00 0. -1.
</event>
<event>
 7    1  0.6105960E-006  0.8325032E+02  0.7818608E-02  0.1425050E+00
          2   -1    0    0  502    0  0.00000000000E+00  0.00000000000E+00  0.13587538824E+04  0.13587538824E+04  0.00000000000E+00 0. -1.
          1   -1    0    0  501    0 -0.00000000000E+00 -0.00000000000E+00 -0.29759868361E+03  0.29759868361E+03  0.00000000000E+00 0. -1.
         25    2    1    2    0    0  0.10865975473E+03  0.34300130725E+02  0.45554712708E+02  0.17516606388E+03  0.12499790726E+03 0.  0.
          2    1    1    2  501    0 -0.73676535803E+02 -0.34444920630E+02 -0.22543537854E+03  0.23965766080E+03  0.00000000000E+00 0. -1.
          1    1    1    2  502    0 -0.34983218922E+02  0.14478990555E+00  0.12410358646E+04  0.12415288413E+04  0.00000000000E+00 0. -1.
         22    1    3    3    0    0  0.22210435162E+02  0.43625046196E+02  0.69470823694E+02  0.84986136696E+02  0.00000000000E+00 0. -1.
         22    1    3    3    0    0  0.86449319563E+02 -0.93249154711E+01 -0.23916110986E+02  0.90179927180E+02  0.00000000000E+00 0. -1.
</event>
<event>
 7    1  0.6105960E-006  0.4699477E+02  0.7818608E-02  0.1502615E+00
          2   -1    0    0  502    0  0.00000000000E+00  0.00000000000E+00  0.10594230381E+04  0.10594230381E+04  0.00000000000E+00 0. -1.
          1   -1    0    0  501    0 -0.00000000000E+00 -0.00000000000E+00 -0.82453441424E+02  0.82453441424E+02  0.00000000000E+00 0. -1.
         25    2    1    2    0    0 -0.61019974749E+01  0.68785672166E+02  0.65165043365E+03  0.66711496558E+03  0.12500154626E+03 0.  0.
          2    1    1    2  501    0 -0.17111682099E+02 -0.30956344703E+02 -0.69220051064E+02  0.77733650441E+02  0.00000000000E+00 0. -1.
          1    1    1    2  502    0  0.23213679574E+02 -0.37829327463E+02  0.39453921410E+03  0.39702786351E+03  0.00000000000E+00 0. -1.
         22    1    3    3    0    0 -0.65323514034E+02  0.42625946736E+02  0.34603688815E+03  0.35471912942E+03  0.00000000000E+00 0. -1.
         22    1    3    3    0    0  0.59221516559E+02  0.26159725430E+02  0.30561354550E+03  0.31239583616E+03  0.00000000000E+00 0. -1.
</event>
<event>
 7    1  0.6105960E-006  0.1464910E+03  0.7818608E-02  0.1246906E+00
          2   -1    0    0  502    0  0.00000000000E+00  0.00000000000E+00  0.81494756448E+03  0.81494756448E+03  0.00000000000E+00 0. -1.
          1   -1    0    0  501    0 -0.00000000000E+00 -0.00000000000E+00 -0.69377614262E+03  0.69377614262E+03  0.00000000000E+00 0. -1.
         25    2    1    2    0    0 -0.48540636852E+02  0.21967325911E+03  0.25036626501E+03  0.35905621940E+03  0.12500227133E+03 0.  0.
          2    1    1    2  501    0  0.40520197162E+00 -0.94599289232E+02 -0.62702138671E+03  0.63411750418E+03  0.00000000000E+00 0. -1.
          1    1    1    2  502    0  0.48135434880E+02 -0.12507396988E+03  0.49782654357E+03  0.51554998352E+03  0.00000000000E+00 0. -1.
         22    1    3    3    0    0  0.95533355326E+00  0.53859556649E+02 -0.10099833282E+01  0.53877495960E+02  0.00000000000E+00 0.  1.
         22    1    3    3    0    0 -0.49495970405E+02  0.16581370247E+03  0.25137624834E+03  0.30517872344E+03  0.00000000000E+00 0.  1.
</event>
<event>
 7    1  0.6105960E-006  0.1854182E+03  0.7818608E-02  0.1366245E+00
          2   -1    0    0  502    0  0.00000000000E+00  0.00000000000E+00  0.65657056440E+03  0.65657056440E+03  0.00000000000E+00 0. -1.
          1   -1    0    0  501    0 -0.00000000000E+00 -0.00000000000E+00 -0.52478843556E+03  0.52478843556E+03  0.00000000000E+00 0. -1.
         25    2    1    2    0    0  0.12935154309E+03 -0.14954062445E+03  0.45601856617E+02  0.23832594726E+03  0.12500203099E+03 0.  0.
          2    1    1    2  501    0  0.50301744819E+01  0.24592213376E+02 -0.41167453183E+03  0.41243908613E+03  0.00000000000E+00 0. -1.
          1    1    1    2  502    0 -0.13438171757E+03  0.12494841107E+03  0.49785480405E+03  0.53059396657E+03  0.00000000000E+00 0. -1.
         22    1    3    3    0    0  0.88145457412E+02 -0.16170190245E+03  0.13435352612E+02  0.18465545109E+03  0.00000000000E+00 0. -1.
         22    1    3    3    0    0  0.41206085675E+02  0.12161277998E+02  0.32166504005E+02  0.53670496170E+02  0.00000000000E+00 0. -1.
</event>
<event>
 7    1  0.6105960E-006  0.6179488E+02  0.7818608E-02  0.1427341E+00
          2   -1    0    0  502    0  0.00000000000E+00  0.00000000000E+00  0.44179534022E+02  0.44179534022E+02  0.00000000000E+00 0. -1.
          1   -1    0    0  501    0 -0.00000000000E+00 -0.00000000000E+00 -0.28281700114E+04  0.28281700114E+04  0.00000000000E+00 0. -1.
         25    2    1    2    0    0  0.51871194231E+02 -0.18475538302E+01 -0.26403501196E+03  0.29670224889E+03  0.12499481074E+03 0.  0.
          2    1    1    2  501    0 -0.75012377055E+01 -0.45702651772E+02 -0.25093197470E+04  0.25097471174E+04  0.00000000000E+00 0. -1.
          1    1    1    2  502    0 -0.44369956525E+02  0.47550205602E+02 -0.10635718424E+02  0.65900179068E+02  0.00000000000E+00 0. -1.
         22    1    3    3    0    0  0.10866546197E+02 -0.16440492502E+02  0.79548112426E+01  0.21252073825E+02  0.00000000000E+00 0. -1.
         22    1    3    3    0    0  0.41004648034E+02  0.14592938672E+02 -0.27198982320E+03  0.27545017507E+03  0.00000000000E+00 0. -1.
</event>
<event>
 7    1  0.6105960E-006  0.1941340E+03  0.7818608E-02  0.1329013E+00
          2   -1    0    0  502    0  0.00000000000E+00  0.00000000000E+00  0.15906609077E+04  0.15906609077E+04  0.00000000000E+00 0. -1.
          1   -1    0    0  501    0 -0.00000000000E+00 -0.00000000000E+00 -0.26779078417E+04  0.26779078417E+04  0.00000000000E+00 0. -1.
         25    2    1    2    0    0  0.39743841272E+02  0.15659070342E+03 -0.71826282661E+03  0.74674366012E+03  0.12499753805E+03 0.  0.
          2    1    1    2  501    0  0.49293557813E+01  0.32607520936E+02 -0.19392706034E+04  0.19395509847E+04  0.00000000000E+00 0. -1.
          1    1    1    2  502    0 -0.44673197053E+02 -0.18919822435E+03  0.15702864960E+04  0.15822741046E+04  0.00000000000E+00 0. -1.
         22    1    3    3    0    0  0.29680731211E+02  0.32053103213E+02 -0.43451490046E+03  0.43670533081E+03  0.00000000000E+00 0.  1.
         22    1    3    3    0    0  0.10063110061E+02  0.12453760021E+03 -0.28374792615E+03  0.31003832932E+03  0.00000000000E+00 0.  1.
</event>
<event>
 7    1  0.6105960E-006  0.2660192E+03  0.7818608E-02  0.1222188E+00
          2   -1    0    0  502    0  0.00000000000E+00  0.00000000000E+00  0.75443680229E+03  0.75443680229E+03  0.00000000000E+00 0. -1.
          1   -1    0    0  501    0 -0.00000000000E+00 -0.00000000000E+00 -0.33995180233E+04  0.33995180233E+04  0.00000000000E+00 0. -1.
         25    2    1    2    0    0  0.14667368924E+03  0.29694463837E+03 -0.98383837995E+03  0.10455862353E+04  0.12499331247E+03 0.  0.
          2    1    1    2  501    0 -0.35344733186E+02 -0.57050282569E+02 -0.23601464526E+04  0.23611004346E+04  0.00000000000E+00 0. -1.
          1    1    1    2  502    0 -0.11132895605E+03 -0.23989435581E+03  0.69890361147E+03  0.74726815570E+03  0.00000000000E+00 0. -1.
         22    1    3    3    0    0  0.68421495437E+02  0.23921363192E+03 -0.79734326594E+03  0.83526100500E+03  0.00000000000E+00 0. -1.
         22    1    3    3    0    0  0.78252193800E+02  0.57731006460E+02 -0.18649511400E+03  0.21032523027E+03  0.00000000000E+00 0. -1.
</event>
<event>
 7    1  0.6105960E-006  0.3148434E+03  0.7818608E-02  0.1146163E+00
          2   -1    0    0  502    0  0.00000000000E+00  0.00000000000E+00  0.33725950261E+04  0.33725950261E+04  0.00000000000E+00 0. -1.
          1   -1    0    0  501    0 -0.00000000000E+00 -0.00000000000E+00 -0.15538497339E+04  0.15538497339E+04  0.00000000000E+00 0. -1.
         25    2    1    2    0    0  0.10857006130E+03  0.33805699522E+03  0.26131033709E+04  0.26400765589E+04  0.12500007778E+03 0.  0.
          2    1    1    2  501    0 -0.10451592419E+03 -0.81547399127E+02 -0.15153281314E+04  0.15211156769E+04  0.00000000000E+00 0. -1.
          1    1    1    2  502    0 -0.40541371078E+01 -0.25650959609E+03  0.72097005272E+03  0.76525252423E+03  0.00000000000E+00 0. -1.
         22    1    3    3    0    0  0.51540988986E+02  0.30636769630E+03  0.22093128440E+04  0.22310492782E+04  0.00000000000E+00 0. -1.
         22    1    3    3    0    0  0.57029072312E+02  0.31689298920E+02  0.40379052688E+03  0.40902728070E+03  0.00000000000E+00 0. -1.
</event>
<event>
 7    1  0.6105960E-006  0.1817086E+03  0.7818608E-02  0.1298055E+00
          2   -1    0    0  502    0  0.00000000000E+00  0.00000000000E+00  0.33858229993E+04  0.33858229993E+04  0.00000000000E+00 0. -1.
          1   -1    0    0  501    0 -0.00000000000E+00 -0.00000000000E+00 -0.76404875494E+03  0.76404875494E+03  0.00000000000E+00 0. -1.
         25    2    1    2    0    0 -0.17462944435E+03  0.11753196009E+03  0.14102465181E+03  0.28252695355E+03  0.12499729033E+03 0.  0.
          2    1    1    2  501    0  0.86964763437E+01 -0.45771634875E+02 -0.68993705427E+03  0.69150835867E+03  0.00000000000E+00 0. -1.
          1    1    1    2  502    0  0.16593296801E+03 -0.71760325218E+02  0.31706866468E+04  0.31758364420E+04  0.00000000000E+00 0. -1.
         22    1    3    3    0    0 -0.39369934513E+02 -0.20057621965E+02  0.56908152165E+02  0.72047468556E+02  0.00000000000E+00 0.  1.
         22    1    3    3    0    0 -0.13525950984E+03  0.13758958206E+03  0.84116499641E+02  0.21047948500E+03  0.00000000000E+00 0.  1.
</event>
<event>
 7    1  0.6105960E-006  0.1180605E+03  0.7818608E-02  0.1260665E+00
          2   -1    0    0  502    0  0.00000000000E+00  0.00000000000E+00  0.24112722203E+04  0.24112722203E+04  0.00000000000E+00 0. -1.
          1   -1    0    0  501    0 -0.00000000000E+00 -0.00000000000E+00 -0.17200989030E+03  0.17200989030E+03  0.00000000000E+00 0. -1.
         25    2    1    2    0    0 -0.11448168660E+03  0.18547432286E+03  0.12872792200E+03  0.28231600088E+03  0.12499866175E+03 0.  0.
          2    1    1    2  501    0  0.47429959472E+02 -0.90746370603E+02 -0.65686949480E+02  0.12165229207E+03  0.00000000000E+00 0. -1.
          1    1    1    2  502    0  0.67051727132E+02 -0.94727952260E+02  0.21762213574E+04  0.21793138176E+04  0.00000000000E+00 0. -1.
         22    1    3    3    0    0 -0.13005720150E+03  0.16169879289E+03  0.73394402000E+02  0.22010932177E+03  0.00000000000E+00 0.  1.
         22    1    3    3    0    0  0.15575514896E+02  0.23775529971E+02  0.55333520005E+02  0.62206679109E+02  0.00000000000E+00 0.  1.
</event>
<event>
 7    1  0.6105960E-006  0.2132745E+03  0.7818608E-02  0.1219139E+00
          2   -1    0    0  502    0  0.00000000000E+00  0.00000000000E+00  0.12991382205E+04  0.12991382205E+04  0.00000000000E+00 0. -1.
          1   -1    0    0  501    0 -0.00000000000E+00 -0.00000000000E+00 -0.12574070981E+04  0.12574070981E+04  0.00000000000E+00 0. -1.
         25    2    1    2    0    0 -0.28491709958E+03 -0.43432741385E+02  0.28567991495E+03  0.42462016815E+03  0.12500046696E+03 0.  0.
          2    1    1    2  501    0  0.20118616206E+03  0.64857690473E+02 -0.11765195483E+04  0.11953579545E+04  0.00000000000E+00 0. -1.
          1    1    1    2  502    0  0.83730937518E+02 -0.21424949089E+02  0.93257075570E+03  0.93656719605E+03  0.00000000000E+00 0. -1.
         22    1    3    3    0    0 -0.87514304818E+02 -0.71678714625E+02  0.12446675209E+03  0.16819204516E+03  0.00000000000E+00 0. -1.
         22    1    3    3    0    0 -0.19740279476E+03  0.28245973240E+02  0.16121316285E+03  0.25642812299E+03  0.00000000000E+00 0. -1.
</event>
<event>
 7    1  0.6105960E-006  0.4680411E+02  0.7818608E-02  0.1473663E+00
          2   -1    0    0  502    0  0.00000000000E+00  0.00000000000E+00  0.14242357046E+04  0.14242357046E+04  0.00000000000E+00 0. -1.
          1   -1    0    0  501    0 -0.00000000000E+00 -0.00000000000E+00 -0.35349718716E+03  0.35349718716E+03  0.00000000000E+00 0. -1.
         25    2    1    2    0    0 -0.49355659118E+02 -0.32386308675E+02 -0.55678737700E+02  0.14903046966E+03  0.12500041991E+03 0.  0.
          2    1    1    2  501    0  0.41248239874E+02 -0.13735111028E+02 -0.24885960540E+03  0.25262852920E+03  0.00000000000E+00 0. -1.
          1    1    1    2  502    0  0.81074192432E+01  0.46121419703E+02  0.13752768605E+04  0.13760738929E+04  0.00000000000E+00 0. -1.
         22    1    3    3    0    0  0.20021177391E+02  0.30535013011E+02 -0.39838541982E+02  0.54040207170E+02  0.00000000000E+00 0.  1.
         22    1    3    3    0    0 -0.69376836509E+02 -0.62921321686E+02 -0.15840195718E+02  0.94990262485E+02  0.00000000000E+00 0.  1.
</event>
<event>
 7    1  0.6105960E-006  0.1107917E+03  0.7818608E-02  0.1308023E+00
          2   -1    0    0  502    0  0.00000000000E+00  0.00000000000E+00  0.75199940315E+02  0.75199940315E+02  0.00000000000E+00 0. -1.
          1   -1    0    0  501    0 -0.00000000000E+00 -0.00000000000E+00 -0.17159962163E+04  0.17159962163E+04  0.00000000000E+00 0. -1.
         25    2    1    2    0    0 -0.19516025107E+01 -0.68879581315E+02 -0.69239249607E+03  0.70695214094E+03  0.12500302188E+03 0.  0.
          2    1    1    2  501    0  0.10232423494E+02  0.13812152987E+03 -0.99225025750E+03  0.10018696687E+04  0.00000000000E+00 0. -1.
          1    1    1    2  502    0 -0.82808209836E+01 -0.69241948551E+02  0.43846477636E+02  0.82374346956E+02  0.00000000000E+00 0. -1.
         22    1    3    3    0    0 -0.14607105444E+02 -0.45621371571E+02 -0.75002929321E+02  0.88995036268E+02  0.00000000000E+00 0.  1.
         22    1    3    3    0    0  0.12655502933E+02 -0.23258209744E+02 -0.61738956675E+03  0.61795710467E+03  0.00000000000E+00 0.  1.
</event>
<event>
 7    1  0.6105960E-006  0.8404907E+02  0.7818608E-02  0.1373760E+00
          2   -1    0    0  502    0  0.00000000000E+00  0.00000000000E+00  0.10217523996E+04  0.10217523996E+04  0.00000000000E+00 0. -1.
          1   -1    0    0  501    0 -0.00000000000E+00 -0.00000000000E+00 -0.14622524853E+03  0.14622524853E+03  0.00000000000E+00 0. -1.
         25    2    1    2    0    0  0.40126425650E+02 -0.41871973510E+02  0.63530692113E+02  0.15173026134E+03  0.12499012427E+03 0.  0.
          2    1    1    2  501    0 -0.17555624545E+02  0.88757682849E+02 -0.81179132194E+02  0.12155730221E+03  0.00000000000E+00 0. -1.
          1    1    1    2  502    0 -0.22570801104E+02 -0.46885709339E+02  0.89317559112E+03  0.89469008454E+03  0.00000000000E+00 0. -1.
         22    1    3    3    0    0 -0.21771281686E+02 -0.90291361305E+01  0.76868648388E+02  0.80400889985E+02  0.00000000000E+00 0. -1.
         22    1    3    3    0    0  0.61897707335E+02 -0.32842837379E+02 -0.13337956274E+02  0.71329371356E+02  0.00000000000E+00 0. -1.
</event>
<event>
 7    1  0.6105960E-006  0.1157076E+03  0.7818608E-02  0.1375116E+00
          2   -1    0    0  502    0  0.00000000000E+00  0.00000000000E+00  0.12247559353E+03  0.12247559353E+03  0.00000000000E+00 0. -1.
          1   -1    0    0  501    0 -0.00000000000E+00 -0.00000000000E+00 -0.60996479917E+03  0.60996479917E+03  0.00000000000E+00 0. -1.
         25    2    1    2    0    0  0.78087485482E+02 -0.10055689795E+03 -0.38258569849E+03  0.42214527891E+03  0.12500189879E+03 0.  0.
          2    1    1    2  501    0 -0.36731868981E+02 -0.69270052031E+01 -0.17267102779E+03  0.17667059019E+03  0.00000000000E+00 0. -1.
          1    1    1    2  502    0 -0.41355616501E+02  0.10748390316E+03  0.67767520640E+02  0.13362452360E+03  0.00000000000E+00 0. -1.
         22    1    3    3    0    0 -0.75309969659E+00 -0.45671101805E+02 -0.25394680472E+02  0.52261902907E+02  0.00000000000E+00 0.  1.
         22    1    3    3    0    0  0.78840585178E+02 -0.54885796149E+02 -0.35719101801E+03  0.36988337600E+03  0.00000000000E+00 0.  1.
</event>
<event>
 7    1  0.6105960E-006  0.7052054E+02  0.7818608E-02  0.1492514E+00
          2   -1    0    0  502    0  0.00000000000E+00  0.00000000000E+00  0.64068067709E+03  0.64068067709E+03  0.00000000000E+00 0. -1.
          1   -1    0    0  501    0 -0.00000000000E+00 -0.00000000000E+00 -0.48007558541E+02  0.48007558541E+02  0.00000000000E+00 0. -1.
         25    2    1    2    0    0 -0.30965117299E+02 -0.67478926362E+02  0.34239854396E+03  0.37198157248E+03  0.12498513258E+03 0.  0.
          2    1    1    2  501    0  0.49484532668E+02  0.50283926233E+02  0.56444118202E+01  0.70774653624E+02  0.00000000000E+00 0. -1.
          1    1    1    2  502    0 -0.18519415369E+02  0.17195000129E+02  0.24463016277E+03  0.24593200953E+03  0.00000000000E+00 0. -1.
         22    1    3    3    0    0 -0.63000592630E+02 -0.35719857469E+02  0.30471354245E+03  0.31320173345E+03  0.00000000000E+00 0.  1.
         22    1    3    3    0    0  0.32035475331E+02 -0.31759068893E+02  0.37685001517E+02  0.58779839026E+02  0.00000000000E+00 0.  1.
</event>
<event>
 7    1  0.6105960E-006  0.8183299E+02  0.7818608E-02  0.1353121E+00
          2   -1    0    0  502    0  0.00000000000E+00  0.00000000000E+00  0.12021123955E+03  0.12021123955E+03  0.00000000000E+00 0. -1.
          1   -1    0    0  501    0 -0.00000000000E+00 -0.00000000000E+00 -0.15276606495E+04  0.15276606495E+04  0.00000000000E+00 0. -1.
         25    2    1    2    0    0 -0.11660181281E+03 -0.71410411672E+02 -0.19035979524E+03  0.26562719416E+03  0.12500209993E+03 0.  0.
          2    1    1    2  501    0  0.42974519615E+02  0.46762434772E+02 -0.12804534642E+04  0.12820275382E+04  0.00000000000E+00 0. -1.
          1    1    1    2  502    0  0.73627293197E+02  0.24647976900E+02  0.63363849522E+02  0.10021715669E+03  0.00000000000E+00 0. -1.
         22    1    3    3    0    0 -0.32356983743E+02 -0.83189388641E+02 -0.14214997678E+03  0.16785131718E+03  0.00000000000E+00 0.  1.
         22    1    3    3    0    0 -0.84244829069E+02  0.11778976969E+02 -0.48209818457E+02  0.97775876979E+02  0.00000000000E+00 0.  1.
</event>
<event>
 7    1  0.8024720E-006  0.6474809E+02  0.7818608E-02  0.1384920E+00
          2   -1    0    0  502    0  0.00000000000E+00  0.00000000000E+00  0.61594591340E+03  0.61594591340E+03  0.00000000000E+00 0. -1.
          1   -1    0    0  501    0 -0.00000000000E+00 -0.00000000000E+00 -0.16503535874E+04  0.16503535874E+04  0.00000000000E+00 0. -1.
         25    2    1    2    0    0 -0.97235327348E+02  0.80345404099E+02 -0.53444134227E+03  0.56317209669E+03  0.12500067728E+03 0.  0.
          2    1    1    2  501    0  0.46031338772E+02 -0.41033626863E+02 -0.10989481935E+04  0.11006769620E+04  0.00000000000E+00 0. -1.
          1    1    1    2  502    0  0.51203988576E+02 -0.39311777237E+02  0.59898186185E+03  0.60245044203E+03  0.00000000000E+00 0. -1.
         22    1    3    3    0    0  0.13798133823E+02 -0.11656796728E+02 -0.13251303939E+02  0.22402376281E+02  0.00000000000E+00 0. -1.
         22    1    3    3    0    0 -0.11103346117E+03  0.92002200827E+02 -0.52119003833E+03  0.54076972041E+03  0.00000000000E+00 0. -1.
</event>
<event>
 7    1  0.6105960E-006  0.9823757E+02  0.7818608E-02  0.1359630E+00
          2   -1    0    0  502    0  0.00000000000E+00  0.00000000000E+00  0.29632319823E+04  0.29632319823E+04  0.00000000000E+00 0. -1.
          1   -1    0    0  501    0 -0.00000000000E+00 -0.00000000000E+00 -0.24761517030E+04  0.24761517030E+04  0.00000000000E+00 0. -1.
         25    2    1    2    0    0  0.71186663759E+02 -0.33082864558E+02 -0.27906505580E+03  0.31569654413E+03  0.12499994233E+03 0.  0.
          2    1    1    2  501    0 -0.58184236957E+02  0.81438642314E+02 -0.21774083919E+04  0.21797075407E+04  0.00000000000E+00 0. -1.
          1    1    1    2  502    0 -0.13002426802E+02 -0.48355777756E+02  0.29435537270E+04  0.29439796005E+04  0.00000000000E+00 0. -1.
         22    1    3    3    0    0  0.70995724566E+02  0.21331299577E+01 -0.27020239152E+03  0.27938195277E+03  0.00000000000E+00 0. -1.
         22    1    3    3    0    0  0.19093919314E+00 -0.35215994516E+02 -0.88626642813E+01  0.36314591361E+02  0.00000000000E+00 0. -1.
</event>
<event>
 7    1  0.6105960E-006  0.2098267E+03  0.7818608E-02  0.1170046E+00
          2   -1    0    0  502    0  0.00000000000E+00  0.00000000000E+00  0.29384596030E+04  0.29384596030E+04  0.00000000000E+00 0. -1.
          1   -1    0    0  501    0 -0.00000000000E+00 -0.00000000000E+00 -0.56626590776E+03  0.56626590776E+03  0.00000000000E+00 0. -1.
         25    2    1    2    0    0  0.12022857447E+03 -0.54103198540E+02  0.36563758921E+03  0.40828714872E+03  0.12500193182E+03 0.  0.
          2    1    1    2  501    0 -0.82417670364E+02  0.19977180549E+03 -0.52118971845E+03  0.56421642060E+03  0.00000000000E+00 0. -1.
          1    1    1    2  502    0 -0.37810904109E+02 -0.14566860695E+03  0.25277458244E+04  0.25322219414E+04  0.00000000000E+00 0. -1.
         22    1    3    3    0    0  0.13004996948E+03 -0.54048180302E+02  0.21309328888E+03  0.25542699568E+03  0.00000000000E+00 0. -1.
         22    1    3    3    0    0 -0.98213950026E+01 -0.55018237248E-01  0.15254430032E+03  0.15286015304E+03  0.00000000000E+00 0. -1.
</event>
<event>
 7    1  0.6105960E-006  0.2547678E+03  0.7818608E-02  0.1202088E+00
          2   -1    0    0  502    0  0.00000000000E+00  0.00000000000E+00  0.11400527365E+04  0.11400527365E+04  0.00000000000E+00 0. -1.
          1   -1    0    0  501    0 -0.00000000000E+00 -0.00000000000E+00 -0.28415921018E+03  0.28415921018E+03  0.00000000000E+00 0. -1.
         25    2    1    2    0    0 -0.35750876534E+02 -0.27329986216E+03  0.94752467614E+02  0.31713369823E+03  0.12499925040E+03 0.  0.
          2    1    1    2  501    0 -0.74187867433E+02  0.45029240162E+02 -0.14345891627E+03  0.16766613493E+03  0.00000000000E+00 0. -1.
          1    1    1    2  502    0  0.10993874397E+03  0.22827062200E+03  0.90459997497E+03  0.93941211352E+03  0.00000000000E+00 0. -1.
         22    1    3    3    0    0  0.37553985607E+02 -0.33827823049E+02  0.37887217374E+01  0.50685085179E+02  0.00000000000E+00 0.  1.
         22    1    3    3    0    0 -0.73304862141E+02 -0.23947203912E+03  0.90963745876E+02  0.26644861305E+03  0.00000000000E+00 0.  1.
</event>
<event>
 7    1  0.6105960E-006  0.8752156E+02  0.7818608E-02  0.1332368E+00
          2   -1    0    0  502    0  0.00000000000E+00  0.00000000000E+00  0.89413171561E+03  0.89413171561E+03  0.00000000000E+00 0. -1.
          1   -1    0    0  501    0 -0.00000000000E+00 -0.00000000000E+00 -0.11107124545E+04  0.11107124545E+04  0.00000000000E+00 0. -1.
         25    2    1    2    0    0  0.64214834951E+00  0.13639109620E+03  0.25186875545E+03  0.31251840821E+03  0.12500776785E+03 0.  0.
          2    1    1    2  501    0 -0.40284998150E+02 -0.77459706184E+02 -0.10765534985E+04  0.10800881086E+04  0.00000000000E+00 0. -1.
          1    1    1    2  502    0  0.39642849800E+02 -0.58931390012E+02  0.60810400416E+03  0.61223765332E+03  0.00000000000E+00 0. -1.
         22    1    3    3    0    0  0.28453216908E+01  0.49454440245E+02  0.21043680656E+03  0.21618854519E+03  0.00000000000E+00 0. -1.
         22    1    3    3    0    0 -0.22031733413E+01  0.86936655951E+02  0.41431948887E+02  0.96329863019E+02  0.00000000000E+00 0. -1.
</event>
<event>
 7    1  0.6105960E-006  0.1108858E+03  0.7818608E-02  0.1286377E+00
          2   -1    0    0  502    0  0.00000000000E+00  0.00000000000E+00  0.74715446837E+03  0.74715446837E+03  0.00000000000E+00 0. -1.
          1   -1    0    0  501    0 -0.00000000000E+00 -0.00000000000E+00 -0.46788232999E+02  0.46788232999E+02  0.00000000000E+00 0. -1.
         25    2    1    2    0    0  0.12160379830E+02 -0.46144139072E+02  0.21637709064E+03  0.25440366620E+03  0.12500009447E+03 0.  0.
          2    1    1    2  501    0 -0.10608997198E+03 -0.32257876066E+02  0.17459064033E+03  0.20682732995E+03  0.00000000000E+00 0. -1.
          1    1    1    2  502    0  0.93929592150E+02  0.78402015137E+02  0.30939850441E+03  0.33271170522E+03  0.00000000000E+00 0. -1.
         22    1    3    3    0    0  0.27823443608E+02  0.26047786874E+02  0.16908637628E+02  0.41695722103E+02  0.00000000000E+00 0. -1.
         22    1    3    3    0    0 -0.15663063778E+02 -0.72191925945E+02  0.19946845301E+03  0.21270794410E+03  0.00000000000E+00 0. -1.
</event>
<event>
 7    1  0.6105960E-006  0.8049101E+02  0.7818608E-02  0.1341770E+00
          2   -1    0    0  502    0  0.00000000000E+00  0.00000000000E+00  0.33401602870E+03  0.33401602870E+03  0.00000000000E+00 0. -1.
          1   -1    0    0  501    0 -0.00000000000E+00 -0.00000000000E+00 -0.84723012865E+03  0.84723012865E+03  0.00000000000E+00 0. -1.
         25    2    1    2    0    0  0.70413357150E+01 -0.54768667102E+02 -0.59795340561E+00  0.13665749303E+03  0.12500290216E+03 0.  0.
          2    1    1    2  501    0  0.64041891223E+02  0.51424808712E+02 -0.77162397919E+03  0.77598288644E+03  0.00000000000E+00 0. -1.
          1    1    1    2  502    0 -0.71083226938E+02  0.33438583895E+01  0.25900783265E+03  0.26860577789E+03  0.00000000000E+00 0. -1.
         22    1    3    3    0    0 -0.16550445806E+02 -0.69807977531E+02 -0.44627614450E+02  0.84490798048E+02  0.00000000000E+00 0. -1.
         22    1    3    3    0    0  0.23591781521E+02  0.15039310429E+02  0.44029661044E+02  0.52166694981E+02  0.00000000000E+00 0. -1.
</event>
<event>
 7    1  0.6105960E-006  0.3067799E+02  0.7818608E-02  0.1645365E+00
          2   -1    0    0  502    0  0.00000000000E+00  0.00000000000E+00  0.18725556876E+04  0.18725556876E+04  0.00000000000E+00 0. -1.
          1   -1    0    0  501    0 -0.00000000000E+00 -0.00000000000E+00 -0.36092783369E+03  0.36092783369E+03  0.00000000000E+00 0. -1.
         25    2    1    2    0    0  0.36986784986E+02 -0.20116047095E+02  0.68112328155E+03  0.69377701098E+03  0.12499975470E+03 0.  0.
          2    1    1    2  501    0 -0.21394066814E+02 -0.60965232306E+01 -0.35405558922E+03  0.35475376523E+03  0.00000000000E+00 0. -1.
          1    1    1    2  502    0 -0.15592718172E+02  0.26212570326E+02  0.11845601616E+04  0.11849527451E+04  0.00000000000E+00 0. -1.
         22    1    3    3    0    0  0.12348013689E+02 -0.71345682425E+02  0.31126645891E+03  0.31957704593E+03  0.00000000000E+00 0. -1.
         22    1    3    3    0    0  0.24638771297E+02  0.51229635330E+02  0.36985682264E+03  0.37419996505E+03  0.00000000000E+00 0. -1.
</event>
<event>
 7    1  0.6105960E-006  0.9808212E+02  0.7818608E-02  0.1303972E+00
          2   -1    0    0  502    0  0.00000000000E+00  0.00000000000E+00  0.12499777641E+03  0.12499777641E+03  0.00000000000E+00 0. -1.
          1   -1    0    0  501    0 -0.00000000000E+00 -0.00000000000E+00 -0.91784188988E+03  0.91784188988E+03  0.00000000000E+00 0. -1.
         25    2    1    2    0    0 -0.43239110147E+02 -0.18558663946E+02 -0.57749920196E+03  0.59274315066E+03  0.12500027893E+03 0.  0.
          2    1    1    2  501    0  0.19490923737E+02 -0.79381818219E+02 -0.30466066163E+03  0.31543539421E+03  0.00000000000E+00 0. -1.
          1    1    1    2  502    0  0.23748186410E+02  0.97940482165E+02  0.89315750121E+02  0.13466112143E+03  0.00000000000E+00 0. -1.
         22    1    3    3    0    0  0.18287593070E+02 -0.38011247101E+02 -0.42587571379E+03  0.42795959455E+03  0.00000000000E+00 0.  1.
         22    1    3    3    0    0 -0.61526703217E+02  0.19452583155E+02 -0.15162348817E+03  0.16478355611E+03  0.00000000000E+00 0.  1.
</event>
<event>
 7    1  0.6105960E-006  0.9448582E+02  0.7818608E-02  0.1367755E+00
          2   -1    0    0  502    0  0.00000000000E+00  0.00000000000E+00  0.51129652595E+04  0.51129652595E+04  0.00000000000E+00 0. -1.
          1   -1    0    0  501    0 -0.00000000000E+00 -0.00000000000E+00 -0.66281601847E+02  0.66281601847E+02  0.00000000000E+00 0. -1.
         25    2    1    2    0    0  0.12431562963E+03 -0.68843354929E+02  0.18320877224E+04  0.18418372664E+04  0.12500124010E+03 0.  0.
          2    1    1    2  501    0 -0.80594930483E+02  0.47518138546E+02 -0.25480604583E+02  0.96967920058E+02  0.00000000000E+00 0. -1.
          1    1    1    2  502    0 -0.43720699150E+02  0.21325216383E+02  0.32400765399E+04  0.32404416749E+04  0.00000000000E+00 0. -1.
         22    1    3    3    0    0 -0.16676223682E+02  0.40901622945E+01  0.53682455946E+02  0.56361617615E+02  0.00000000000E+00 0. -1.
         22    1    3    3    0    0  0.14099185332E+03 -0.72933517224E+02  0.17784052664E+04  0.17854756488E+04  0.00000000000E+00 0. -1.
</event>
<event>
 7    1  0.6105960E-006  0.5866122E+02  0.7818608E-02  0.1518689E+00
          2   -1    0    0  502    0  0.00000000000E+00  0.00000000000E+00  0.29966079898E+03  0.29966079898E+03  0.00000000000E+00 0. -1.
          1   -1    0    0  501    0 -0.00000000000E+00 -0.00000000000E+00 -0.19494064835E+03  0.19494064835E+03  0.00000000000E+00 0. -1.
         25    2    1    2    0    0  0.39332913657E+02  0.62107857421E+02  0.14041273498E+02  0.14569255935E+03  0.12499880175E+03 0.  0.
          2    1    1    2  501    0 -0.24694753933E+02 -0.60026868205E+01 -0.12397937553E+03  0.12655729405E+03  0.00000000000E+00 0. -1.
          1    1    1    2  502    0 -0.14638159723E+02 -0.56105170601E+02  0.21465825266E+03  0.22235159393E+03  0.00000000000E+00 0. -1.
         22    1    3    3    0    0  0.69829121731E+02 -0.61759091173E+01  0.98568892488E+01  0.70791287323E+02  0.00000000000E+00 0.  1.
         22    1    3    3    0    0 -0.30496208075E+02  0.68283766538E+02  0.41843842489E+01  0.74901272026E+02  0.00000000000E+00 0.  1.
</event>
<event>
 7    1  0.6105960E-006  0.9082822E+02  0.7818608E-02  0.1345283E+00
          2   -1    0    0  502    0  0.00000000000E+00  0.00000000000E+00  0.11177226995E+04  0.11177226995E+04  0.00000000000E+00 0. -1.
          1   -1    0    0  501    0 -0.00000000000E+00 -0.00000000000E+00 -0.20892950356E+03  0.20892950356E+03  0.00000000000E+00 0. -1.
         25    2    1    2    0    0 -0.14402057279E+02 -0.11150282444E+03  0.10777716136E+03  0.19970282853E+03  0.12500001641E+03 0.  0.
          2    1    1    2  501    0  0.58413137000E+02  0.69001984323E+02 -0.14936846263E+03  0.17459755452E+03  0.00000000000E+00 0. -1.
          1    1    1    2  502    0 -0.44011079721E+02  0.42500840112E+02  0.95038449720E+03  0.95235182001E+03  0.00000000000E+00 0. -1.
         22    1    3    3    0    0 -0.57422667336E+02 -0.11052676786E+03  0.86915064208E+02  0.15188073454E+03  0.00000000000E+00 0. -1.
         22    1    3    3    0    0  0.43020610057E+02 -0.97605657337E+00  0.20862097152E+02  0.47822093991E+02  0.00000000000E+00 0. -1.
</event>
<event>
 7    1  0.6105960E-006  0.8366371E+02  0.7818608E-02  0.1416310E+00
          2   -1    0    0  502    0  0.00000000000E+00  0.00000000000E+00  0.10482947486E+04  0.10482947486E+04  0.00000000000E+00 0. -1.
          1   -1    0    0  501    0 -0.00000000000E+00 -0.00000000000E+00 -0.26126281780E+04  0.26126281780E+04  0.00000000000E+00 0. -1.
         25    2    1    2    0    0 -0.63611853151E+02 -0.83902449165E+02  0.20202519297E+03  0.25985544169E+03  0.12499833256E+03 0.  0.
          2    1    1    2  501    0  0.69101970476E+02  0.47080879429E+02 -0.25826121561E+04  0.25839654101E+04  0.00000000000E+00 0. -1.
          1    1    1    2  502    0 -0.54901173255E+01  0.36821569736E+02  0.81625353377E+03  0.81710207488E+03  0.00000000000E+00 0. -1.
         22    1    3    3    0    0 -0.50264737779E+02 -0.14719009674E+02  0.74335680609E+01  0.52900387937E+02  0.00000000000E+00 0. -1.
         22    1    3    3    0    0 -0.13347115372E+02 -0.69183439491E+02  0.19459162491E+03  0.20695505375E+03  0.00000000000E+00 0. -1.
</event>
<event>
 7    1  0.6105960E-006  0.1333746E+03  0.7818608E-02  0.1326196E+00
          2   -1    0    0  502    0  0.00000000000E+00  0.00000000000E+00  0.25472924343E+03  0.25472924343E+03  0.00000000000E+00 0. -1.
          1   -1    0    0  501    0 -0.00000000000E+00 -0.00000000000E+00 -0.38902279128E+03  0.38902279128E+03  0.00000000000E+00 0. -1.
         25    2    1    2    0    0 -0.11177841328E+03 -0.45694249560E+01  0.12767000629E+02  0.16824074357E+03  0.12500663251E+03 0.  0.
          2    1    1    2  501    0 -0.23814045073E+02 -0.43064222146E+02 -0.27725694932E+03  0.28159021986E+03  0.00000000000E+00 0. -1.
          1    1    1    2  502    0  0.13559245835E+03  0.47633647102E+02  0.13019640084E+03  0.19392107128E+03  0.00000000000E+00 0. -1.
         22    1    3    3    0    0 -0.10565905216E+03  0.31595115866E+02  0.45290232840E+02  0.11921951116E+03  0.00000000000E+00 0. -1.
         22    1    3    3    0    0 -0.61193611156E+01 -0.36164540822E+02 -0.32523232211E+02  0.49021232408E+02  0.00000000000E+00 0. -1.
</event>
<event>
 7    1  0.6105960E-006  0.5157595E+02  0.7818608E-02  0.1516995E+00
          2   -1    0    0  502    0  0.00000000000E+00  0.00000000000E+00  0.23186529169E+04  0.23186529169E+04  0.00000000000E+00 0. -1.
          1   -1    0    0  501    0 -0.00000000000E+00 -0.00000000000E+00 -0.55492524194E+01  0.55492524194E+01  0.00000000000E+00 0. -1.
         25    2    1    2    0    0  0.17339796384E+02  0.68634837395E+02  0.12448411861E+04  0.12531024498E+04  0.12499904645E+03 0.  0.
          2    1    1    2  501    0  0.86906517329E+01 -0.27913713930E+02  0.35505333114E+03  0.35625492390E+03  0.00000000000E+00 0. -1.
          1    1    1    2  502    0 -0.26030448117E+02 -0.40721123465E+02  0.71320914723E+03  0.71484479562E+03  0.00000000000E+00 0. -1.
         22    1    3    3    0    0  0.23783615338E+02  0.59936400223E+02  0.24936297481E+03  0.25756538128E+03  0.00000000000E+00 0. -1.
         22    1    3    3    0    0 -0.64438189535E+01  0.86984371720E+01  0.99547821131E+03  0.99553706852E+03  0.00000000000E+00 0. -1.
</event>
<event>
 7    1  0.6105960E-006  0.8457090E+02  0.7818608E-02  0.1440886E+00
          2   -1    0    0  502    0  0.00000000000E+00  0.00000000000E+00  0.53021905786E+03  0.53021905786E+03  0.00000000000E+00 0. -1.
          1   -1    0    0  501    0 -0.00000000000E+00 -0.00000000000E+00 -0.30901511597E+03  0.30901511597E+03  0.00000000000E+00 0. -1.
         25    2    1    2    0    0  0.76026988286E+02  0.77706876857E+02  0.15561910658E+03  0.22728919613E+03  0.12499844274E+03 0.  0.
          2    1    1    2  501    0 -0.46533229408E+02 -0.69715170117E+02 -0.26603163682E+03  0.27892360634E+03  0.00000000000E+00 0. -1.
          1    1    1    2  502    0 -0.29493758878E+02 -0.79917067399E+01  0.33161647213E+03  0.33302137136E+03  0.00000000000E+00 0. -1.
         22    1    3    3    0    0  0.86550243481E+02  0.12463901216E+02  0.44775971817E+02  0.98240425143E+02  0.00000000000E+00 0.  1.
         22    1    3    3    0    0 -0.10523255195E+02  0.65242975640E+02  0.11084313476E+03  0.12904877099E+03  0.00000000000E+00 0.  1.
</event>
<event>
 7    1  0.6105960E-006  0.5392069E+02  0.7818608E-02  0.1525231E+00
          2   -1    0    0  502    0  0.00000000000E+00  0.00000000000E+00  0.60425629724E+03  0.60425629724E+03  0.00000000000E+00 0. -1.
          1   -1    0    0  501    0 -0.00000000000E+00 -0.00000000000E+00 -0.12104137905E+03  0.12104137905E+03  0.00000000000E+00 0. -1.
         25    2    1    2    0    0 -0.87561093919E+01 -0.56617045170E+02 -0.15637118373E+02  0.13835181257E+03  0.12495817426E+03 0.  0.
          2    1    1    2  501    0  0.31996777419E+02  0.43951387027E+02 -0.26811348859E+02  0.60616553964E+02  0.00000000000E+00 0. -1.
          1    1    1    2  502    0 -0.23240668027E+02  0.12665658143E+02  0.52566338542E+03  0.52632930976E+03  0.00000000000E+00 0. -1.
         22    1    3    3    0    0 -0.84157535129E+01  0.37285217669E+02 -0.22230521656E+02  0.44217739165E+02  0.00000000000E+00 0. -1.
         22    1    3    3    0    0 -0.34035587892E+00 -0.93902262839E+02  0.65934032826E+01  0.94134073402E+02  0.00000000000E+00 0. -1.
</event>
<event>
 7    1  0.8194249E-006  0.9582312E+02  0.7818608E-02  0.1321280E+00
          2   -1    0    0  502    0  0.00000000000E+00  0.00000000000E+00  0.22794521072E+04  0.22794521072E+04  0.00000000000E+00 0. -1.
          1   -1    0    0  501    0 -0.00000000000E+00 -0.00000000000E+00 -0.16577843922E+04  0.16577843922E+04  0.00000000000E+00 0. -1.
         25    2    1    2    0    0  0.12397708376E+03 -0.58295312357E+02 -0.11792852198E+03  0.21980207098E+03  0.12504860403E+03 0.  0.
          2    1    1    2  501    0 -0.68747803628E+02 -0.19835549144E+02 -0.14870314744E+04  0.14887519321E+04  0.00000000000E+00 0. -1.
          1    1    1    2  502    0 -0.55229280135E+02  0.78130861501E+02  0.22266277113E+04  0.22286824964E+04  0.00000000000E+00 0. -1.
         22    1    3    3    0    0 -0.43744866913E+01 -0.49285895769E+02 -0.71052653812E+01  0.49987202880E+02  0.00000000000E+00 0. -1.
         22    1    3    3    0    0  0.12835157045E+03 -0.90094165879E+01 -0.11082325660E+03  0.16981486810E+03  0.00000000000E+00 0. -1.
</event>
<event>
 7    1  0.6105960E-006  0.9577089E+02  0.7818608E-02  0.1453205E+00
          2   -1    0    0  502    0  0.00000000000E+00  0.00000000000E+00  0.21591220717E+04  0.21591220717E+04  0.00000000000E+00 0. -1.
          1   -1    0    0  501    0 -0.00000000000E+00 -0.00000000000E+00 -0.28784657789E+03  0.28784657789E+03  0.00000000000E+00 0. -1.
         25    2    1    2    0    0 -0.53542986531E+02 -0.10122313021E+03 -0.23626177202E+02  0.17115613198E+03  0.12499300688E+03 0.  0.
          2    1    1    2  501    0 -0.33243519984E+01  0.24407830956E+02 -0.18855881677E+03  0.19016103941E+03  0.00000000000E+00 0. -1.
          1    1    1    2  502    0  0.56867338529E+02  0.76815299254E+02  0.20834604878E+04  0.20856514782E+04  0.00000000000E+00 0. -1.
         22    1    3    3    0    0  0.23615816512E+02 -0.56737065913E+02  0.28733335110E+02  0.67841034666E+02  0.00000000000E+00 0.  1.
         22    1    3    3    0    0 -0.77158803043E+02 -0.44486064297E+02 -0.52359512311E+02  0.10331509731E+03  0.00000000000E+00 0.  1.
</event>
<event>
 7    1  0.6105960E-006  0.8086046E+02  0.7818608E-02  0.1407334E+00
          2   -1    0    0  502    0  0.00000000000E+00  0.00000000000E+00  0.41848043431E+03  0.41848043431E+03  0.00000000000E+00 0. -1.
          1   -1    0    0  501    0 -0.00000000000E+00 -0.00000000000E+00 -0.14455209124E+04  0.14455209124E+04  0.00000000000E+00 0. -1.
         25    2    1    2    0    0 -0.14123881725E+02 -0.69096295376E+02  0.24055979522E+02  0.14553794073E+03  0.12501527896E+03 0.  0.
          2    1    1    2  501    0 -0.26476113362E+02  0.76700645958E+02 -0.13823073272E+04  0.13846867951E+04  0.00000000000E+00 0. -1.
          1    1    1    2  502    0  0.40599995087E+02 -0.76043505824E+01  0.33121086966E+03  0.33377661082E+03  0.00000000000E+00 0. -1.
         22    1    3    3    0    0  0.39773052028E+02 -0.61366801739E+02 -0.19644770913E+02  0.75721179649E+02  0.00000000000E+00 0. -1.
         22    1    3    3    0    0 -0.53896933753E+02 -0.77294936371E+01  0.43700750436E+02  0.69816761086E+02  0.00000000000E+00 0. -1.
</event>
<event>
 7    1  0.6105960E-006  0.7770183E+02  0.7818608E-02  0.1403037E+00
          2   -1    0    0  502    0  0.00000000000E+00  0.00000000000E+00  0.21121135197E+02  0.21121135197E+02  0.00000000000E+00 0. -1.
          1   -1    0    0  501    0 -0.00000000000E+00 -0.00000000000E+00 -0.25777137178E+04  0.25777137178E+04  0.00000000000E+00 0. -1.
         25    2    1    2    0    0  0.72221758720E+02 -0.36209003323E+02 -0.63857496604E+03  0.65569036694E+03  0.12499918276E+03 0.  0.
          2    1    1    2  501    0 -0.31314300274E+02 -0.31563060343E+02 -0.18028292573E+04  0.18033774267E+04  0.00000000000E+00 0. -1.
          1    1    1    2  502    0 -0.40907458446E+02  0.67772063666E+02 -0.11518835927E+03  0.13976705935E+03  0.00000000000E+00 0. -1.
         22    1    3    3    0    0 -0.23691265335E+01  0.80526587429E+01 -0.42625531145E+03  0.42633795117E+03  0.00000000000E+00 0.  1.
         22    1    3    3    0    0  0.74590885254E+02 -0.44261662065E+02 -0.21231965459E+03  0.22935241577E+03  0.00000000000E+00 0.  1.
</event>
<event>
 7    1  0.6105960E-006  0.6336608E+02  0.7818608E-02  0.1434705E+00
          2   -1    0    0  502    0  0.00000000000E+00  0.00000000000E+00  0.28663684386E+04  0.28663684386E+04  0.00000000000E+00 0. -1.
          1   -1    0    0  501    0 -0.00000000000E+00 -0.00000000000E+00 -0.83017275936E+02  0.83017275936E+02  0.00000000000E+00 0. -1.
         25    2    1    2    0    0 -0.36804573169E+02 -0.14931874886E+02  0.88330746069E+02  0.15813206223E+03  0.12500356359E+03 0.  0.
          2    1    1    2  501    0  0.80771012608E+01 -0.41946421432E+02 -0.38190704853E+02  0.57299840950E+02  0.00000000000E+00 0. -1.
          1    1    1    2  502    0  0.28727471908E+02  0.56878296318E+02  0.27332111214E+04  0.27339538113E+04  0.00000000000E+00 0. -1.
         22    1    3    3    0    0 -0.23209305276E+02 -0.43408526178E+00 -0.30118970367E+02  0.38026473112E+02  0.00000000000E+00 0. -1.
         22    1    3    3    0    0 -0.13595267894E+02 -0.14497789625E+02  0.11844971644E+03  0.12010558912E+03  0.00000000000E+00 0. -1.
</event>
<event>
 7    1  0.6105960E-006  0.9148347E+02  0.7818608E-02  0.1303337E+00
          2   -1    0    0  502    0  0.00000000000E+00  0.00000000000E+00  0.93088139138E+03  0.93088139138E+03  0.00000000000E+00 0. -1.
          1   -1    0    0  501    0 -0.00000000000E+00 -0.00000000000E+00 -0.11003009830E+04  0.11003009830E+04  0.00000000000E+00 0. -1.
         25    2    1    2    0    0 -0.54715683726E+02 -0.59057201065E+02  0.21731653434E+03  0.26331108035E+03  0.12499875959E+03 0.  0.
          2    1    1    2  501    0  0.80488298389E+02 -0.35938613041E+02 -0.10719780752E+04  0.10755960876E+04  0.00000000000E+00 0. -1.
          1    1    1    2  502    0 -0.25772614663E+02  0.94995814106E+02  0.68524194924E+03  0.69227520638E+03  0.00000000000E+00 0. -1.
         22    1    3    3    0    0  0.68842186533E+01 -0.82356366312E+02  0.11448967808E+03  0.14120145157E+03  0.00000000000E+00 0. -1.
         22    1    3    3    0    0 -0.61599902379E+02  0.23299165247E+02  0.10282685626E+03  0.12210962879E+03  0.00000000000E+00 0. -1.
</event>
<event>
 7    1  0.6105960E-006  0.4697507E+02  0.7818608E-02  0.1472468E+00
          2   -1    0    0  502    0  0.00000000000E+00  0.00000000000E+00  0.53695813447E+03  0.53695813447E+03  0.00000000000E+00 0. -1.
          1   -1    0    0  501    0 -0.00000000000E+00 -0.00000000000E+00 -0.19920334442E+03  0.19920334442E+03  0.00000000000E+00 0. -1.
         25    2    1    2    0    0  0.40229736734E+02 -0.44585563404E+00  0.32066872013E+01  0.13135747915E+03  0.12500349588E+03 0.  0.
          2    1    1    2  501    0 -0.25297481158E+02  0.41502309579E+02 -0.12969831212E+03  0.13850652122E+03  0.00000000000E+00 0. -1.
          1    1    1    2  502    0 -0.14932255576E+02 -0.41056453945E+02  0.46424641496E+03  0.46629747852E+03  0.00000000000E+00 0. -1.
         22    1    3    3    0    0 -0.34555942442E+02  0.34350095273E+02  0.37878171076E+01  0.48871154701E+02  0.00000000000E+00 0. -1.
         22    1    3    3    0    0  0.74785679177E+02 -0.34795950907E+02 -0.58112990629E+00  0.82486324451E+02  0.00000000000E+00 0. -1.
</event>
<event>
 7    1  0.6105960E-006  0.7801398E+02  0.7818608E-02  0.1485131E+00
          2   -1    0    0  502    0  0.00000000000E+00  0.00000000000E+00  0.62877198794E+03  0.62877198794E+03  0.00000000000E+00 0. -1.
          1   -1    0    0  501    0 -0.00000000000E+00 -0.00000000000E+00 -0.48400811166E+03  0.48400811166E+03  0.00000000000E+00 0. -1.
         25    2    1    2    0    0 -0.53057625982E+01  0.61351768522E+02 -0.16475294530E+02  0.14031706903E+03  0.12500101565E+03 0.  0.
          2    1    1    2  501    0 -0.20207808729E+02  0.13042992679E+02 -0.40252322150E+03  0.40324114255E+03  0.00000000000E+00 0. -1.
          1    1    1    2  502    0  0.25513571327E+02 -0.74394761201E+02  0.56376239231E+03  0.56922188802E+03  0.00000000000E+00 0. -1.
         22    1    3    3    0    0  0.41058657244E+02  0.75233146239E+01  0.33445309076E+02  0.53488337952E+02  0.00000000000E+00 0. -1.
         22    1    3    3    0    0 -0.46364419843E+02  0.53828453898E+02 -0.49920603606E+02  0.86828731079E+02  0.00000000000E+00 0. -1.
</event>
<event>
 7    1  0.6105960E-006  0.1183661E+03  0.7818608E-02  0.1267058E+00
          2   -1    0    0  502    0  0.00000000000E+00  0.00000000000E+00  0.36732232985E+04  0.36732232985E+04  0.00000000000E+00 0. -1.
          1   -1    0    0  501    0 -0.00000000000E+00 -0.00000000000E+00 -0.67667644851E+02  0.67667644851E+02  0.00000000000E+00 0. -1.
         25    2    1    2    0    0  0.15866730296E+03 -0.42428047723E+02  0.91870049196E+03  0.94160023149E+03  0.12499979895E+03 0.  0.
          2    1    1    2  501    0 -0.49490258380E+02  0.82200178750E+02 -0.13097827427E+02  0.96838567443E+02  0.00000000000E+00 0. -1.
          1    1    1    2  502    0 -0.10917704458E+03 -0.39772131027E+02  0.26999529891E+04  0.27024521445E+04  0.00000000000E+00 0. -1.
         22    1    3    3    0    0  0.13931834476E+03 -0.40744715645E+00  0.46164120533E+03  0.48220573375E+03  0.00000000000E+00 0.  1.
         22    1    3    3    0    0  0.19348958206E+02 -0.42020600567E+02  0.45705928663E+03  0.45939449774E+03  0.00000000000E+00 0.  1.
</event>
<event>
 7    1  0.6105960E-006  0.1107987E+03  0.7818608E-02  0.1319797E+00
          2   -1    0    0  502    0  0.00000000000E+00  0.00000000000E+00  0.48671013985E+03  0.48671013985E+03  0.00000000000E+00 0. -1.
          1   -1    0    0  501    0 -0.00000000000E+00 -0.00000000000E+00 -0.63422096192E+03  0.63422096192E+03  0.00000000000E+00 0. -1.
         25    2    1    2    0    0  0.11363049351E+03  0.77338897255E+02  0.44871750235E+02  0.19112225636E+03  0.12498419430E+03 0.  0.
          2    1    1    2  501    0 -0.10920583656E+03 -0.14789779695E+02 -0.55295244236E+03  0.56382715067E+03  0.00000000000E+00 0. -1.
          1    1    1    2  502    0 -0.44246569556E+01 -0.62549117560E+02  0.36056987005E+03  0.36598169474E+03  0.00000000000E+00 0. -1.
         22    1    3    3    0    0  0.11676385567E+03  0.63175821796E+02  0.78687532201E+02  0.15432663469E+03  0.00000000000E+00 0.  1.
         22    1    3    3    0    0 -0.31333621548E+01  0.14163075459E+02 -0.33815781965E+02  0.36795621679E+02  0.00000000000E+00 0.  1.
</event>
<event>
 7    1  0.6105960E-006  0.4593152E+02  0.7818608E-02  0.1500784E+00
          2   -1    0    0  502    0  0.00000000000E+00  0.00000000000E+00  0.14358842646E+04  0.14358842646E+04  0.00000000000E+00 0. -1.
          1   -1    0    0  501    0 -0.00000000000E+00 -0.00000000000E+00 -0.12865728938E+02  0.12865728938E+02  0.00000000000E+00 0. -1.
         25    2    1    2    0    0 -0.65646303534E+01  0.15205660118E+02  0.75395857231E+03  0.76443018842E+03  0.12500271093E+03 0.  0.
          2    1    1    2  501    0 -0.76356658806E+01 -0.48989518346E+02  0.79982603008E+02  0.94103629500E+02  0.00000000000E+00 0. -1.
          1    1    1    2  502    0  0.14200296234E+02  0.33783858228E+02  0.58907736031E+03  0.59021617559E+03  0.00000000000E+00 0. -1.
         22    1    3    3    0    0  0.33847722215E+02  0.13027491481E+02  0.66216825431E+02  0.75498687430E+02  0.00000000000E+00 0.  1.
         22    1    3    3    0    0 -0.40412352568E+02  0.21781686371E+01  0.68774174688E+03  0.68893150100E+03  0.00000000000E+00 0.  1.
</event>
<event>
 7    1  0.6105960E-006  0.5165230E+02  0.7818608E-02  0.1457451E+00
          2   -1    0    0  502    0  0.00000000000E+00  0.00000000000E+00  0.23716848407E+04  0.23716848407E+04  0.00000000000E+00 0. -1.
          1   -1    0    0  501    0 -0.00000000000E+00 -0.00000000000E+00 -0.58680088563E+02  0.58680088563E+02  0.00000000000E+00 0. -1.
         25    2    1    2    0    0 -0.71273845123E+02 -0.51205484609E+02  0.85035518544E+03  0.86396264874E+03  0.12500221743E+03 0.  0.
          2    1    1    2  501    0  0.23423737466E+02  0.37574014797E+02 -0.41941825722E+02  0.60988480959E+02  0.00000000000E+00 0. -1.
          1    1    1    2  502    0  0.47850107657E+02  0.13631469813E+02  0.15045913924E+04  0.15054137995E+04  0.00000000000E+00 0. -1.
         22    1    3    3    0    0 -0.12723358995E+02  0.33549074028E+02  0.41663486022E+03  0.41817703306E+03  0.00000000000E+00 0.  1.
         22    1    3    3    0    0 -0.58550486128E+02 -0.84754558637E+02  0.43372032522E+03  0.44578561568E+03  0.00000000000E+00 0.  1.
</event>
<event>
 7    1  0.6105960E-006  0.8337494E+02  0.7818608E-02  0.1401133E+00
          2   -1    0    0  502    0  0.00000000000E+00  0.00000000000E+00  0.21729426735E+03  0.21729426735E+03  0.00000000000E+00 0. -1.
          1   -1    0    0  501    0 -0.00000000000E+00 -0.00000000000E+00 -0.36179599617E+03  0.36179599617E+03  0.00000000000E+00 0. -1.
         25    2    1    2    0    0 -0.79701588489E+02 -0.44455415670E+02  0.48271405904E+02  0.16212224510E+03  0.12499946615E+03 0.  0.
          2    1    1    2  501    0 -0.36495040343E+01  0.41904835980E+02 -0.28761758945E+03  0.29067716098E+03  0.00000000000E+00 0. -1.
          1    1    1    2  502    0  0.83351092523E+02  0.25505796897E+01  0.94844454721E+02  0.12629085744E+03  0.00000000000E+00 0. -1.
         22    1    3    3    0    0 -0.91277483864E+02 -0.47486711578E+02 -0.93092722057E+01  0.10331132264E+03  0.00000000000E+00 0.  1.
         22    1    3    3    0    0  0.11575895375E+02  0.30312959078E+01  0.57580678109E+02  0.58810922456E+02  0.00000000000E+00 0.  1.
</event>
<event>
 7    1  0.6105960E-006  0.1793958E+03  0.7818608E-02  0.1320223E+00
          2   -1    0    0  502    0  0.00000000000E+00  0.00000000000E+00  0.16240402047E+04  0.16240402047E+04  0.00000000000E+00 0. -1.
          1   -1    0    0  501    0 -0.00000000000E+00 -0.00000000000E+00 -0.12097122135E+04  0.12097122135E+04  0.00000000000E+00 0. -1.
         25    2    1    2    0    0 -0.72872036053E+02  0.14610408191E+03 -0.54737568548E+02  0.21278751033E+03  0.12500234699E+03 0.  0.
          2    1    1    2  501    0  0.47269860244E+02 -0.17496675309E+03 -0.10680736195E+04  0.10833416179E+04  0.00000000000E+00 0. -1.
          1    1    1    2  502    0  0.25602175810E+02  0.28862671175E+02  0.15371391793E+04  0.15376232899E+04  0.00000000000E+00 0. -1.
         22    1    3    3    0    0 -0.38113268433E+02  0.15003322552E+03 -0.75373975640E+02  0.17217382552E+03  0.00000000000E+00 0.  1.
         22    1    3    3    0    0 -0.34758767620E+02 -0.39291436114E+01  0.20636407092E+02  0.40613684808E+02  0.00000000000E+00 0.  1.
</event>
<event>
 7    1  0.6105960E-006  0.4518948E+02  0.7818608E-02  0.1522115E+00
          2   -1    0    0  502    0  0.00000000000E+00  0.00000000000E+00  0.27506584582E+03  0.27506584582E+03  0.00000000000E+00 0. -1.
          1   -1    0    0  501    0 -0.00000000000E+00 -0.00000000000E+00 -0.23142062763E+03  0.23142062763E+03  0.00000000000E+00 0. -1.
         25    2    1    2    0    0  0.18386991492E+02 -0.64805249871E+02  0.51446051590E+02  0.15102635982E+03  0.12499785306E+03 0.  0.
          2    1    1    2  501    0 -0.24467851124E+02  0.20999289082E+02 -0.17734004470E+03  0.18024743365E+03  0.00000000000E+00 0. -1.
          1    1    1    2  502    0  0.60808596316E+01  0.43805960789E+02  0.16953921131E+03  0.17521267998E+03  0.00000000000E+00 0. -1.
         22    1    3    3    0    0  0.23553155944E+02 -0.75262101430E+02 -0.17766455040E+02  0.80837998437E+02  0.00000000000E+00 0. -1.
         22    1    3    3    0    0 -0.51661644521E+01  0.10456851559E+02  0.69212506631E+02  0.70188361384E+02  0.00000000000E+00 0. -1.
</event>
<event>
 7    1  0.6105960E-006  0.9207591E+02  0.7818608E-02  0.1370799E+00
          2   -1    0    0  502    0  0.00000000000E+00  0.00000000000E+00  0.44848676894E+03  0.44848676894E+03  0.00000000000E+00 0. -1.
          1   -1    0    0  501    0 -0.00000000000E+00 -0.00000000000E+00 -0.23441310844E+04  0.23441310844E+04  0.00000000000E+00 0. -1.
         25    2    1    2    0    0  0.13808805330E+03  0.96584068207E+01  0.32954849999E+03  0.37866818200E+03  0.12500313166E+03 0.  0.
          2    1    1    2  501    0 -0.91800770860E+02  0.53960920252E+01 -0.23123202846E+04  0.23141481365E+04  0.00000000000E+00 0. -1.
          1    1    1    2  502    0 -0.46287282438E+02 -0.15054498846E+02  0.87127469192E+02  0.99801534752E+02  0.00000000000E+00 0. -1.
         22    1    3    3    0    0  0.15496026389E+03  0.30904584247E+02  0.29587661811E+03  0.33542622118E+03  0.00000000000E+00 0.  1.
         22    1    3    3    0    0 -0.16872210594E+02 -0.21246177426E+02  0.33671881884E+02  0.43241960815E+02  0.00000000000E+00 0.  1.
</event>
<event>
 7    1  0.6105960E-006  0.6488458E+02  0.7818608E-02  0.1490201E+00
          2   -1    0    0  502    0  0.00000000000E+00  0.00000000000E+00  0.28649248801E+03  0.28649248801E+03  0.00000000000E+00 0. -1.
          1   -1    0    0  501    0 -0.00000000000E+00 -0.00000000000E+00 -0.13854155854E+03  0.13854155854E+03  0.00000000000E+00 0. -1.
         25    2    1    2    0    0  0.51505601893E+02 -0.59655174929E+02  0.23165242451E+03  0.27477180807E+03  0.12500053521E+03 0.  0.
          2    1    1    2  501    0 -0.21092318201E+02  0.18280303849E+02 -0.93855340642E+02  0.97917722415E+02  0.00000000000E+00 0. -1.
          1    1    1    2  502    0 -0.30413283692E+02  0.41374871080E+02  0.10153845594E+02  0.52344516066E+02  0.00000000000E+00 0. -1.
         22    1    3    3    0    0  0.65910745157E+01 -0.76053395731E+01 -0.15363958199E+02  0.18366672667E+02  0.00000000000E+00 0. -1.
         22    1    3    3    0    0  0.44914527377E+02 -0.52049835356E+02  0.24701638271E+03  0.25640513540E+03  0.00000000000E+00 0. -1.
</event>
<event>
 7    1  0.6105960E-006  0.1279637E+03  0.7818608E-02  0.1280143E+00
          2   -1    0    0  502    0  0.00000000000E+00  0.00000000000E+00  0.42683577955E+03  0.42683577955E+03  0.00000000000E+00 0. -1.
          1   -1    0    0  501    0 -0.00000000000E+00 -0.00000000000E+00 -0.79317414173E+03  0.79317414173E+03  0.00000000000E+00 0. -1.
         25    2    1    2    0    0  0.15703925113E+03 -0.12025917656E+03 -0.44066234173E+02  0.23809644338E+03  0.12499794964E+03 0.  0.
          2    1    1    2  501    0 -0.50667859208E+02  0.59645433780E+02 -0.63825838797E+03  0.64303855214E+03  0.00000000000E+00 0. -1.
          1    1    1    2  502    0 -0.10637139192E+03  0.60613742779E+02  0.31598625996E+03  0.33887492577E+03  0.00000000000E+00 0. -1.
         22    1    3    3    0    0 -0.10266250977E+01 -0.31107695881E+02  0.28928300555E+02  0.42492226055E+02  0.00000000000E+00 0.  1.
         22    1    3    3    0    0  0.15806587622E+03 -0.89151480678E+02 -0.72994534727E+02  0.19560421732E+03  0.00000000000E+00 0.  1.
</event>
<event>
 7    1  0.6105960E-006  0.2475932E+03  0.7818608E-02  0.1233337E+00
          2   -1    0    0  502    0  0.00000000000E+00  0.00000000000E+00  0.12770050631E+03  0.12770050631E+03  0.00000000000E+00 0. -1.
          1   -1    0    0  501    0 -0.00000000000E+00 -0.00000000000E+00 -0.16770305208E+04  0.16770305208E+04  0.00000000000E+00 0. -1.
         25    2    1    2    0    0 -0.14155202859E+03  0.14381928484E+03 -0.88434220459E+02  0.25331210112E+03  0.12500178293E+03 0.  0.
          2    1    1    2  501    0  0.20556606769E+03 -0.14918352518E+03 -0.14651850875E+04  0.14870374821E+04  0.00000000000E+00 0. -1.
          1    1    1    2  502    0 -0.64014039097E+02  0.53642403338E+01  0.42892935401E+01  0.64381443871E+02  0.00000000000E+00 0. -1.
         22    1    3    3    0    0 -0.40907812833E+02  0.12743506371E+03 -0.35726880513E+02  0.13852636790E+03  0.00000000000E+00 0.  1.
         22    1    3    3    0    0 -0.10064421576E+03  0.16384221139E+02 -0.52707339946E+02  0.11478573322E+03  0.00000000000E+00 0.  1.
</event>
<event>
 7    1  0.6105960E-006  0.2623817E+02  0.7818608E-02  0.1687225E+00
          2   -1    0    0  502    0  0.00000000000E+00  0.00000000000E+00  0.33249390135E+03  0.33249390135E+03  0.00000000000E+00 0. -1.
          1   -1    0    0  501    0 -0.00000000000E+00 -0.00000000000E+00 -0.69599065664E+03  0.69599065664E+03  0.00000000000E+00 0. -1.
         25    2    1    2    0    0  0.13758586697E+02 -0.35023358875E+01  0.14680913240E+03  0.19333815008E+03  0.12500061542E+03 0.  0.
          2    1    1    2  501    0 -0.20955309171E+02 -0.15833267287E+02 -0.67181332878E+03  0.67232653232E+03  0.00000000000E+00 0. -1.
          1    1    1    2  502    0  0.71967224735E+01  0.19335603174E+02  0.16150744108E+03  0.16281987560E+03  0.00000000000E+00 0. -1.
         22    1    3    3    0    0 -0.22513930484E+02  0.52520139027E+02  0.51105537204E+02  0.76661711449E+02  0.00000000000E+00 0.  1.
         22    1    3    3    0    0  0.36272517181E+02 -0.56022474915E+02  0.95703595198E+02  0.11667643863E+03  0.00000000000E+00 0.  1.
</event>
<event>
 7    1  0.6105960E-006  0.1024312E+03  0.7818608E-02  0.1284570E+00
          2   -1    0    0  502    0  0.00000000000E+00  0.00000000000E+00  0.38352119729E+04  0.38352119729E+04  0.00000000000E+00 0. -1.
          1   -1    0    0  501    0 -0.00000000000E+00 -0.00000000000E+00 -0.30489680678E+03  0.30489680678E+03  0.00000000000E+00 0. -1.
         25    2    1    2    0    0  0.87997820621E+01  0.89178089461E+02  0.41527520729E+03  0.44284235104E+03  0.12500272909E+03 0.  0.
          2    1    1    2  501    0  0.84671841854E+02 -0.40246496006E+02 -0.28272529306E+03  0.29786354691E+03  0.00000000000E+00 0. -1.
          1    1    1    2  502    0 -0.93471623916E+02 -0.48931593455E+02  0.33977652519E+04  0.33994028818E+04  0.00000000000E+00 0. -1.
         22    1    3    3    0    0 -0.39541711747E+01  0.11869815201E+03  0.35762930084E+03  0.37683365505E+03  0.00000000000E+00 0.  1.
         22    1    3    3    0    0  0.12753953237E+02 -0.29520062544E+02  0.57645906449E+02  0.66008695989E+02  0.00000000000E+00 0.  1.
</event>
<event>
 7    1  0.6105960E-006  0.1311356E+03  0.7818608E-02  0.1363825E+00
          2   -1    0    0  502    0  0.00000000000E+00  0.00000000000E+00  0.93872169666E+03  0.93872169666E+03  0.00000000000E+00 0. -1.
          1   -1    0    0  501    0 -0.00000000000E+00 -0.00000000000E+00 -0.18571545440E+03  0.18571545440E+03  0.00000000000E+00 0. -1.
         25    2    1    2    0    0 -0.12085155364E+03 -0.61795527510E+02 -0.36485720649E+02  0.18809640785E+03  0.12500106240E+03 0.  0.
          2    1    1    2  501    0  0.24251708410E+02 -0.26896447538E+02 -0.63621357928E+02  0.73206840087E+02  0.00000000000E+00 0. -1.
          1    1    1    2  502    0  0.96599845227E+02  0.88691975048E+02  0.85311332083E+03  0.86313390312E+03  0.00000000000E+00 0. -1.
         22    1    3    3    0    0 -0.47055224259E+02  0.35222531969E+02 -0.30094113156E+02  0.66033904436E+02  0.00000000000E+00 0.  1.
         22    1    3    3    0    0 -0.73796329378E+02 -0.97018059479E+02 -0.63916074931E+01  0.12206250342E+03  0.00000000000E+00 0.  1.
</event>
<event>
 7    1  0.6105960E-006  0.4619350E+02  0.7818608E-02  0.1547264E+00
          2   -1    0    0  502    0  0.00000000000E+00  0.00000000000E+00  0.95017539275E+03  0.95017539275E+03  0.00000000000E+00 0. -1.
          1   -1    0    0  501    0 -0.00000000000E+00 -0.00000000000E+00 -0.55631325799E+03  0.55631325799E+03  0.00000000000E+00 0. -1.
         25    2    1    2    0    0  0.42708422168E+02 -0.55844209368E+02  0.45879553686E+02  0.15056957808E+03  0.12499471730E+03 0.  0.
          2    1    1    2  501    0 -0.22364838105E+02  0.14672370228E+02 -0.50299376718E+03  0.50370447115E+03  0.00000000000E+00 0. -1.
          1    1    1    2  502    0 -0.20343584064E+02  0.41171839140E+02  0.85097634825E+03  0.85221460151E+03  0.00000000000E+00 0. -1.
         22    1    3    3    0    0 -0.32274478427E+02  0.68648443673E+01  0.41096307365E+02  0.52703648118E+02  0.00000000000E+00 0. -1.
         22    1    3    3    0    0  0.74982900595E+02 -0.62709053736E+02  0.47832463212E+01  0.97865929963E+02  0.00000000000E+00 0. -1.
</event>
<event>
 7    1  0.6105960E-006  0.4902748E+02  0.7818608E-02  0.1508483E+00
          2   -1    0    0  502    0  0.00000000000E+00  0.00000000000E+00  0.21488375646E+04  0.21488375646E+04  0.00000000000E+00 0. -1.
          1   -1    0    0  501    0 -0.00000000000E+00 -0.00000000000E+00 -0.31500997370E+03  0.31500997370E+03  0.00000000000E+00 0. -1.
         25    2    1    2    0    0  0.33238101545E+02  0.33611854428E+02 -0.24702769361E+03  0.28085608192E+03  0.12499171650E+03 0.  0.
          2    1    1    2  501    0 -0.54514038049E+02 -0.89452852877E+01 -0.35966174122E+02  0.65919376167E+02  0.00000000000E+00 0. -1.
          1    1    1    2  502    0  0.21275936504E+02 -0.24666569141E+02  0.21168214586E+04  0.21170720802E+04  0.00000000000E+00 0. -1.
         22    1    3    3    0    0  0.24615038423E+02  0.34854897016E+02 -0.26095917026E+03  0.26442475774E+03  0.00000000000E+00 0. -1.
         22    1    3    3    0    0  0.86230631218E+01 -0.12430425873E+01  0.13931476658E+02  0.16431324181E+02  0.00000000000E+00 0. -1.
</event>
<event>
 7    1  0.8784394E-006  0.1137180E+03  0.7818608E-02  0.1305789E+00
          2   -1    0    0  502    0  0.00000000000E+00  0.00000000000E+00  0.30010549611E+04  0.30010549611E+04  0.00000000000E+00 0. -1.
          1   -1    0    0  501    0 -0.00000000000E+00 -0.00000000000E+00 -0.11694222601E+04  0.11694222601E+04  0.00000000000E+00 0. -1.
         25    2    1    2    0    0 -0.73145061519E+02  0.43555754288E+02 -0.59255285772E+03  0.61154779648E+03  0.12499805771E+03 0.  0.
          2    1    1    2  501    0  0.93234707096E+02 -0.10992056903E+03 -0.55780824935E+03  0.57612957323E+03  0.00000000000E+00 0. -1.
          1    1    1    2  502    0 -0.20089645576E+02  0.66364814737E+02  0.29819938080E+04  0.29827998514E+04  0.00000000000E+00 0. -1.
         22    1    3    3    0    0  0.24279325406E+02  0.20211522113E+02 -0.31292303371E+03  0.31451361862E+03  0.00000000000E+00 0.  1.
         22    1    3    3    0    0 -0.97424386925E+02  0.23344232175E+02 -0.27962982401E+03  0.29703417787E+03  0.00000000000E+00 0.  1.
</event>
<event>
 7    1  0.6105960E-006  0.3594393E+02  0.7818608E-02  0.1572776E+00
          2   -1    0    0  502    0  0.00000000000E+00  0.00000000000E+00  0.12752166064E+04  0.12752166064E+04  0.00000000000E+00 0. -1.
          1   -1    0    0  501    0 -0.00000000000E+00 -0.00000000000E+00 -0.24312222714E+03  0.24312222714E+03  0.00000000000E+00 0. -1.
         25    2    1    2    0    0  0.16004561370E+02 -0.18314837343E+02 -0.11596627684E+03  0.17222872823E+03  0.12499191259E+03 0.  0.
          2    1    1    2  501    0 -0.23949293011E+02 -0.16780052171E+02 -0.96600128288E+02  0.10092929987E+03  0.00000000000E+00 0. -1.
          1    1    1    2  502    0  0.79447316418E+01  0.35094889513E+02  0.12446607844E+04  0.12451808054E+04  0.00000000000E+00 0. -1.
         22    1    3    3    0    0 -0.55858911982E+01 -0.49546099082E+02  0.36191614712E+00  0.49861298599E+02  0.00000000000E+00 0.  1.
         22    1    3    3    0    0  0.21590452568E+02  0.31231261739E+02 -0.11632819299E+03  0.12236742963E+03  0.00000000000E+00 0.  1.
</event>
<event>
 7    1  0.6105960E-006  0.1112101E+03  0.7818608E-02  0.1365593E+00
          2   -1    0    0  502    0  0.00000000000E+00  0.00000000000E+00  0.33173892548E+03  0.33173892548E+03  0.00000000000E+00 0. -1.
          1   -1    0    0  501    0 -0.00000000000E+00 -0.00000000000E+00 -0.11082937091E+04  0.11082937091E+04  0.00000000000E+00 0. -1.
         25    2    1    2    0    0 -0.15040743696E+02  0.10915311699E+03 -0.35085096301E+03  0.38841039703E+03  0.12500244540E+03 0.  0.
          2    1    1    2  501    0  0.42066425941E+02 -0.10338858085E+01 -0.72811473751E+03  0.72932964021E+03  0.00000000000E+00 0. -1.
          1    1    1    2  502    0 -0.27025682246E+02 -0.10811923118E+03  0.30241091689E+03  0.32229259735E+03  0.00000000000E+00 0. -1.
         22    1    3    3    0    0 -0.11975572768E+02  0.13744867576E+03 -0.29777073961E+03  0.32818130078E+03  0.00000000000E+00 0. -1.
         22    1    3    3    0    0 -0.30651709273E+01 -0.28295558772E+02 -0.53080223397E+02  0.60229096249E+02  0.00000000000E+00 0. -1.
</event>
<event>
 7    1  0.6105960E-006  0.1108556E+03  0.7818608E-02  0.1323513E+00
          2   -1    0    0  502    0  0.00000000000E+00  0.00000000000E+00  0.99064110478E+03  0.99064110478E+03  0.00000000000E+00 0. -1.
          1   -1    0    0  501    0 -0.00000000000E+00 -0.00000000000E+00 -0.64092640203E+03  0.64092640203E+03  0.00000000000E+00 0. -1.
         25    2    1    2    0    0 -0.46479861203E+02 -0.50215088566E+02  0.42581168166E+03  0.44901400841E+03  0.12496423046E+03 0.  0.
          2    1    1    2  501    0  0.27810313628E+02  0.10790113299E+03 -0.62270352424E+03  0.63259445709E+03  0.00000000000E+00 0. -1.
          1    1    1    2  502    0  0.18669547574E+02 -0.57686044426E+02  0.54660654532E+03  0.54995904131E+03  0.00000000000E+00 0. -1.
         22    1    3    3    0    0  0.30811470966E+01 -0.67027038558E+02  0.35314618056E+03  0.35946396510E+03  0.00000000000E+00 0.  1.
         22    1    3    3    0    0 -0.49561008299E+02  0.16811949992E+02  0.72665501107E+02  0.89550043312E+02  0.00000000000E+00 0.  1.
</event>
<event>
 7    1  0.6105960E-006  0.1052260E+03  0.7818608E-02  0.1372621E+00
          2   -1    0    0  502    0  0.00000000000E+00  0.00000000000E+00  0.29103535408E+03  0.29103535408E+03  0.00000000000E+00 0. -1.
          1   -1    0    0  501    0 -0.00000000000E+00 -0.00000000000E+00 -0.14826834611E+04  0.14826834611E+04  0.00000000000E+00 0. -1.
         25    2    1    2    0    0 -0.62447255922E+02 -0.13159113931E+03 -0.41032020614E+03  0.45299403441E+03  0.12500014371E+03 0.  0.
          2    1    1    2  501    0  0.12477757763E+02  0.40056784929E+02 -0.10405066001E+04  0.10413521140E+04  0.00000000000E+00 0. -1.
          1    1    1    2  502    0  0.49969498160E+02  0.91534354384E+02  0.25917869925E+03  0.27937266675E+03  0.00000000000E+00 0. -1.
         22    1    3    3    0    0  0.19497893132E+02 -0.19021716021E+02 -0.97785399094E+01  0.28941550749E+02  0.00000000000E+00 0.  1.
         22    1    3    3    0    0 -0.81945149054E+02 -0.11256942329E+03 -0.40054166623E+03  0.42405248366E+03  0.00000000000E+00 0.  1.
</event>
<event>
 7    1  0.6105960E-006  0.5471906E+02  0.7818608E-02  0.1490366E+00
          2   -1    0    0  502    0  0.00000000000E+00  0.00000000000E+00  0.47626861816E+03  0.47626861816E+03  0.00000000000E+00 0. -1.
          1   -1    0    0  501    0 -0.00000000000E+00 -0.00000000000E+00 -0.16925615044E+04  0.16925615044E+04  0.00000000000E+00 0. -1.
         25    2    1    2    0    0  0.57101630095E+02  0.10874756601E+02 -0.53734532696E+02  0.14794770137E+03  0.12498906290E+03 0.  0.
          2    1    1    2  501    0 -0.50389458282E+02  0.21495551952E+02 -0.15906114864E+04  0.15915546038E+04  0.00000000000E+00 0. -1.
          1    1    1    2  502    0 -0.67121718127E+01 -0.32370308553E+02  0.42805313291E+03  0.42932781732E+03  0.00000000000E+00 0. -1.
         22    1    3    3    0    0  0.58120099796E+02  0.31180772654E+02  0.22002531823E+02  0.69529116133E+02  0.00000000000E+00 0.  1.
         22    1    3    3    0    0 -0.10184697012E+01 -0.20306016053E+02 -0.75737064519E+02  0.78418585236E+02  0.00000000000E+00 0.  1.
</event>
<event>
 7    1  0.6105960E-006  0.3873456E+03  0.7818608E-02  0.1226209E+00
          2   -1    0    0  502    0  0.00000000000E+00  0.00000000000E+00  0.60818451169E+03  0.60818451169E+03  0.00000000000E+00 0. -1.
          1   -1    0    0  501    0 -0.00000000000E+00 -0.00000000000E+00 -0.13196682952E+04  0.13196682952E+04  0.00000000000E+00 0. -1.
         25    2    1    2    0    0  0.36382437084E+03  0.39784644294E+02 -0.12467994949E+03  0.40635071451E+03  0.12499929053E+03 0.  0.
          2    1    1    2  501    0 -0.38534182011E+03 -0.78391754995E+02 -0.10163069134E+04  0.10897308511E+04  0.00000000000E+00 0. -1.
          1    1    1    2  502    0  0.21517449264E+02  0.38607110701E+02  0.42950307938E+03  0.43177124130E+03  0.00000000000E+00 0. -1.
         22    1    3    3    0    0  0.46940432991E+02  0.32130872262E+02 -0.60310579395E+02  0.82904542630E+02  0.00000000000E+00 0.  1.
         22    1    3    3    0    0  0.31688393785E+03  0.76537720318E+01 -0.64369370098E+02  0.32344617188E+03  0.00000000000E+00 0.  1.
</event>
<event>
 7    1  0.6105960E-006  0.1030215E+03  0.7818608E-02  0.1466315E+00
          2   -1    0    0  502    0  0.00000000000E+00  0.00000000000E+00  0.12383483115E+04  0.12383483115E+04  0.00000000000E+00 0. -1.
          1   -1    0    0  501    0 -0.00000000000E+00 -0.00000000000E+00 -0.35557722387E+03  0.35557722387E+03  0.00000000000E+00 0. -1.
         25    2    1    2    0    0  0.11340580518E+02 -0.10875844456E+03 -0.13488695163E+03  0.21395388779E+03  0.12499907340E+03 0.  0.
          2    1    1    2  501    0 -0.19890047199E+02  0.61489069555E+01 -0.17833926659E+03  0.17955031897E+03  0.00000000000E+00 0. -1.
          1    1    1    2  502    0  0.85494666809E+01  0.10260953761E+03  0.11959973059E+04  0.12004213286E+04  0.00000000000E+00 0. -1.
         22    1    3    3    0    0  0.52983677580E+02 -0.20531186104E+02 -0.90291496855E+02  0.10668342935E+03  0.00000000000E+00 0. -1.
         22    1    3    3    0    0 -0.41643097062E+02 -0.88227258459E+02 -0.44595454779E+02  0.10727045845E+03  0.00000000000E+00 0. -1.
</event>
<event>
 7    1  0.6105960E-006  0.1099291E+03  0.7818608E-02  0.1399805E+00
          2   -1    0    0  502    0  0.00000000000E+00  0.00000000000E+00  0.27530274979E+03  0.27530274979E+03  0.00000000000E+00 0. -1.
          1   -1    0    0  501    0 -0.00000000000E+00 -0.00000000000E+00 -0.92025534178E+03  0.92025534178E+03  0.00000000000E+00 0. -1.
         25    2    1    2    0    0  0.28227386626E+02  0.10263293469E+03  0.11913254543E+03  0.20285564264E+03  0.12501017451E+03 0.  0.
          2    1    1    2  501    0  0.31460284917E+01 -0.11005716187E+03 -0.87259018009E+03  0.87950901005E+03  0.00000000000E+00 0. -1.
          1    1    1    2  502    0 -0.31373415118E+02  0.74242271772E+01  0.10850504266E+03  0.11319343889E+03  0.00000000000E+00 0. -1.
         22    1    3    3    0    0  0.31599394072E+02  0.78010288769E+02  0.14457435216E+03  0.16728977901E+03  0.00000000000E+00 0. -1.
         22    1    3    3    0    0 -0.33720074458E+01  0.24622645919E+02 -0.25441806724E+02  0.35565863629E+02  0.00000000000E+00 0. -1.
</event>
<event>
 7    1  0.6105960E-006  0.7321105E+02  0.7818608E-02  0.1449072E+00
          2   -1    0    0  502    0  0.00000000000E+00  0.00000000000E+00  0.76009272593E+02  0.76009272593E+02  0.00000000000E+00 0. -1.
          1   -1    0    0  501    0 -0.00000000000E+00 -0.00000000000E+00 -0.80399295825E+03  0.80399295825E+03  0.00000000000E+00 0. -1.
         25    2    1    2    0    0  0.45139998587E+02  0.39383084254E+01 -0.31853557855E+02  0.13672168112E+03  0.12500015677E+03 0.  0.
          2    1    1    2  501    0 -0.72934997883E+02  0.14252472243E+02 -0.70499386763E+03  0.70889985208E+03  0.00000000000E+00 0. -1.
          1    1    1    2  502    0  0.27794999296E+02 -0.18190780668E+02  0.88637398260E+01  0.34380697650E+02  0.00000000000E+00 0. -1.
         22    1    3    3    0    0  0.49214851353E+02  0.33257388855E+02  0.31179351321E+02  0.67084330927E+02  0.00000000000E+00 0. -1.
         22    1    3    3    0    0 -0.40748527659E+01 -0.29319080429E+02 -0.63032909176E+02  0.69637350190E+02  0.00000000000E+00 0. -1.
</event>
<event>
 7    1  0.1167046E-005  0.1040882E+03  0.7818608E-02  0.1337031E+00
          2   -1    0    0  502    0  0.00000000000E+00  0.00000000000E+00  0.21865862152E+04  0.21865862152E+04  0.00000000000E+00 0. -1.
          1   -1    0    0  501    0 -0.00000000000E+00 -0.00000000000E+00 -0.57612846915E+03  0.57612846915E+03  0.00000000000E+00 0. -1.
         25    2    1    2    0    0 -0.29472099768E+02  0.11739101153E+03 -0.25171830372E+03  0.30599857199E+03  0.12499506941E+03 0.  0.
          2    1    1    2  501    0  0.54919776577E+02 -0.16473629299E+02 -0.29323788062E+03  0.29879092515E+03  0.00000000000E+00 0. -1.
          1    1    1    2  502    0 -0.25447676810E+02 -0.10091738223E+03  0.21554139304E+04  0.21579251872E+04  0.00000000000E+00 0. -1.
         22    1    3    3    0    0 -0.24649772417E+02 -0.10304684484E+02 -0.11820686829E+03  0.12118853705E+03  0.00000000000E+00 0. -1.
         22    1    3    3    0    0 -0.48223273504E+01  0.12769569602E+03 -0.13351143543E+03  0.18481003494E+03  0.00000000000E+00 0. -1.
</event>
<event>
 7    1  0.6105960E-006  0.1444101E+03  0.7818608E-02  0.1243203E+00
          2   -1    0    0  502    0  0.00000000000E+00  0.00000000000E+00  0.73988259525E+03  0.73988259525E+03  0.00000000000E+00 0. -1.
          1   -1    0    0  501    0 -0.00000000000E+00 -0.00000000000E+00 -0.12598290750E+03  0.12598290750E+03  0.00000000000E+00 0. -1.
         25    2    1    2    0    0  0.98564095569E+02  0.16659353417E+03  0.48988843874E+02  0.23556749966E+03  0.12499541396E+03 0.  0.
          2    1    1    2  501    0 -0.17052080380E+02 -0.10934226450E+03  0.83345239635E+02  0.13853856222E+03  0.00000000000E+00 0. -1.
          1    1    1    2  502    0 -0.81512015189E+02 -0.57251269665E+02  0.48156560424E+03  0.49175944087E+03  0.00000000000E+00 0. -1.
         22    1    3    3    0    0  0.45094596617E+02 -0.74249127207E+01 -0.42385088295E+01  0.45897896793E+02  0.00000000000E+00 0.  1.
         22    1    3    3    0    0  0.53469498952E+02  0.17401844689E+03  0.53227352703E+02  0.18966960287E+03  0.00000000000E+00 0.  1.
</event>
<event>
 7    1  0.6105960E-006  0.3234355E+02  0.7818608E-02  0.1587419E+00
          2   -1    0    0  502    0  0.00000000000E+00  0.00000000000E+00  0.43746298664E+03  0.43746298664E+03  0.00000000000E+00 0. -1.
          1   -1    0    0  501    0 -0.00000000000E+00 -0.00000000000E+00 -0.89892301586E+03  0.89892301586E+03  0.00000000000E+00 0. -1.
         25    2    1    2    0    0 -0.49298240004E+01  0.36358227963E+01  0.65808984907E+02  0.14139681332E+03  0.12499885579E+03 0.  0.
          2    1    1    2  501    0 -0.27589554447E+01 -0.32311912675E+02 -0.86016291144E+03  0.86077401550E+03  0.00000000000E+00 0. -1.
          1    1    1    2  502    0  0.76887794451E+01  0.28676089879E+02  0.33289389731E+03  0.33421517369E+03  0.00000000000E+00 0. -1.
         22    1    3    3    0    0  0.27421720102E+02  0.45667959876E+00  0.94277684238E+02  0.98185747616E+02  0.00000000000E+00 0. -1.
         22    1    3    3    0    0 -0.32351544102E+02  0.31791431976E+01 -0.28468699331E+02  0.43211065699E+02  0.00000000000E+00 0. -1.
</event>
<event>
 7    1  0.6105960E-006  0.9595094E+02  0.7818608E-02  0.1299900E+00
          2   -1    0    0  502    0  0.00000000000E+00  0.00000000000E+00  0.33594334247E+03  0.33594334247E+03  0.00000000000E+00 0. -1.
          1   -1    0    0  501    0 -0.00000000000E+00 -0.00000000000E+00 -0.61854732944E+03  0.61854732944E+03  0.00000000000E+00 0. -1.
         25    2    1    2    0    0 -0.51373795408E+02  0.95143716060E+02 -0.16548388917E+03  0.23388169351E+03  0.12499654165E+03 0.  0.
          2    1    1    2  501    0  0.86606110598E+02 -0.48476500506E+01 -0.40638384850E+03  0.41553814557E+03  0.00000000000E+00 0. -1.
          1    1    1    2  502    0 -0.35232315190E+02 -0.90296066009E+02  0.28926375070E+03  0.30507083282E+03  0.00000000000E+00 0. -1.
         22    1    3    3    0    0  0.34331347164E+02  0.51029194500E+02 -0.32280635711E+02  0.69459769157E+02  0.00000000000E+00 0. -1.
         22    1    3    3    0    0 -0.85705142572E+02  0.44114521559E+02 -0.13320325346E+03  0.16442192435E+03  0.00000000000E+00 0. -1.
</event>
<event>
 7    1  0.6105960E-006  0.8869462E+02  0.7818608E-02  0.1381485E+00
          2   -1    0    0  502    0  0.00000000000E+00  0.00000000000E+00  0.18655128185E+04  0.18655128185E+04  0.00000000000E+00 0. -1.
          1   -1    0    0  501    0 -0.00000000000E+00 -0.00000000000E+00 -0.77725601862E+02  0.77725601862E+02  0.00000000000E+00 0. -1.
         25    2    1    2    0    0 -0.11004303880E+03  0.32186667806E+02  0.11013220697E+04  0.11143072509E+04  0.12499958450E+03 0.  0.
          2    1    1    2  501    0  0.69453040903E+02 -0.54438394856E+02 -0.42884612887E+02  0.98113983446E+02  0.00000000000E+00 0. -1.
          1    1    1    2  502    0  0.40589997893E+02  0.22251727050E+02  0.72934975973E+03  0.73081718597E+03  0.00000000000E+00 0. -1.
         22    1    3    3    0    0 -0.12521581575E+03 -0.75071759977E+01  0.74898472558E+03  0.75941653745E+03  0.00000000000E+00 0. -1.
         22    1    3    3    0    0  0.15172776953E+02  0.39693843804E+02  0.35233734417E+03  0.35489071345E+03  0.00000000000E+00 0. -1.
</event>
<event>
 7    1  0.6105960E-006  0.1127717E+03  0.7818608E-02  0.1369901E+00
          2   -1    0    0  502    0  0.00000000000E+00  0.00000000000E+00  0.95244058732E+03  0.95244058732E+03  0.00000000000E+00 0. -1.
          1   -1    0    0  501    0 -0.00000000000E+00 -0.00000000000E+00 -0.55823118117E+03  0.55823118117E+03  0.00000000000E+00 0. -1.
         25    2    1    2    0    0  0.13654557400E+03  0.15185806730E+02 -0.36013037944E+03  0.40520880363E+03  0.12499992734E+03 0.  0.
          2    1    1    2  501    0 -0.97761131470E+02 -0.52463259880E+01 -0.16144137846E+03  0.18880699521E+03  0.00000000000E+00 0. -1.
          1    1    1    2  502    0 -0.38784442526E+02 -0.99394807421E+01  0.91578116405E+03  0.91665596965E+03  0.00000000000E+00 0. -1.
         22    1    3    3    0    0  0.79331764463E+02 -0.11353167842E+02 -0.64347476662E+02  0.10277655874E+03  0.00000000000E+00 0. -1.
         22    1    3    3    0    0  0.57213809532E+02  0.26538974572E+02 -0.29578290278E+03  0.30243224489E+03  0.00000000000E+00 0. -1.
</event>
<event>
 7    1  0.6105960E-006  0.2596478E+02  0.7818608E-02  0.1671926E+00
          2   -1    0    0  502    0  0.00000000000E+00  0.00000000000E+00  0.18353864407E+04  0.18353864407E+04  0.00000000000E+00 0. -1.
          1   -1    0    0  501    0 -0.00000000000E+00 -0.00000000000E+00 -0.87304302169E+01  0.87304302169E+01  0.00000000000E+00 0. -1.
         25    2    1    2    0    0 -0.11301393887E+02 -0.12920440699E+02  0.16611925658E+04  0.16659774760E+04  0.12500220207E+03 0.  0.
          2    1    1    2  501    0 -0.22635318689E+02  0.10461956974E+01  0.27834641040E+02  0.35891773701E+02  0.00000000000E+00 0. -1.
          1    1    1    2  502    0  0.33936712576E+02  0.11874245001E+02  0.13762880372E+03  0.14224762131E+03  0.00000000000E+00 0. -1.
         22    1    3    3    0    0  0.35331514577E+01  0.50714220571E+02  0.10654906529E+04  0.10667027453E+04  0.00000000000E+00 0. -1.
         22    1    3    3    0    0 -0.14834545345E+02 -0.63634661270E+02  0.59570191287E+03  0.59927473069E+03  0.00000000000E+00 0. -1.
</event>
<event>
 7    1  0.6105960E-006  0.6375772E+02  0.7818608E-02  0.1444199E+00
          2   -1    0    0  502    0  0.00000000000E+00  0.00000000000E+00  0.48054015863E+03  0.48054015863E+03  0.00000000000E+00 0. -1.
          1   -1    0    0  501    0 -0.00000000000E+00 -0.00000000000E+00 -0.16748104209E+04  0.16748104209E+04  0.00000000000E+00 0. -1.
         25    2    1    2    0    0  0.39513903416E+02 -0.21211822508E+02 -0.27045378739E+03  0.30129945874E+03  0.12499929099E+03 0.  0.
          2    1    1    2  501    0 -0.64422339874E+02 -0.95023644179E+01 -0.13873281452E+04  0.13888556135E+04  0.00000000000E+00 0. -1.
          1    1    1    2  502    0  0.24908436458E+02  0.30714186926E+02  0.46351167030E+03  0.46519550727E+03  0.00000000000E+00 0. -1.
         22    1    3    3    0    0  0.55787206534E+02  0.18122021556E+02 -0.24451405783E+03  0.25145127670E+03  0.00000000000E+00 0.  1.
         22    1    3    3    0    0 -0.16273303118E+02 -0.39333844064E+02 -0.25939729561E+02  0.49848182043E+02  0.00000000000E+00 0.  1.
</event>
<event>
 7    1  0.6105960E-006  0.9058832E+02  0.7818608E-02  0.1330627E+00
          2   -1    0    0  502    0  0.00000000000E+00  0.00000000000E+00  0.10449225868E+04  0.10449225868E+04  0.00000000000E+00 0. -1.
          1   -1    0    0  501    0 -0.00000000000E+00 -0.00000000000E+00 -0.18026678346E+03  0.18026678346E+03  0.00000000000E+00 0. -1.
         25    2    1    2    0    0 -0.89141820568E+02 -0.82190246932E+02  0.19601334173E+03  0.26219814245E+03  0.12500053961E+03 0.  0.
          2    1    1    2  501    0  0.69467902617E+02 -0.53875135523E+01 -0.13629085791E+03  0.15306865370E+03  0.00000000000E+00 0. -1.
          1    1    1    2  502    0  0.19673917951E+02  0.87577760484E+02  0.80493331953E+03  0.80992257412E+03  0.00000000000E+00 0. -1.
         22    1    3    3    0    0 -0.11744104158E+03 -0.86038868751E+02  0.16365840749E+03  0.21904145618E+03  0.00000000000E+00 0. -1.
         22    1    3    3    0    0  0.28299221014E+02  0.38486218193E+01  0.32354934238E+02  0.43156686266E+02  0.00000000000E+00 0. -1.
</event>
<event>
 7    1  0.6105960E-006  0.1792282E+03  0.7818608E-02  0.1217933E+00
          2   -1    0    0  502    0  0.00000000000E+00  0.00000000000E+00  0.93174863759E+03  0.93174863759E+03  0.00000000000E+00 0. -1.
          1   -1    0    0  501    0 -0.00000000000E+00 -0.00000000000E+00 -0.57596039153E+03  0.57596039153E+03  0.00000000000E+00 0. -1.
         25    2    1    2    0    0  0.12118780955E+03  0.47194179060E+02 -0.55850193338E+02  0.18882294473E+03  0.12498433758E+03 0.  0.
          2    1    1    2  501    0 -0.13087428315E+03 -0.15090280544E+03 -0.42826029574E+03  0.47255329392E+03  0.00000000000E+00 0. -1.
          1    1    1    2  502    0  0.96864736042E+01  0.10370862638E+03  0.83989873514E+03  0.84633279048E+03  0.00000000000E+00 0. -1.
         22    1    3    3    0    0 -0.85212452446E+01  0.46876543112E+02 -0.11235767534E+00  0.47644879462E+02  0.00000000000E+00 0.  1.
         22    1    3    3    0    0  0.12970905479E+03  0.31763594774E+00 -0.55737835663E+02  0.14117806526E+03  0.00000000000E+00 0.  1.
</event>
<event>
 7    1  0.6105960E-006  0.5252540E+02  0.7818608E-02  0.1471850E+00
          2   -1    0    0  502    0  0.00000000000E+00  0.00000000000E+00  0.48497252030E+03  0.48497252030E+03  0.00000000000E+00 0. -1.
          1   -1    0    0  501    0 -0.00000000000E+00 -0.00000000000E+00 -0.12663380388E+04  0.12663380388E+04  0.00000000000E+00 0. -1.
         25    2    1    2    0    0  0.42208713923E+02  0.40475089153E+02 -0.11856414917E+03  0.18194046002E+03  0.12500026061E+03 0.  0.
          2    1    1    2  501    0  0.10335109975E+02 -0.37858672960E+02 -0.11142126511E+04  0.11149035499E+04  0.00000000000E+00 0. -1.
          1    1    1    2  502    0 -0.52543823899E+02 -0.26164161934E+01  0.45141128177E+03  0.45446654923E+03  0.00000000000E+00 0. -1.
         22    1    3    3    0    0 -0.31822533884E+02 -0.29808834397E+01 -0.83146200387E+02  0.89077774825E+02  0.00000000000E+00 0.  1.
         22    1    3    3    0    0  0.74031247807E+02  0.43455972593E+02 -0.35417948780E+02  0.92862685195E+02  0.00000000000E+00 0.  1.
</event>
<event>
 7    1  0.6105960E-006  0.1068317E+03  0.7818608E-02  0.1351981E+00
          2   -1    0    0  502    0  0.00000000000E+00  0.00000000000E+00  0.33377801797E+04  0.33377801797E+04  0.00000000000E+00 0. -1.
          1   -1    0    0  501    0 -0.00000000000E+00 -0.00000000000E+00 -0.57622398668E+03  0.57622398668E+03  0.00000000000E+00 0. -1.
         25    2    1    2    0    0  0.73299807411E+02  0.11492405864E+03  0.14671803501E+04  0.14787913333E+04  0.12500090654E+03 0.  0.
          2    1    1    2  501    0 -0.25483978120E+02 -0.10366981125E+03 -0.56509633135E+03  0.57509192883E+03  0.00000000000E+00 0. -1.
          1    1    1    2  502    0 -0.47815829291E+02 -0.11254247389E+02  0.18594721743E+04  0.18601209043E+04  0.00000000000E+00 0. -1.
         22    1    3    3    0    0 -0.95588306719E+00  0.10104715953E+03  0.10478273124E+04  0.10526887093E+04  0.00000000000E+00 0.  1.
         22    1    3    3    0    0  0.74255690478E+02  0.13876899107E+02  0.41935303771E+03  0.42610262394E+03  0.00000000000E+00 0.  1.
</event>
<event>
 7    1  0.6105960E-006  0.8682423E+02  0.7818608E-02  0.1374621E+00
          2   -1    0    0  502    0  0.00000000000E+00  0.00000000000E+00  0.35103931343E+04  0.35103931343E+04  0.00000000000E+00 0. -1.
          1   -1    0    0  501    0 -0.00000000000E+00 -0.00000000000E+00 -0.32749588676E+03  0.32749588676E+03  0.00000000000E+00 0. -1.
         25    2    1    2    0    0  0.34914960726E+02  0.11686563904E+03  0.18984195175E+03  0.25795574804E+03  0.12499827693E+03 0.  0.
          2    1    1    2  501    0 -0.50786070849E+02 -0.69433506307E+02 -0.28693947270E+03  0.29955716947E+03  0.00000000000E+00 0. -1.
          1    1    1    2  502    0  0.15871110123E+02 -0.47432132731E+02  0.32799947685E+04  0.32803761036E+04  0.00000000000E+00 0. -1.
         22    1    3    3    0    0 -0.19168183472E+02  0.98676326163E+02  0.62376434478E+02  0.11830154767E+03  0.00000000000E+00 0. -1.
         22    1    3    3    0    0  0.54083144198E+02  0.18189312875E+02  0.12746551727E+03  0.13965420038E+03  0.00000000000E+00 0. -1.
</event>
<event>
 7    1  0.6105960E-006  0.1051751E+03  0.7818608E-02  0.1360947E+00
          2   -1    0    0  502    0  0.00000000000E+00  0.00000000000E+00  0.64324645113E+03  0.64324645113E+03  0.00000000000E+00 0. -1.
          1   -1    0    0  501    0 -0.00000000000E+00 -0.00000000000E+00 -0.31902745766E+03  0.31902745766E+03  0.00000000000E+00 0. -1.
         25    2    1    2    0    0 -0.74187771110E+02  0.13835405510E+02  0.11069378566E+03  0.18323260258E+03  0.12500331450E+03 0.  0.
          2    1    1    2  501    0 -0.22524807360E+02  0.40401200894E+02 -0.27460603132E+03  0.27847458846E+03  0.00000000000E+00 0. -1.
          1    1    1    2  502    0  0.96712578470E+02 -0.54236606405E+02  0.48813123913E+03  0.50056671775E+03  0.00000000000E+00 0. -1.
         22    1    3    3    0    0 -0.88231896263E+02 -0.32187309490E+02  0.92406689150E+02  0.13175692244E+03  0.00000000000E+00 0. -1.
         22    1    3    3    0    0  0.14044125153E+02  0.46022715001E+02  0.18287096514E+02  0.51475680144E+02  0.00000000000E+00 0. -1.
</event>
<event>
 7    1  0.6105960E-006  0.1044728E+03  0.7818608E-02  0.1284137E+00
          2   -1    0    0  502    0  0.00000000000E+00  0.00000000000E+00  0.17851061066E+04  0.17851061066E+04  0.00000000000E+00 0. -1.
          1   -1    0    0  501    0 -0.00000000000E+00 -0.00000000000E+00 -0.64957442911E+03  0.64957442911E+03  0.00000000000E+00 0. -1.
         25    2    1    2    0    0  0.15784105397E+03  0.60891361008E+02  0.32463748553E+03  0.38682889243E+03  0.12500215535E+03 0.  0.
          2    1    1    2  501    0 -0.10305846155E+03  0.13387057807E+02 -0.61260803339E+03  0.62136049310E+03  0.00000000000E+00 0. -1.
          1    1    1    2  502    0 -0.54782592424E+02 -0.74278418815E+02  0.14235022254E+04  0.14264911502E+04  0.00000000000E+00 0. -1.
         22    1    3    3    0    0  0.15625036786E+03  0.13448930454E+02  0.28362796105E+03  0.32409855210E+03  0.00000000000E+00 0.  1.
         22    1    3    3    0    0  0.15906861099E+01  0.47442430554E+02  0.41009524477E+02  0.62730340323E+02  0.00000000000E+00 0.  1.
</event>
<event>
 7    1  0.6105960E-006  0.4504658E+02  0.7818608E-02  0.1475532E+00
          2   -1    0    0  502    0  0.00000000000E+00  0.00000000000E+00  0.44108705361E+02  0.44108705361E+02  0.00000000000E+00 0. -1.
          1   -1    0    0  501    0 -0.00000000000E+00 -0.00000000000E+00 -0.27026921636E+04  0.27026921636E+04  0.00000000000E+00 0. -1.
         25    2    1    2    0    0  0.90190418385E+01  0.70806060699E+01 -0.25278703902E+03  0.28224319785E+03  0.12501382939E+03 0.  0.
          2    1    1    2  501    0 -0.20619752199E+02  0.39518366775E+02 -0.24152109692E+04  0.24156222596E+04  0.00000000000E+00 0. -1.
          1    1    1    2  502    0  0.11600710360E+02 -0.46598972845E+02  0.94145499284E+01  0.48935411528E+02  0.00000000000E+00 0. -1.
         22    1    3    3    0    0 -0.28397686977E+02  0.32277112034E+02 -0.22541622044E+03  0.22947922134E+03  0.00000000000E+00 0. -1.
         22    1    3    3    0    0  0.37416728816E+02 -0.25196505964E+02 -0.27370818576E+02  0.52763976514E+02  0.00000000000E+00 0. -1.
</event>
<event>
 7    1  0.6105960E-006  0.1727961E+03  0.7818608E-02  0.1184622E+00
          2   -1    0    0  502    0  0.00000000000E+00  0.00000000000E+00  0.24072106944E+04  0.24072106944E+04  0.00000000000E+00 0. -1.
          1   -1    0    0  501    0 -0.00000000000E+00 -0.00000000000E+00 -0.13958280561E+04  0.13958280561E+04  0.00000000000E+00 0. -1.
         25    2    1    2    0    0  0.18297551747E+02  0.18056021475E+03  0.30501546345E+03  0.37629250451E+03  0.12499929782E+03 0.  0.
          2    1    1    2  501    0  0.13107031655E+03 -0.82761569054E+02 -0.13518961152E+04  0.13607542068E+04  0.00000000000E+00 0. -1.
          1    1    1    2  502    0 -0.14936786829E+03 -0.97798645699E+02  0.20582632899E+04  0.20659920392E+04  0.00000000000E+00 0. -1.
         22    1    3    3    0    0 -0.74354368330E+01  0.18962684438E+03  0.28521910238E+03  0.34258365722E+03  0.00000000000E+00 0.  1.
         22    1    3    3    0    0  0.25732988580E+02 -0.90666296277E+01  0.19796361065E+02  0.33708847288E+02  0.00000000000E+00 0.  1.
</event>
<event>
 7    1  0.6105960E-006  0.9026110E+02  0.7818608E-02  0.1418721E+00
          2   -1    0    0  502    0  0.00000000000E+00  0.00000000000E+00  0.27791377847E+03  0.27791377847E+03  0.00000000000E+00 0. -1.
          1   -1    0    0  501    0 -0.00000000000E+00 -0.00000000000E+00 -0.35510250143E+03  0.35510250143E+03  0.00000000000E+00 0. -1.
         25    2    1    2    0    0  0.34573943498E+02  0.95457805509E+02 -0.24724544332E+03  0.29506364573E+03  0.12499878235E+03 0.  0.
          2    1    1    2  501    0 -0.33441534100E+02 -0.53773502761E+01 -0.72057566915E+02  0.79621260030E+02  0.00000000000E+00 0. -1.
          1    1    1    2  502    0 -0.11324093973E+01 -0.90080455233E+02  0.24211428727E+03  0.25833137414E+03  0.00000000000E+00 0. -1.
         22    1    3    3    0    0  0.44982347089E+02 -0.91989274958E+01 -0.33471818511E+02  0.56818962073E+02  0.00000000000E+00 0.  1.
         22    1    3    3    0    0 -0.10408403591E+02  0.10465673301E+03 -0.21377362481E+03  0.23824468366E+03  0.00000000000E+00 0.  1.
</event>
<event>
 7    1  0.6105960E-006  0.5659698E+02  0.7818608E-02  0.1454794E+00
          2   -1    0    0  502    0  0.00000000000E+00  0.00000000000E+00  0.95597056211E+03  0.95597056211E+03  0.00000000000E+00 0. -1.
          1   -1    0    0  501    0 -0.00000000000E+00 -0.00000000000E+00 -0.35965596638E+02  0.35965596638E+02  0.00000000000E+00 0. -1.
         25    2    1    2    0    0 -0.10385822182E+02  0.21098217637E+02  0.42120121626E+03  0.43998876978E+03  0.12500661126E+03 0.  0.
          2    1    1    2  501    0 -0.41012491292E+01  0.40996178387E+02 -0.73003177369E+01  0.41842580296E+02  0.00000000000E+00 0. -1.
          1    1    1    2  502    0  0.14487071311E+02 -0.62094396024E+02  0.50610406695E+03  0.51010480867E+03  0.00000000000E+00 0. -1.
         22    1    3    3    0    0  0.25915060954E+02  0.51695679684E+02  0.34778181837E+03  0.35255670022E+03  0.00000000000E+00 0. -1.
         22    1    3    3    0    0 -0.36300883136E+02 -0.30597462047E+02  0.73419397894E+02  0.87432069558E+02  0.00000000000E+00 0. -1.
</event>
<event>
 7    1  0.6105960E-006  0.6372793E+02  0.7818608E-02  0.1513900E+00
          2   -1    0    0  502    0  0.00000000000E+00  0.00000000000E+00  0.10810775001E+03  0.10810775001E+03  0.00000000000E+00 0. -1.
          1   -1    0    0  501    0 -0.00000000000E+00 -0.00000000000E+00 -0.72145908377E+03  0.72145908377E+03  0.00000000000E+00 0. -1.
         25    2    1    2    0    0 -0.16295114101E+02 -0.41498494108E+02 -0.38164351680E+02  0.13809287095E+03  0.12500187003E+03 0.  0.
          2    1    1    2  501    0 -0.14724070758E+02 -0.19152977672E+02 -0.61305653684E+03  0.61353235626E+03  0.00000000000E+00 0. -1.
          1    1    1    2  502    0  0.31019184860E+02  0.60651471780E+02  0.37869554753E+02  0.77941606576E+02  0.00000000000E+00 0. -1.
         22    1    3    3    0    0 -0.14692941549E+02 -0.39487563923E+02 -0.83054040847E+02  0.93129608272E+02  0.00000000000E+00 0.  1.
         22    1    3    3    0    0 -0.16021725523E+01 -0.20109301846E+01  0.44889689167E+02  0.44963262677E+02  0.00000000000E+00 0.  1.
</event>
<event>
 7    1  0.6105960E-006  0.9493420E+02  0.7818608E-02  0.1291919E+00
          2   -1    0    0  502    0  0.00000000000E+00  0.00000000000E+00  0.17602529283E+04  0.17602529283E+04  0.00000000000E+00 0. -1.
          1   -1    0    0  501    0 -0.00000000000E+00 -0.00000000000E+00 -0.14796944831E+04  0.14796944831E+04  0.00000000000E+00 0. -1.
         25    2    1    2    0    0 -0.52630826194E+01  0.36988334047E+02  0.60402981519E+02  0.14376812023E+03  0.12499966129E+03 0.  0.
          2    1    1    2  501    0  0.95468868932E+02 -0.74008612328E+01 -0.14350562367E+04  0.14382473640E+04  0.00000000000E+00 0. -1.
          1    1    1    2  502    0 -0.90205786312E+02 -0.29587472814E+02  0.16552117003E+04  0.16579319272E+04  0.00000000000E+00 0. -1.
         22    1    3    3    0    0 -0.37717027401E+02  0.74413978276E+01 -0.26306937229E+02  0.46583296406E+02  0.00000000000E+00 0. -1.
         22    1    3    3    0    0  0.32453944782E+02  0.29546936220E+02  0.86709918748E+02  0.97184823822E+02  0.00000000000E+00 0. -1.
</event>
<event>
 7    1  0.6105960E-006  0.8721670E+02  0.7818608E-02  0.1340657E+00
          2   -1    0    0  502    0  0.00000000000E+00  0.00000000000E+00  0.24580881579E+04  0.24580881579E+04  0.00000000000E+00 0. -1.
          1   -1    0    0  501    0 -0.00000000000E+00 -0.00000000000E+00 -0.37983890762E+02  0.37983890762E+02  0.00000000000E+00 0. -1.
         25    2    1    2    0    0  0.12696675960E+03  0.24198330230E+02  0.29377759441E+03  0.34443601642E+03  0.12499910882E+03 0.  0.
          2    1    1    2  501    0 -0.62571602447E+02 -0.40013365634E+02  0.10174883712E+03  0.12597261892E+03  0.00000000000E+00 0. -1.
          1    1    1    2  502    0 -0.64395157154E+02  0.15815035403E+02  0.20245778356E+04  0.20256634133E+04  0.00000000000E+00 0. -1.
         22    1    3    3    0    0  0.19179341388E+02 -0.46446411248E+02  0.69423197266E+02  0.85701205199E+02  0.00000000000E+00 0.  1.
         22    1    3    3    0    0  0.10778741821E+03  0.70644741479E+02  0.22435439714E+03  0.25873481123E+03  0.00000000000E+00 0.  1.
</event>
<event>
 7    1  0.6105960E-006  0.4116070E+02  0.7818608E-02  0.1549997E+00
          2   -1    0    0  502    0  0.00000000000E+00  0.00000000000E+00  0.56938022314E+02  0.56938022314E+02  0.00000000000E+00 0. -1.
          1   -1    0    0  501    0 -0.00000000000E+00 -0.00000000000E+00 -0.82823382900E+03  0.82823382900E+03  0.00000000000E+00 0. -1.
         25    2    1    2    0    0  0.68365425040E+02 -0.33040090639E+01 -0.19460652379E+03  0.24120760499E+03  0.12499864713E+03 0.  0.
          2    1    1    2  501    0 -0.39405547716E+02  0.88989265838E+01 -0.60305256863E+03  0.60440415999E+03  0.00000000000E+00 0. -1.
          1    1    1    2  502    0 -0.28959877324E+02 -0.55949175199E+01  0.26363285732E+02  0.39560086340E+02  0.00000000000E+00 0. -1.
         22    1    3    3    0    0  0.49042498650E+02 -0.58332988555E+02 -0.69359112192E+02  0.10304654614E+03  0.00000000000E+00 0. -1.
         22    1    3    3    0    0  0.19322926390E+02  0.55028979492E+02 -0.12524741160E+03  0.13816105884E+03  0.00000000000E+00 0. -1.
</event>
<event>
 7    1  0.6105960E-006  0.6448532E+02  0.7818608E-02  0.1408407E+00
          2   -1    0    0  502    0  0.00000000000E+00  0.00000000000E+00  0.11088459214E+03  0.11088459214E+03  0.00000000000E+00 0. -1.
          1   -1    0    0  501    0 -0.00000000000E+00 -0.00000000000E+00 -0.20292628589E+03  0.20292628589E+03  0.00000000000E+00 0. -1.
         25    2    1    2    0    0  0.25968103546E+02  0.14042743167E+01 -0.37553031718E+02  0.13308468370E+03  0.12499995382E+03 0.  0.
          2    1    1    2  501    0  0.49442670718E+02 -0.13908975916E+02 -0.84270305811E+02  0.98689015297E+02  0.00000000000E+00 0. -1.
          1    1    1    2  502    0 -0.75410774265E+02  0.12504701600E+02  0.29781643775E+02  0.82037179030E+02  0.00000000000E+00 0. -1.
         22    1    3    3    0    0  0.15616373308E+02 -0.61269134465E+02 -0.26733285085E+02  0.68647261306E+02  0.00000000000E+00 0.  1.
         22    1    3    3    0    0  0.10351730239E+02  0.62673408782E+02 -0.10819746633E+02  0.64437422392E+02  0.00000000000E+00 0.  1.
</event>
<event>
 7    1  0.6105960E-006  0.1087116E+03  0.7818608E-02  0.1318988E+00
          2   -1    0    0  502    0  0.00000000000E+00  0.00000000000E+00  0.86322606552E+03  0.86322606552E+03  0.00000000000E+00 0. -1.
          1   -1    0    0  501    0 -0.00000000000E+00 -0.00000000000E+00 -0.38141620121E+03  0.38141620121E+03  0.00000000000E+00 0. -1.
         25    2    1    2    0    0 -0.55500691118E+02  0.77123235411E+02  0.40605575276E+03  0.43535673108E+03  0.12500355512E+03 0.  0.
          2    1    1    2  501    0  0.10373896173E+03 -0.34497080719E+02 -0.35618032057E+03  0.37258051683E+03  0.00000000000E+00 0. -1.
          1    1    1    2  502    0 -0.48238270616E+02 -0.42626154692E+02  0.43193443211E+03  0.43670501882E+03  0.00000000000E+00 0. -1.
         22    1    3    3    0    0 -0.56062050581E+02  0.22973351473E+02  0.60633900675E+02  0.85715799619E+02  0.00000000000E+00 0. -1.
         22    1    3    3    0    0  0.56135946319E+00  0.54149883938E+02  0.34542185209E+03  0.34964093146E+03  0.00000000000E+00 0. -1.
</event>
<event>
 7    1  0.6105960E-006  0.8479023E+02  0.7818608E-02  0.1402297E+00
          2   -1    0    0  502    0  0.00000000000E+00  0.00000000000E+00  0.47632908601E+02  0.47632908601E+02  0.00000000000E+00 0. -1.
          1   -1    0    0  501    0 -0.00000000000E+00 -0.00000000000E+00 -0.53862790491E+03  0.53862790491E+03  0.00000000000E+00 0. -1.
         25    2    1    2    0    0 -0.84920339651E+02  0.27668460757E+02 -0.23646931138E+03  0.28199541733E+03  0.12500668929E+03 0.  0.
          2    1    1    2  501    0  0.27014928232E+00 -0.40982017278E+02 -0.19661590798E+03  0.20084176357E+03  0.00000000000E+00 0. -1.
          1    1    1    2  502    0  0.84650190369E+02  0.13313556520E+02 -0.57909776956E+02  0.10342363262E+03  0.00000000000E+00 0. -1.
         22    1    3    3    0    0 -0.32282381404E+02 -0.28309394137E+02 -0.11769658312E+02  0.44520768213E+02  0.00000000000E+00 0.  1.
         22    1    3    3    0    0 -0.52637958247E+02  0.55977854894E+02 -0.22469965306E+03  0.23747464912E+03  0.00000000000E+00 0.  1.
</event>
<event>
 7    1  0.6105960E-006  0.1873821E+03  0.7818608E-02  0.1311284E+00
          2   -1    0    0  502    0  0.00000000000E+00  0.00000000000E+00  0.13780758558E+04  0.13780758558E+04  0.00000000000E+00 0. -1.
          1   -1    0    0  501    0 -0.00000000000E+00 -0.00000000000E+00 -0.61068097181E+03  0.61068097181E+03  0.00000000000E+00 0. -1.
         25    2    1    2    0    0  0.73096707375E+02  0.14444195878E+03  0.47066947141E+03  0.51318837001E+03  0.12500377480E+03 0.  0.
          2    1    1    2  501    0  0.98483018573E+01  0.38798616825E+02 -0.57730580743E+03  0.57869190162E+03  0.00000000000E+00 0. -1.
          1    1    1    2  502    0 -0.82945009232E+02 -0.18324057561E+03  0.87403122005E+03  0.89687655601E+03  0.00000000000E+00 0. -1.
         22    1    3    3    0    0 -0.13068555704E+02  0.15813601904E+02  0.20249634090E+03  0.20353286033E+03  0.00000000000E+00 0.  1.
         22    1    3    3    0    0  0.86165263079E+02  0.12862835688E+03  0.26817313051E+03  0.30965550969E+03  0.00000000000E+00 0.  1.
</event>
<event>
 7    1  0.6105960E-006  0.1479729E+03  0.7818608E-02  0.1208297E+00
          2   -1    0    0  502    0  0.00000000000E+00  0.00000000000E+00  0.15118272318E+03  0.15118272318E+03  0.00000000000E+00 0. -1.
          1   -1    0    0  501    0 -0.00000000000E+00 -0.00000000000E+00 -0.11501482565E+04  0.11501482565E+04  0.00000000000E+00 0. -1.
         25    2    1    2    0    0 -0.79373934551E+02  0.10484449464E+03 -0.20761161935E+03  0.27571822195E+03  0.12500145553E+03 0.  0.
          2    1    1    2  501    0  0.12997827097E+03  0.51359859457E+02 -0.84220491227E+03  0.85372202755E+03  0.00000000000E+00 0. -1.
          1    1    1    2  502    0 -0.50604336417E+02 -0.15620435409E+03  0.50850998279E+02  0.17189073020E+03  0.00000000000E+00 0. -1.
         22    1    3    3    0    0 -0.37206332748E+02  0.12694472751E+03 -0.16769468195E+03  0.21359021839E+03  0.00000000000E+00 0.  1.
         22    1    3    3    0    0 -0.42167601803E+02 -0.22100232871E+02 -0.39916937403E+02  0.62128003560E+02  0.00000000000E+00 0.  1.
</event>
<event>
 7    1  0.6105960E-006  0.1112094E+03  0.7818608E-02  0.1379905E+00
          2   -1    0    0  502    0  0.00000000000E+00  0.00000000000E+00  0.23197481157E+02  0.23197481157E+02  0.00000000000E+00 0. -1.
          1   -1    0    0  501    0 -0.00000000000E+00 -0.00000000000E+00 -0.36110902001E+04  0.36110902001E+04  0.00000000000E+00 0. -1.
         25    2    1    2    0    0 -0.50986729903E+02  0.58585566187E+02 -0.18510723491E+04  0.18569128367E+04  0.12499810557E+03 0.  0.
          2    1    1    2  501    0 -0.16284225679E+02  0.33664316138E+02 -0.15944066796E+04  0.15948451718E+04  0.00000000000E+00 0. -1.
          1    1    1    2  502    0  0.67270955582E+02 -0.92249882325E+02 -0.14241369036E+03  0.18252967281E+03  0.00000000000E+00 0. -1.
         22    1    3    3    0    0 -0.67259883937E+02 -0.15972128318E+02 -0.73960247058E+03  0.74282623497E+03  0.00000000000E+00 0.  1.
         22    1    3    3    0    0  0.16273154034E+02  0.74557694505E+02 -0.11114698785E+04  0.11140866017E+04  0.00000000000E+00 0.  1.
</event>
<event>
 7    1  0.6105960E-006  0.1419397E+03  0.7818608E-02  0.1276703E+00
          2   -1    0    0  502    0  0.00000000000E+00  0.00000000000E+00  0.33703129601E+04  0.33703129601E+04  0.00000000000E+00 0. -1.
          1   -1    0    0  501    0 -0.00000000000E+00 -0.00000000000E+00 -0.20769338633E+03  0.20769338633E+03  0.00000000000E+00 0. -1.
         25    2    1    2    0    0 -0.15549635738E+03 -0.18767278306E+02  0.39746962207E+03  0.44512704253E+03  0.12499862251E+03 0.  0.
          2    1    1    2  501    0  0.11696242753E+03  0.80661003986E+02 -0.15589435617E+03  0.21092524103E+03  0.00000000000E+00 0. -1.
          1    1    1    2  502    0  0.38533929848E+02 -0.61893725680E+02  0.29210443078E+04  0.29219540628E+04  0.00000000000E+00 0. -1.
         22    1    3    3    0    0 -0.60845338478E+02 -0.65389166738E+02  0.23501745514E+03  0.25141818263E+03  0.00000000000E+00 0.  1.
         22    1    3    3    0    0 -0.94651018901E+02  0.46621888432E+02  0.16245216693E+03  0.19370885989E+03  0.00000000000E+00 0.  1.
</event>
<event>
 7    1  0.6105960E-006  0.4080453E+02  0.7818608E-02  0.1558691E+00
          2   -1    0    0  502    0  0.00000000000E+00  0.00000000000E+00  0.13384637913E+04  0.13384637913E+04  0.00000000000E+00 0. -1.
          1   -1    0    0  501    0 -0.00000000000E+00 -0.00000000000E+00 -0.36441183572E+03  0.36441183572E+03  0.00000000000E+00 0. -1.
         25    2    1    2    0    0 -0.28940102910E+02 -0.22884068177E+02 -0.78878778651E+02  0.15235233757E+03  0.12501265099E+03 0.  0.
          2    1    1    2  501    0  0.41341303153E+02 -0.23825994367E+01 -0.24691980061E+03  0.25036806518E+03  0.00000000000E+00 0. -1.
          1    1    1    2  502    0 -0.12401200242E+02  0.25266667614E+02  0.12998505349E+04  0.13001552243E+04  0.00000000000E+00 0. -1.
         22    1    3    3    0    0 -0.39901756218E+02  0.39932214919E+02 -0.66790433319E+02  0.87451094450E+02  0.00000000000E+00 0. -1.
         22    1    3    3    0    0  0.10961653308E+02 -0.62816283096E+02 -0.12088345333E+02  0.64901243117E+02  0.00000000000E+00 0. -1.
</event>
<event>
 7    1  0.6105960E-006  0.3198177E+03  0.7818608E-02  0.1195220E+00
          2   -1    0    0  502    0  0.00000000000E+00  0.00000000000E+00  0.32929258036E+03  0.32929258036E+03  0.00000000000E+00 0. -1.
          1   -1    0    0  501    0 -0.00000000000E+00 -0.00000000000E+00 -0.10963186643E+04  0.10963186643E+04  0.00000000000E+00 0. -1.
         25    2    1    2    0    0  0.29207640277E+03 -0.92776508972E+02 -0.47122677757E+03  0.57584266989E+03  0.12499599552E+03 0.  0.
          2    1    1    2  501    0 -0.14322413468E+02 -0.73108728724E+02 -0.47440668447E+03  0.48022049104E+03  0.00000000000E+00 0. -1.
          1    1    1    2  502    0 -0.27775398930E+03  0.16588523770E+03  0.17860737811E+03  0.36954808371E+03  0.00000000000E+00 0. -1.
         22    1    3    3    0    0  0.24975246478E+03 -0.43717567898E+02 -0.42956286219E+03  0.49881035673E+03  0.00000000000E+00 0.  1.
         22    1    3    3    0    0  0.42323937987E+02 -0.49058941074E+02 -0.41663915378E+02  0.77032313159E+02  0.00000000000E+00 0.  1.
</event>
<event>
 7    1  0.6105960E-006  0.1063855E+03  0.7818608E-02  0.1375735E+00
          2   -1    0    0  502    0  0.00000000000E+00  0.00000000000E+00  0.15611142526E+04  0.15611142526E+04  0.00000000000E+00 0. -1.
          1   -1    0    0  501    0 -0.00000000000E+00 -0.00000000000E+00 -0.25224857320E+03  0.25224857320E+03  0.00000000000E+00 0. -1.
         25    2    1    2    0    0  0.89867037754E+02 -0.98053823303E+01  0.16166867808E+03  0.22345183463E+03  0.12498692303E+03 0.  0.
          2    1    1    2  501    0  0.58248617823E+01 -0.40026945244E+02 -0.21736198630E+03  0.22109346089E+03  0.00000000000E+00 0. -1.
          1    1    1    2  502    0 -0.95691899536E+02  0.49832327574E+02  0.13645589876E+04  0.13688175303E+04  0.00000000000E+00 0. -1.
         22    1    3    3    0    0  0.96671591702E+02 -0.41410608448E+02  0.70217780438E+02  0.12645462358E+03  0.00000000000E+00 0. -1.
         22    1    3    3    0    0 -0.68045539482E+01  0.31605226118E+02  0.91450897639E+02  0.96997211049E+02  0.00000000000E+00 0. -1.
</event>
<event>
 7    1  0.6105960E-006  0.1330259E+03  0.7818608E-02  0.1252718E+00
          2   -1    0    0  502    0  0.00000000000E+00  0.00000000000E+00  0.39047072284E+03  0.39047072284E+03  0.00000000000E+00 0. -1.
          1   -1    0    0  501    0 -0.00000000000E+00 -0.00000000000E+00 -0.14434560898E+04  0.14434560898E+04  0.00000000000E+00 0. -1.
         25    2    1    2    0    0  0.19476228357E+02  0.12274941868E+03  0.38747913233E+02  0.18047286728E+03  0.12498924669E+03 0.  0.
          2    1    1    2  501    0 -0.98205877854E+02 -0.42520957762E+01 -0.13526789803E+04  0.13562458842E+04  0.00000000000E+00 0. -1.
          1    1    1    2  502    0  0.78729649498E+02 -0.11849732290E+03  0.26094570006E+03  0.29720806117E+03  0.00000000000E+00 0. -1.
         22    1    3    3    0    0  0.17582072717E+01 -0.20678078813E+02  0.28954678344E+02  0.35623694842E+02  0.00000000000E+00 0. -1.
         22    1    3    3    0    0  0.17718021085E+02  0.14342749749E+03  0.97932348892E+01  0.14484917244E+03  0.00000000000E+00 0. -1.
</event>
<event>
 7    1  0.1104542E-005  0.7565732E+02  0.7818608E-02  0.1387319E+00
          2   -1    0    0  502    0  0.00000000000E+00  0.00000000000E+00  0.20672122177E+04  0.20672122177E+04  0.00000000000E+00 0. -1.
          1   -1    0    0  501    0 -0.00000000000E+00 -0.00000000000E+00 -0.80414938389E+03  0.80414938389E+03  0.00000000000E+00 0. -1.
         25    2    1    2    0    0  0.82265750271E+02  0.73854515173E+02 -0.12721844183E+03  0.20983253269E+03  0.12499206676E+03 0.  0.
          2    1    1    2  501    0 -0.30891553677E+02 -0.67542709662E+02 -0.63312215839E+03  0.63746370341E+03  0.00000000000E+00 0. -1.
          1    1    1    2  502    0 -0.51374196594E+02 -0.63118055117E+01  0.20234034340E+04  0.20240653655E+04  0.00000000000E+00 0. -1.
         22    1    3    3    0    0 -0.91137064944E+01 -0.14004037865E+02 -0.67808239027E+02  0.69836451818E+02  0.00000000000E+00 0.  1.
         22    1    3    3    0    0  0.91379456766E+02  0.87858553039E+02 -0.59410202805E+02  0.13999608087E+03  0.00000000000E+00 0.  1.
</event>
<event>
 7    1  0.6105960E-006  0.1047227E+03  0.7818608E-02  0.1313487E+00
          2   -1    0    0  502    0  0.00000000000E+00  0.00000000000E+00  0.15337197680E+03  0.15337197680E+03  0.00000000000E+00 0. -1.
          1   -1    0    0  501    0 -0.00000000000E+00 -0.00000000000E+00 -0.50315901147E+03  0.50315901147E+03  0.00000000000E+00 0. -1.
         25    2    1    2    0    0 -0.67386267387E+02 -0.39751536593E+02 -0.12502855792E+03  0.19335351434E+03  0.12502938661E+03 0.  0.
          2    1    1    2  501    0  0.11584278222E+03 -0.11058917850E+02 -0.32248782855E+03  0.34284143481E+03  0.00000000000E+00 0. -1.
          1    1    1    2  502    0 -0.48456514836E+02  0.50810454443E+02  0.97729351793E+02  0.12033603913E+03  0.00000000000E+00 0. -1.
         22    1    3    3    0    0  0.19160975271E+02  0.29950202587E+02 -0.39351611747E+02  0.53034959748E+02  0.00000000000E+00 0. -1.
         22    1    3    3    0    0 -0.86547242659E+02 -0.69701739179E+02 -0.85676946172E+02  0.14031855459E+03  0.00000000000E+00 0. -1.
</event>
<event>
 7    1  0.6105960E-006  0.8351140E+02  0.7818608E-02  0.1435482E+00
          2   -1    0    0  502    0  0.00000000000E+00  0.00000000000E+00  0.24361469959E+04  0.24361469959E+04  0.00000000000E+00 0. -1.
          1   -1    0    0  501    0 -0.00000000000E+00 -0.00000000000E+00 -0.20836455233E+02  0.20836455233E+02  0.00000000000E+00 0. -1.
         25    2    1    2    0    0 -0.55141365226E+01  0.59626994330E+02  0.41359991727E+03  0.43618979261E+03  0.12494342504E+03 0.  0.
          2    1    1    2  501    0 -0.24956765386E+02  0.20384083485E+02  0.21510289654E+02  0.38743303409E+02  0.00000000000E+00 0. -1.
          1    1    1    2  502    0  0.30470901908E+02 -0.80011077816E+02  0.19802003338E+04  0.19820503551E+04  0.00000000000E+00 0. -1.
         22    1    3    3    0    0  0.35256032400E+02  0.65588476099E+02  0.36479571818E+03  0.37231807910E+03  0.00000000000E+00 0.  1.
         22    1    3    3    0    0 -0.40770168923E+02 -0.59614817691E+01  0.48804199083E+02  0.63871713513E+02  0.00000000000E+00 0.  1.
</event>
<event>
 7    1  0.6105960E-006  0.1129498E+03  0.7818608E-02  0.1311083E+00
          2   -1    0    0  502    0  0.00000000000E+00  0.00000000000E+00  0.20075555101E+04  0.20075555101E+04  0.00000000000E+00 0. -1.
          1   -1    0    0  501    0 -0.00000000000E+00 -0.00000000000E+00 -0.60842407795E+03  0.60842407795E+03  0.00000000000E+00 0. -1.
         25    2    1    2    0    0  0.17590131189E+03  0.12377322652E+02  0.29492015455E+03  0.36564636702E+03  0.12499959406E+03 0.  0.
          2    1    1    2  501    0 -0.10993324524E+03 -0.20993378208E+02 -0.56692825673E+03  0.57786995823E+03  0.00000000000E+00 0. -1.
          1    1    1    2  502    0 -0.65968066653E+02  0.86160555555E+01  0.16711395343E+04  0.16724632628E+04  0.00000000000E+00 0. -1.
         22    1    3    3    0    0  0.14676618440E+03 -0.43297119731E+02  0.20029661809E+03  0.25205889922E+03  0.00000000000E+00 0. -1.
         22    1    3    3    0    0  0.29135127494E+02  0.55674442383E+02  0.94623536460E+02  0.11358746780E+03  0.00000000000E+00 0. -1.
</event>
