<event>
 7    1  0.5018917E-005  0.7549523E+03  0.7818608E-02  0.1053194E+00
          2   -1    0    0  502    0  0.00000000000E+00  0.00000000000E+00  0.18239620563E+04  0.18239620563E+04  0.00000000000E+00 0. -1.
          1   -1    0    0  501    0 -0.00000000000E+00 -0.00000000000E+00 -0.23258006529E+04  0.23258006529E+04  0.00000000000E+00 0. -1.
         25    2    1    2    0    0  0.58448354557E+03  0.49833220617E+03 -0.75025939957E+03  0.10809599037E+04  0.12501657473E+03 0.  0.
          2    1    1    2  501    0 -0.67598636703E+03 -0.33728777915E+03 -0.13031077822E+04  0.15062571183E+04  0.00000000000E+00 0. -1.
          1    1    1    2  502    0  0.91502821467E+02 -0.16104442702E+03  0.15515285852E+04  0.15625456872E+04  0.00000000000E+00 0. -1.
         22    1    3    3    0    0  0.51721743181E+03  0.42393805476E+03 -0.58953538997E+03  0.89150957486E+03  0.00000000000E+00 0.  1.
         22    1    3    3    0    0  0.67266113761E+02  0.74394151405E+02 -0.16072400961E+03  0.18945032882E+03  0.00000000000E+00 0.  1.
</event>
<event>
 7    1  0.5018917E-005  0.3291855E+03  0.7818608E-02  0.1221254E+00
          2   -1    0    0  502    0  0.00000000000E+00  0.00000000000E+00  0.12325722039E+04  0.12325722039E+04  0.00000000000E+00 0. -1.
          1   -1    0    0  501    0 -0.00000000000E+00 -0.00000000000E+00 -0.15669495710E+04  0.15669495710E+04  0.00000000000E+00 0. -1.
         25    2    1    2    0    0 -0.10481523571E+03 -0.30112062142E+03  0.78666159781E+03  0.85797511091E+03  0.12499983676E+03 0.  0.
          2    1    1    2  501    0 -0.52685452813E+02 -0.14954763281E+02 -0.14546862510E+04  0.14557168305E+04  0.00000000000E+00 0. -1.
          1    1    1    2  502    0  0.15750068852E+03  0.31607538470E+03  0.33364728606E+03  0.48582983357E+03  0.00000000000E+00 0. -1.
         22    1    3    3    0    0 -0.39869157303E+02 -0.13559870875E+03  0.19958028669E+03  0.24455848044E+03  0.00000000000E+00 0.  1.
         22    1    3    3    0    0 -0.64946078408E+02 -0.16552191267E+03  0.58708131112E+03  0.61341663047E+03  0.00000000000E+00 0.  1.
</event>
<event>
 7    1  0.5018917E-005  0.2989153E+02  0.7818608E-02  0.1648501E+00
          2   -1    0    0  502    0  0.00000000000E+00  0.00000000000E+00  0.14544334134E+03  0.14544334134E+03  0.00000000000E+00 0. -1.
          1   -1    0    0  501    0 -0.00000000000E+00 -0.00000000000E+00 -0.89941462020E+03  0.89941462020E+03  0.00000000000E+00 0. -1.
         25    2    1    2    0    0  0.46461794950E+02 -0.13583406082E+02 -0.35859514753E+02  0.13876742647E+03  0.12500914583E+03 0.  0.
          2    1    1    2  501    0 -0.24329661824E+02  0.17219662885E+02 -0.81048522230E+03  0.81103313422E+03  0.00000000000E+00 0. -1.
          1    1    1    2  502    0 -0.22132133127E+02 -0.36362568036E+01  0.92373458191E+02  0.95057400861E+02  0.00000000000E+00 0. -1.
         22    1    3    3    0    0 -0.29699374579E+02  0.92468572577E+00  0.26077710889E+02  0.39534224404E+02  0.00000000000E+00 0.  1.
         22    1    3    3    0    0  0.76161169529E+02 -0.14508091808E+02 -0.61937225641E+02  0.99233202065E+02  0.00000000000E+00 0.  1.
</event>
<event>
 7    1  0.5018917E-005  0.1944567E+03  0.7818608E-02  0.1274936E+00
          2   -1    0    0  502    0  0.00000000000E+00  0.00000000000E+00  0.53558696799E+03  0.53558696799E+03  0.00000000000E+00 0. -1.
          1   -1    0    0  501    0 -0.00000000000E+00 -0.00000000000E+00 -0.18191942700E+04  0.18191942700E+04  0.00000000000E+00 0. -1.
         25    2    1    2    0    0  0.46608662945E+02  0.17888788671E+03  0.34952139054E+03  0.41468540428E+03  0.12500215441E+03 0.  0.
          2    1    1    2  501    0 -0.34526730230E+02  0.41684566138E+02 -0.17064759594E+04  0.17073341496E+04  0.00000000000E+00 0. -1.
          1    1    1    2  502    0 -0.12081932715E+02 -0.22057245284E+03  0.73347266887E+02  0.23276168416E+03  0.00000000000E+00 0. -1.
         22    1    3    3    0    0  0.50862269914E+01  0.14238691822E+02 -0.92740672930E+01  0.17737484995E+02  0.00000000000E+00 0.  1.
         22    1    3    3    0    0  0.41522435954E+02  0.16464919488E+03  0.35879545783E+03  0.39694791928E+03  0.00000000000E+00 0.  1.
</event>
<event>
 7    1  0.5018917E-005  0.1621819E+03  0.7818608E-02  0.1233181E+00
          2   -1    0    0  502    0  0.00000000000E+00  0.00000000000E+00  0.11789134362E+04  0.11789134362E+04  0.00000000000E+00 0. -1.
          1   -1    0    0  501    0 -0.00000000000E+00 -0.00000000000E+00 -0.19409037515E+03  0.19409037515E+03  0.00000000000E+00 0. -1.
         25    2    1    2    0    0 -0.20375747601E+03 -0.13127798633E+03  0.10498734573E+04  0.10847185328E+04  0.12501600027E+03 0.  0.
          2    1    1    2  501    0  0.10638630544E+03  0.11834377875E+03 -0.95324264734E+02  0.18549935688E+03  0.00000000000E+00 0. -1.
          1    1    1    2  502    0  0.97371170568E+02  0.12934207584E+02  0.30273868497E+02  0.10278592169E+03  0.00000000000E+00 0. -1.
         22    1    3    3    0    0 -0.81056984001E+02 -0.47558654631E+02  0.18846813894E+03  0.21059985679E+03  0.00000000000E+00 0. -1.
         22    1    3    3    0    0 -0.12270049201E+03 -0.83719331700E+02  0.86140531831E+03  0.87411867596E+03  0.00000000000E+00 0. -1.
</event>
<event>
 7    1  0.5018917E-005  0.3685600E+03  0.7818608E-02  0.1171547E+00
          2   -1    0    0  502    0  0.00000000000E+00  0.00000000000E+00  0.73457119155E+03  0.73457119155E+03  0.00000000000E+00 0. -1.
          1   -1    0    0  501    0 -0.00000000000E+00 -0.00000000000E+00 -0.30983289615E+03  0.30983289615E+03  0.00000000000E+00 0. -1.
         25    2    1    2    0    0 -0.34404742103E+03  0.20592598264E+03  0.42827965792E+03  0.59985101514E+03  0.12499454678E+03 0.  0.
          2    1    1    2  501    0  0.57243697942E+02 -0.61779040531E+02 -0.78272304896E+02  0.11497845240E+03  0.00000000000E+00 0. -1.
          1    1    1    2  502    0  0.28680372309E+03 -0.14414694211E+03  0.74730942370E+02  0.32957462015E+03  0.00000000000E+00 0. -1.
         22    1    3    3    0    0 -0.21682426174E+03  0.11164341304E+03  0.34040709456E+03  0.41875291304E+03  0.00000000000E+00 0. -1.
         22    1    3    3    0    0 -0.12722315930E+03  0.94282569599E+02  0.87872563365E+02  0.18109810210E+03  0.00000000000E+00 0. -1.
</event>
<event>
 7    1  0.5018917E-005  0.7293457E+03  0.7818608E-02  0.1106538E+00
          2   -1    0    0  502    0  0.00000000000E+00  0.00000000000E+00  0.16440172793E+04  0.16440172793E+04  0.00000000000E+00 0. -1.
          1   -1    0    0  501    0 -0.00000000000E+00 -0.00000000000E+00 -0.10745189117E+04  0.10745189117E+04  0.00000000000E+00 0. -1.
         25    2    1    2    0    0  0.76428303592E+03 -0.16398324677E+02  0.88013903662E+03  0.11724623277E+04  0.12500288842E+03 0.  0.
          2    1    1    2  501    0 -0.80506330641E+02  0.47367237335E+02 -0.73487566516E+03  0.74078820704E+03  0.00000000000E+00 0. -1.
          1    1    1    2  502    0 -0.68377670528E+03 -0.30968912659E+02  0.42423499615E+03  0.80528565627E+03  0.00000000000E+00 0. -1.
         22    1    3    3    0    0  0.11330321943E+03 -0.44715453348E+02  0.16343978066E+03  0.20383732044E+03  0.00000000000E+00 0. -1.
         22    1    3    3    0    0  0.65097981649E+03  0.28317128671E+02  0.71669925596E+03  0.96862500729E+03  0.00000000000E+00 0. -1.
</event>
<event>
 7    1  0.5018917E-005  0.1364343E+04  0.7818608E-02  0.1023124E+00
          2   -1    0    0  502    0  0.00000000000E+00  0.00000000000E+00  0.11346481099E+04  0.11346481099E+04  0.00000000000E+00 0. -1.
          1   -1    0    0  501    0 -0.00000000000E+00 -0.00000000000E+00 -0.37295102202E+04  0.37295102202E+04  0.00000000000E+00 0. -1.
         25    2    1    2    0    0 -0.12364771541E+03 -0.14144320740E+04 -0.19217825585E+04  0.23926509178E+04  0.12499345079E+03 0.  0.
          2    1    1    2  501    0  0.10648648060E+02  0.13025730469E+04 -0.12906865737E+04  0.18337616442E+04  0.00000000000E+00 0. -1.
          1    1    1    2  502    0  0.11299906735E+03  0.11185902708E+03  0.61760702199E+03  0.63774576814E+03  0.00000000000E+00 0. -1.
         22    1    3    3    0    0  0.24694519105E+02 -0.14712052949E+03 -0.18987161012E+03  0.24146531386E+03  0.00000000000E+00 0. -1.
         22    1    3    3    0    0 -0.14834223451E+03 -0.12673115445E+04 -0.17319109484E+04  0.21511856039E+04  0.00000000000E+00 0. -1.
</event>
<event>
 7    1  0.5018917E-005  0.5829204E+03  0.7818608E-02  0.1138598E+00
          2   -1    0    0  502    0  0.00000000000E+00  0.00000000000E+00  0.99402014696E+03  0.99402014696E+03  0.00000000000E+00 0. -1.
          1   -1    0    0  501    0 -0.00000000000E+00 -0.00000000000E+00 -0.72712127014E+03  0.72712127014E+03  0.00000000000E+00 0. -1.
         25    2    1    2    0    0  0.51268972892E+03 -0.14982380734E+03  0.80420984554E+02  0.55442835597E+03  0.12500134304E+03 0.  0.
          2    1    1    2  501    0 -0.58746092965E+03  0.17343407736E+03 -0.29431607870E+03  0.67956727204E+03  0.00000000000E+00 0. -1.
          1    1    1    2  502    0  0.74771200725E+02 -0.23610270026E+02  0.48079397096E+03  0.48714578908E+03  0.00000000000E+00 0. -1.
         22    1    3    3    0    0  0.32937045457E+03 -0.44746479509E+02  0.13061598660E+02  0.33265259526E+03  0.00000000000E+00 0.  1.
         22    1    3    3    0    0  0.18331927435E+03 -0.10507732783E+03  0.67359385894E+02  0.22177576071E+03  0.00000000000E+00 0.  1.
</event>
<event>
 7    1  0.5018917E-005  0.2912429E+03  0.7818608E-02  0.1147749E+00
          2   -1    0    0  502    0  0.00000000000E+00  0.00000000000E+00  0.22069745677E+04  0.22069745677E+04  0.00000000000E+00 0. -1.
          1   -1    0    0  501    0 -0.00000000000E+00 -0.00000000000E+00 -0.48599773708E+04  0.48599773708E+04  0.00000000000E+00 0. -1.
         25    2    1    2    0    0 -0.37245611973E+03  0.21240447396E+03  0.12533202409E+04  0.13305178127E+04  0.12500720703E+03 0.  0.
          2    1    1    2  501    0  0.26290560274E+03 -0.12423213831E+03 -0.48115604656E+04  0.48203388983E+04  0.00000000000E+00 0. -1.
          1    1    1    2  502    0  0.10955051699E+03 -0.88172335643E+02  0.90523742161E+03  0.91609522760E+03  0.00000000000E+00 0. -1.
         22    1    3    3    0    0 -0.34603314206E+03  0.16884749463E+03  0.98845593247E+03  0.10607985399E+04  0.00000000000E+00 0.  1.
         22    1    3    3    0    0 -0.26422977667E+02  0.43556979325E+02  0.26486430845E+03  0.26971927274E+03  0.00000000000E+00 0.  1.
</event>
<event>
 7    1  0.5018917E-005  0.6715630E+03  0.7818608E-02  0.1232928E+00
          2   -1    0    0  502    0  0.00000000000E+00  0.00000000000E+00  0.24580781232E+04  0.24580781232E+04  0.00000000000E+00 0. -1.
          1   -1    0    0  501    0 -0.00000000000E+00 -0.00000000000E+00 -0.22507958326E+03  0.22507958326E+03  0.00000000000E+00 0. -1.
         25    2    1    2    0    0 -0.24816907362E+03  0.63815669195E+03  0.10539820715E+04  0.12630655481E+04  0.12499807705E+03 0.  0.
          2    1    1    2  501    0  0.97114279471E+01 -0.21710042279E+02 -0.32341043043E+02  0.40144499419E+02  0.00000000000E+00 0. -1.
          1    1    1    2  502    0  0.23845764568E+03 -0.61644664967E+03  0.12113575115E+04  0.13799476589E+04  0.00000000000E+00 0. -1.
         22    1    3    3    0    0 -0.12905310104E+03  0.18400760223E+03  0.30005142216E+03  0.37489245992E+03  0.00000000000E+00 0.  1.
         22    1    3    3    0    0 -0.11911597259E+03  0.45414908972E+03  0.75393064930E+03  0.88817308819E+03  0.00000000000E+00 0.  1.
</event>
<event>
 7    1  0.5018917E-005  0.3016662E+03  0.7818608E-02  0.1300109E+00
          2   -1    0    0  502    0  0.00000000000E+00  0.00000000000E+00  0.18810699976E+04  0.18810699976E+04  0.00000000000E+00 0. -1.
          1   -1    0    0  501    0 -0.00000000000E+00 -0.00000000000E+00 -0.28530707787E+03  0.28530707787E+03  0.00000000000E+00 0. -1.
         25    2    1    2    0    0 -0.24455229579E+03  0.18086345047E+03  0.17367905933E+04  0.17676487615E+04  0.12499266354E+03 0.  0.
          2    1    1    2  501    0  0.18410059807E+02 -0.20477772340E+02 -0.11728043319E+03  0.12046978655E+03  0.00000000000E+00 0. -1.
          1    1    1    2  502    0  0.22614223598E+03 -0.16038567813E+03 -0.23747240404E+02  0.27825852740E+03  0.00000000000E+00 0. -1.
         22    1    3    3    0    0 -0.25801876096E+03  0.17988130095E+03  0.16363832289E+04  0.16663376114E+04  0.00000000000E+00 0. -1.
         22    1    3    3    0    0  0.13466465165E+02  0.98214952757E+00  0.10040736442E+03  0.10131115008E+03  0.00000000000E+00 0. -1.
</event>
<event>
 7    1  0.1039211E-004  0.4344266E+03  0.7818608E-02  0.1151429E+00
          2   -1    0    0  502    0  0.00000000000E+00  0.00000000000E+00  0.24433373530E+04  0.24433373530E+04  0.00000000000E+00 0. -1.
          1   -1    0    0  501    0 -0.00000000000E+00 -0.00000000000E+00 -0.15011924692E+04  0.15011924692E+04  0.00000000000E+00 0. -1.
         25    2    1    2    0    0 -0.29660835636E+03  0.39353561810E+03 -0.59017621058E+03  0.77895944935E+03  0.12499225748E+03 0.  0.
          2    1    1    2  501    0  0.25291530097E+03 -0.31456469254E+03 -0.76580957798E+03  0.86566818411E+03  0.00000000000E+00 0. -1.
          1    1    1    2  502    0  0.43693055394E+02 -0.78970925558E+02  0.22981306724E+04  0.22999021887E+04  0.00000000000E+00 0. -1.
         22    1    3    3    0    0 -0.18300202697E+03  0.30991832384E+03 -0.48011493643E+03  0.60004121651E+03  0.00000000000E+00 0.  1.
         22    1    3    3    0    0 -0.11360632939E+03  0.83617294254E+02 -0.11006127415E+03  0.17891823284E+03  0.00000000000E+00 0.  1.
</event>
<event>
 7    1  0.5018917E-005  0.2318781E+03  0.7818608E-02  0.1203306E+00
          2   -1    0    0  502    0  0.00000000000E+00  0.00000000000E+00  0.39243381388E+03  0.39243381388E+03  0.00000000000E+00 0. -1.
          1   -1    0    0  501    0 -0.00000000000E+00 -0.00000000000E+00 -0.12006058310E+04  0.12006058310E+04  0.00000000000E+00 0. -1.
         25    2    1    2    0    0 -0.15084884263E+03  0.20343170047E+03  0.30050170374E+03  0.41238852539E+03  0.12499276717E+03 0.  0.
          2    1    1    2  501    0  0.62222936771E+02 -0.70596060887E+02 -0.95301579066E+03  0.95765055993E+03  0.00000000000E+00 0. -1.
          1    1    1    2  502    0  0.88625905857E+02 -0.13283563958E+03 -0.15565793017E+03  0.22300055954E+03  0.00000000000E+00 0. -1.
         22    1    3    3    0    0 -0.93734526781E+02  0.11724520802E+03  0.82915854430E+02  0.17148655700E+03  0.00000000000E+00 0.  1.
         22    1    3    3    0    0 -0.57114315848E+02  0.86186492447E+02  0.21758584931E+03  0.24090196839E+03  0.00000000000E+00 0.  1.
</event>
<event>
 7    1  0.5018917E-005  0.7549230E+03  0.7818608E-02  0.1141695E+00
          2   -1    0    0  502    0  0.00000000000E+00  0.00000000000E+00  0.77136066855E+03  0.77136066855E+03  0.00000000000E+00 0. -1.
          1   -1    0    0  501    0 -0.00000000000E+00 -0.00000000000E+00 -0.21937066935E+04  0.21937066935E+04  0.00000000000E+00 0. -1.
         25    2    1    2    0    0 -0.23565426300E+03  0.69113412297E+03 -0.20359367282E+03  0.76829369796E+03  0.12500206040E+03 0.  0.
          2    1    1    2  501    0  0.27946702052E+02  0.51194741030E+02 -0.14030063825E+04  0.14042182270E+04  0.00000000000E+00 0. -1.
          1    1    1    2  502    0  0.20770756095E+03 -0.74232886400E+03  0.18425403035E+03  0.79255543712E+03  0.00000000000E+00 0. -1.
         22    1    3    3    0    0 -0.15537969942E+03  0.36550857792E+03 -0.16729533533E+03  0.43096067193E+03  0.00000000000E+00 0.  1.
         22    1    3    3    0    0 -0.80274563584E+02  0.32562554505E+03 -0.36298337495E+02  0.33733302603E+03  0.00000000000E+00 0.  1.
</event>
<event>
 7    1  0.9470296E-005  0.1201166E+03  0.7818608E-02  0.1279633E+00
          2   -1    0    0  502    0  0.00000000000E+00  0.00000000000E+00  0.19336686091E+04  0.19336686091E+04  0.00000000000E+00 0. -1.
          1   -1    0    0  501    0 -0.00000000000E+00 -0.00000000000E+00 -0.25575650280E+04  0.25575650280E+04  0.00000000000E+00 0. -1.
         25    2    1    2    0    0  0.24690433621E+02  0.18551693553E+03 -0.18703007872E+04  0.18837923339E+04  0.12498948619E+03 0.  0.
          2    1    1    2  501    0 -0.49013111387E+02 -0.67946311339E+02 -0.67606015801E+03  0.68123147575E+03  0.00000000000E+00 0. -1.
          1    1    1    2  502    0  0.24322677766E+02 -0.11757062419E+03  0.19224645263E+04  0.19262098275E+04  0.00000000000E+00 0. -1.
         22    1    3    3    0    0  0.22684147575E+02  0.17719498373E+02 -0.79103564256E+03  0.79155918223E+03  0.00000000000E+00 0.  1.
         22    1    3    3    0    0  0.20062860454E+01  0.16779743716E+03 -0.10792651446E+04  0.10922331516E+04  0.00000000000E+00 0.  1.
</event>
<event>
 7    1  0.5018917E-005  0.5522889E+03  0.7818608E-02  0.1036851E+00
          2   -1    0    0  502    0  0.00000000000E+00  0.00000000000E+00  0.15783486800E+04  0.15783486800E+04  0.00000000000E+00 0. -1.
          1   -1    0    0  501    0 -0.00000000000E+00 -0.00000000000E+00 -0.12553574914E+04  0.12553574914E+04  0.00000000000E+00 0. -1.
         25    2    1    2    0    0 -0.61056736919E+03 -0.25421909891E+03  0.53492767663E+03  0.85976288965E+03  0.12499897850E+03 0.  0.
          2    1    1    2  501    0  0.28169959381E+03 -0.15266099492E+03 -0.98763508623E+03  0.10383078080E+04  0.00000000000E+00 0. -1.
          1    1    1    2  502    0  0.32886777539E+03  0.40688009384E+03  0.77569859818E+03  0.93563547371E+03  0.00000000000E+00 0. -1.
         22    1    3    3    0    0 -0.50389078266E+03 -0.24783370955E+03  0.40957475647E+03  0.69503881156E+03  0.00000000000E+00 0. -1.
         22    1    3    3    0    0 -0.10667658653E+03 -0.63853893679E+01  0.12535292015E+03  0.16472407809E+03  0.00000000000E+00 0. -1.
</event>
<event>
 7    1  0.5018917E-005  0.5899545E+03  0.7818608E-02  0.1222810E+00
          2   -1    0    0  502    0  0.00000000000E+00  0.00000000000E+00  0.68596635513E+03  0.68596635513E+03  0.00000000000E+00 0. -1.
          1   -1    0    0  501    0 -0.00000000000E+00 -0.00000000000E+00 -0.11364863607E+04  0.11364863607E+04  0.00000000000E+00 0. -1.
         25    2    1    2    0    0 -0.52439362957E+03  0.27823069068E+03 -0.48273490793E+03  0.77527910379E+03  0.12499480578E+03 0.  0.
          2    1    1    2  501    0  0.50354126298E+03 -0.29988988848E+03 -0.33745262397E+03  0.67628545908E+03  0.00000000000E+00 0. -1.
          1    1    1    2  502    0  0.20852366585E+02  0.21659197803E+02  0.36966752629E+03  0.37088815300E+03  0.00000000000E+00 0. -1.
         22    1    3    3    0    0 -0.43501736153E+03  0.26187993239E+03 -0.45070993042E+03  0.67894082599E+03  0.00000000000E+00 0.  1.
         22    1    3    3    0    0 -0.89376268037E+02  0.16350758287E+02 -0.32024977519E+02  0.96338277802E+02  0.00000000000E+00 0.  1.
</event>
<event>
 7    1  0.5018917E-005  0.9929544E+03  0.7818608E-02  0.1104371E+00
          2   -1    0    0  502    0  0.00000000000E+00  0.00000000000E+00  0.23036663232E+04  0.23036663232E+04  0.00000000000E+00 0. -1.
          1   -1    0    0  501    0 -0.00000000000E+00 -0.00000000000E+00 -0.10002790645E+04  0.10002790645E+04  0.00000000000E+00 0. -1.
         25    2    1    2    0    0  0.65681645326E+03  0.77678804684E+03  0.13993548257E+04  0.17345395458E+04  0.12500393805E+03 0.  0.
          2    1    1    2  501    0 -0.32371135625E+02 -0.62680494075E+02 -0.52397196256E+03  0.52869968064E+03  0.00000000000E+00 0. -1.
          1    1    1    2  502    0 -0.62444531763E+03 -0.71410755277E+03  0.42800439555E+03  0.10407061613E+04  0.00000000000E+00 0. -1.
         22    1    3    3    0    0  0.49561897876E+03  0.65461874014E+03  0.11597255264E+04  0.14209599444E+04  0.00000000000E+00 0. -1.
         22    1    3    3    0    0  0.16119747450E+03  0.12216930671E+03  0.23962929939E+03  0.31357960140E+03  0.00000000000E+00 0. -1.
</event>
<event>
 7    1  0.5018917E-005  0.6728248E+03  0.7818608E-02  0.1130227E+00
          2   -1    0    0  502    0  0.00000000000E+00  0.00000000000E+00  0.20417687032E+04  0.20417687032E+04  0.00000000000E+00 0. -1.
          1   -1    0    0  501    0 -0.00000000000E+00 -0.00000000000E+00 -0.68864582432E+03  0.68864582432E+03  0.00000000000E+00 0. -1.
         25    2    1    2    0    0  0.67579767676E+03 -0.25759748120E+03  0.35707229529E+03  0.81620121212E+03  0.12499932949E+03 0.  0.
          2    1    1    2  501    0 -0.61879011590E+03  0.20851464787E+03 -0.22514539021E+03  0.69070255005E+03  0.00000000000E+00 0. -1.
          1    1    1    2  502    0 -0.57007560861E+02  0.49082833326E+02  0.12211959738E+04  0.12235107654E+04  0.00000000000E+00 0. -1.
         22    1    3    3    0    0  0.25858892868E+03 -0.40721803201E+02  0.15657854027E+03  0.30503006174E+03  0.00000000000E+00 0. -1.
         22    1    3    3    0    0  0.41720874808E+03 -0.21687567800E+03  0.20049375502E+03  0.51117115038E+03  0.00000000000E+00 0. -1.
</event>
<event>
 7    1  0.5018917E-005  0.1282684E+04  0.7818608E-02  0.1010417E+00
          2   -1    0    0  502    0  0.00000000000E+00  0.00000000000E+00  0.19472835437E+04  0.19472835437E+04  0.00000000000E+00 0. -1.
          1   -1    0    0  501    0 -0.00000000000E+00 -0.00000000000E+00 -0.10678291815E+04  0.10678291815E+04  0.00000000000E+00 0. -1.
         25    2    1    2    0    0 -0.10855334392E+04  0.79476099584E+03 -0.39589388307E+02  0.13517466317E+04  0.12499499447E+03 0.  0.
          2    1    1    2  501    0  0.88060210228E+03 -0.78340476399E+03  0.81734008986E+03  0.14343039808E+04  0.00000000000E+00 0. -1.
          1    1    1    2  502    0  0.20493133691E+03 -0.11356231846E+02  0.10170366071E+03  0.22906211265E+03  0.00000000000E+00 0. -1.
         22    1    3    3    0    0 -0.83741478900E+03  0.58620001226E+03 -0.78900215799E+02  0.10252410581E+04  0.00000000000E+00 0. -1.
         22    1    3    3    0    0 -0.24811865020E+03  0.20856098358E+03  0.39310827491E+02  0.32650557362E+03  0.00000000000E+00 0. -1.
</event>
<event>
 7    1  0.5018917E-005  0.2413911E+03  0.7818608E-02  0.1176299E+00
          2   -1    0    0  502    0  0.00000000000E+00  0.00000000000E+00  0.25040430645E+04  0.25040430645E+04  0.00000000000E+00 0. -1.
          1   -1    0    0  501    0 -0.00000000000E+00 -0.00000000000E+00 -0.34335028214E+03  0.34335028214E+03  0.00000000000E+00 0. -1.
         25    2    1    2    0    0 -0.16267514156E+03  0.23854946662E+03  0.26155966845E+03  0.40915486167E+03  0.12500076385E+03 0.  0.
          2    1    1    2  501    0 -0.41847162798E+02 -0.11442421411E+03 -0.24879630026E+03  0.27702650565E+03  0.00000000000E+00 0. -1.
          1    1    1    2  502    0  0.20452230436E+03 -0.12412525251E+03  0.21479294141E+04  0.21612119793E+04  0.00000000000E+00 0. -1.
         22    1    3    3    0    0  0.20623332403E+02  0.15317822922E+02  0.24261625804E+02  0.35335308477E+02  0.00000000000E+00 0.  1.
         22    1    3    3    0    0 -0.18329847397E+03  0.22323164369E+03  0.23729804265E+03  0.37381955319E+03  0.00000000000E+00 0.  1.
</event>
<event>
 7    1  0.5018917E-005  0.4000934E+03  0.7818608E-02  0.1274554E+00
          2   -1    0    0  502    0  0.00000000000E+00  0.00000000000E+00  0.98026631405E+03  0.98026631405E+03  0.00000000000E+00 0. -1.
          1   -1    0    0  501    0 -0.00000000000E+00 -0.00000000000E+00 -0.47865053527E+03  0.47865053527E+03  0.00000000000E+00 0. -1.
         25    2    1    2    0    0 -0.70972353667E+02 -0.40113750859E+03 -0.18193074703E+03  0.46332770250E+03  0.12500154960E+03 0.  0.
          2    1    1    2  501    0  0.84595668446E+02  0.37851972783E+03  0.85767761549E+02  0.39722754234E+03  0.00000000000E+00 0. -1.
          1    1    1    2  502    0 -0.13623314778E+02  0.22617780766E+02  0.59777876427E+03  0.59836160449E+03  0.00000000000E+00 0. -1.
         22    1    3    3    0    0  0.54430830169E+01 -0.29337167648E+03 -0.11413691962E+03  0.31483933067E+03  0.00000000000E+00 0. -1.
         22    1    3    3    0    0 -0.76415436684E+02 -0.10776583211E+03 -0.67793827413E+02  0.14848837183E+03  0.00000000000E+00 0. -1.
</event>
<event>
 7    1  0.5018917E-005  0.2286507E+03  0.7818608E-02  0.1227597E+00
          2   -1    0    0  502    0  0.00000000000E+00  0.00000000000E+00  0.59037818111E+03  0.59037818111E+03  0.00000000000E+00 0. -1.
          1   -1    0    0  501    0 -0.00000000000E+00 -0.00000000000E+00 -0.50147325565E+03  0.50147325565E+03  0.00000000000E+00 0. -1.
         25    2    1    2    0    0 -0.23580096861E+03  0.10319876700E+01  0.48271466804E+03  0.55158068492E+03  0.12499855777E+03 0.  0.
          2    1    1    2  501    0  0.40629208706E+02  0.61614097678E+02 -0.31026078341E+03  0.31891814523E+03  0.00000000000E+00 0. -1.
          1    1    1    2  502    0  0.19517175990E+03 -0.62646085348E+02 -0.83548959172E+02  0.22135260661E+03  0.00000000000E+00 0. -1.
         22    1    3    3    0    0 -0.24222074472E+02  0.44041967797E+02  0.76132929876E+02  0.91228432140E+02  0.00000000000E+00 0.  1.
         22    1    3    3    0    0 -0.21157889414E+03 -0.43009980127E+02  0.40658173816E+03  0.46035225278E+03  0.00000000000E+00 0.  1.
</event>
<event>
 7    1  0.5018917E-005  0.4016849E+03  0.7818608E-02  0.1235082E+00
          2   -1    0    0  502    0  0.00000000000E+00  0.00000000000E+00  0.24316811426E+04  0.24316811426E+04  0.00000000000E+00 0. -1.
          1   -1    0    0  501    0 -0.00000000000E+00 -0.00000000000E+00 -0.95860487055E+03  0.95860487055E+03  0.00000000000E+00 0. -1.
         25    2    1    2    0    0 -0.39488014613E+03  0.11237618848E+03  0.19798127726E+03  0.47263071487E+03  0.12499787575E+03 0.  0.
          2    1    1    2  501    0  0.37350464685E+03 -0.14486900703E+03 -0.77223001595E+03  0.86996088875E+03  0.00000000000E+00 0. -1.
          1    1    1    2  502    0  0.21375499280E+02  0.32492818547E+02  0.20473250107E+04  0.20476944095E+04  0.00000000000E+00 0. -1.
         22    1    3    3    0    0 -0.26788876939E+02 -0.22715926582E+02  0.29495741007E+02  0.45865629677E+02  0.00000000000E+00 0. -1.
         22    1    3    3    0    0 -0.36809126919E+03  0.13509211507E+03  0.16848553626E+03  0.42676508519E+03  0.00000000000E+00 0. -1.
</event>
<event>
 7    1  0.5018917E-005  0.3621657E+03  0.7818608E-02  0.1143230E+00
          2   -1    0    0  502    0  0.00000000000E+00  0.00000000000E+00  0.17044887085E+04  0.17044887085E+04  0.00000000000E+00 0. -1.
          1   -1    0    0  501    0 -0.00000000000E+00 -0.00000000000E+00 -0.89891216290E+03  0.89891216290E+03  0.00000000000E+00 0. -1.
         25    2    1    2    0    0  0.31668634744E+03  0.18577890610E+03 -0.49102572873E+03  0.62572790713E+03  0.12500041153E+03 0.  0.
          2    1    1    2  501    0 -0.35887653444E+03 -0.74125133492E+02 -0.23895919510E+03  0.43747959874E+03  0.00000000000E+00 0. -1.
          1    1    1    2  502    0  0.42190186999E+02 -0.11165377261E+03  0.15355614694E+04  0.15401933655E+04  0.00000000000E+00 0. -1.
         22    1    3    3    0    0  0.31937276862E+03  0.17519386900E+03 -0.49457546038E+03  0.61424485597E+03  0.00000000000E+00 0.  1.
         22    1    3    3    0    0 -0.26864211764E+01  0.10585037104E+02  0.35497316554E+01  0.11483051165E+02  0.00000000000E+00 0.  1.
</event>
<event>
 7    1  0.5018917E-005  0.3413159E+03  0.7818608E-02  0.1302687E+00
          2   -1    0    0  502    0  0.00000000000E+00  0.00000000000E+00  0.17408867536E+04  0.17408867536E+04  0.00000000000E+00 0. -1.
          1   -1    0    0  501    0 -0.00000000000E+00 -0.00000000000E+00 -0.27474693275E+03  0.27474693275E+03  0.00000000000E+00 0. -1.
         25    2    1    2    0    0  0.11671260578E+03 -0.31593584191E+03  0.63824949871E+02  0.36487546428E+03  0.12499276643E+03 0.  0.
          2    1    1    2  501    0 -0.99403275558E+02  0.33222326299E+03  0.11811623995E+03  0.36633966999E+03  0.00000000000E+00 0. -1.
          1    1    1    2  502    0 -0.17309330223E+02 -0.16287421085E+02  0.12841986310E+04  0.12844185520E+04  0.00000000000E+00 0. -1.
         22    1    3    3    0    0  0.12144640282E+03 -0.18607735855E+03  0.74832923584E+02  0.23446530356E+03  0.00000000000E+00 0. -1.
         22    1    3    3    0    0 -0.47337970359E+01 -0.12985848336E+03 -0.11007973713E+02  0.13041016073E+03  0.00000000000E+00 0. -1.
</event>
<event>
 7    1  0.5018917E-005  0.3065038E+03  0.7818608E-02  0.1242466E+00
          2   -1    0    0  502    0  0.00000000000E+00  0.00000000000E+00  0.74014507526E+03  0.74014507526E+03  0.00000000000E+00 0. -1.
          1   -1    0    0  501    0 -0.00000000000E+00 -0.00000000000E+00 -0.15665569035E+04  0.15665569035E+04  0.00000000000E+00 0. -1.
         25    2    1    2    0    0  0.19163965868E+03 -0.23786837386E+03  0.61631311212E+03  0.69912399135E+03  0.12500152418E+03 0.  0.
          2    1    1    2  501    0 -0.31006571483E+02 -0.35695700079E+02 -0.12177417367E+04  0.12186593157E+04  0.00000000000E+00 0. -1.
          1    1    1    2  502    0 -0.16063308720E+03  0.27356407394E+03 -0.22498320367E+03  0.38891867169E+03  0.00000000000E+00 0. -1.
         22    1    3    3    0    0  0.13353516207E+03 -0.23427655321E+03  0.47353050397E+03  0.54492961113E+03  0.00000000000E+00 0.  1.
         22    1    3    3    0    0  0.58104496613E+02 -0.35918206534E+01  0.14278260816E+03  0.15419438023E+03  0.00000000000E+00 0.  1.
</event>
<event>
 7    1  0.5018917E-005  0.6345076E+02  0.7818608E-02  0.1477824E+00
          2   -1    0    0  502    0  0.00000000000E+00  0.00000000000E+00  0.16251622979E+04  0.16251622979E+04  0.00000000000E+00 0. -1.
          1   -1    0    0  501    0 -0.00000000000E+00 -0.00000000000E+00 -0.24944279650E+02  0.24944279650E+02  0.00000000000E+00 0. -1.
         25    2    1    2    0    0  0.46024612989E+02 -0.20460554271E+02  0.17924214316E+03  0.22425405961E+03  0.12500095234E+03 0.  0.
          2    1    1    2  501    0  0.17911578730E+02  0.25466737401E+02  0.14688125935E+03  0.15014487576E+03  0.00000000000E+00 0. -1.
          1    1    1    2  502    0 -0.63936191719E+02 -0.50061831306E+01  0.12740946157E+04  0.12757076422E+04  0.00000000000E+00 0. -1.
         22    1    3    3    0    0  0.38416785218E+02 -0.11711559126E+02 -0.42585640984E+01  0.40387440768E+02  0.00000000000E+00 0.  1.
         22    1    3    3    0    0  0.76078277709E+01 -0.87489951446E+01  0.18350070726E+03  0.18386661884E+03  0.00000000000E+00 0.  1.
</event>
<event>
 7    1  0.5018917E-005  0.2848732E+03  0.7818608E-02  0.1313999E+00
          2   -1    0    0  502    0  0.00000000000E+00  0.00000000000E+00  0.38131628829E+04  0.38131628829E+04  0.00000000000E+00 0. -1.
          1   -1    0    0  501    0 -0.00000000000E+00 -0.00000000000E+00 -0.32469134352E+03  0.32469134352E+03  0.00000000000E+00 0. -1.
         25    2    1    2    0    0 -0.58585706385E+02  0.29437470987E+03  0.28016081972E+03  0.42918954363E+03  0.12499929859E+03 0.  0.
          2    1    1    2  501    0 -0.15501286370E+02 -0.20488459735E+02 -0.24368133168E+03  0.24503195357E+03  0.00000000000E+00 0. -1.
          1    1    1    2  502    0  0.74086992754E+02 -0.27388625013E+03  0.34519920514E+04  0.34636327293E+04  0.00000000000E+00 0. -1.
         22    1    3    3    0    0 -0.16117206445E+02  0.98482243878E+02  0.17835421634E+03  0.20437402768E+03  0.00000000000E+00 0.  1.
         22    1    3    3    0    0 -0.42468499939E+02  0.19589246599E+03  0.10180660338E+03  0.22481551595E+03  0.00000000000E+00 0.  1.
</event>
<event>
 7    1  0.5018917E-005  0.3238404E+03  0.7818608E-02  0.1111984E+00
          2   -1    0    0  502    0  0.00000000000E+00  0.00000000000E+00  0.52722630887E+03  0.52722630887E+03  0.00000000000E+00 0. -1.
          1   -1    0    0  501    0 -0.00000000000E+00 -0.00000000000E+00 -0.72427086442E+03  0.72427086442E+03  0.00000000000E+00 0. -1.
         25    2    1    2    0    0  0.46080384180E+03  0.12190649711E+02  0.64097306876E+02  0.48189499264E+03  0.12500210648E+03 0.  0.
          2    1    1    2  501    0 -0.19270701153E+03  0.37145443517E+02 -0.41321670595E+03  0.45745362863E+03  0.00000000000E+00 0. -1.
          1    1    1    2  502    0 -0.26809683027E+03 -0.49336093227E+02  0.15207484352E+03  0.31214855202E+03  0.00000000000E+00 0. -1.
         22    1    3    3    0    0  0.45696627195E+03  0.48939939278E+01  0.42722189690E+02  0.45898508730E+03  0.00000000000E+00 0.  1.
         22    1    3    3    0    0  0.38375698573E+01  0.72966557828E+01  0.21375117186E+02  0.22909905341E+02  0.00000000000E+00 0.  1.
</event>
<event>
 7    1  0.5018917E-005  0.3447616E+03  0.7818608E-02  0.1251419E+00
          2   -1    0    0  502    0  0.00000000000E+00  0.00000000000E+00  0.41264899706E+03  0.41264899706E+03  0.00000000000E+00 0. -1.
          1   -1    0    0  501    0 -0.00000000000E+00 -0.00000000000E+00 -0.13502347893E+04  0.13502347893E+04  0.00000000000E+00 0. -1.
         25    2    1    2    0    0  0.24569017864E+02  0.37939970213E+03  0.18897954732E+03  0.44258879562E+03  0.12499520825E+03 0.  0.
          2    1    1    2  501    0 -0.17588055506E+02 -0.34161744507E+03 -0.11943544791E+04  0.12423745169E+04  0.00000000000E+00 0. -1.
          1    1    1    2  502    0 -0.69809623579E+01 -0.37782257060E+02  0.67789139614E+02  0.77920473777E+02  0.00000000000E+00 0. -1.
         22    1    3    3    0    0  0.29219336814E+02  0.38182852023E+03  0.19878706514E+03  0.43146620467E+03  0.00000000000E+00 0.  1.
         22    1    3    3    0    0 -0.46503189501E+01 -0.24288180913E+01 -0.98075178236E+01  0.11122590953E+02  0.00000000000E+00 0.  1.
</event>
<event>
 7    1  0.5018917E-005  0.4495202E+03  0.7818608E-02  0.1281857E+00
          2   -1    0    0  502    0  0.00000000000E+00  0.00000000000E+00  0.21748322488E+03  0.21748322488E+03  0.00000000000E+00 0. -1.
          1   -1    0    0  501    0 -0.00000000000E+00 -0.00000000000E+00 -0.17200178314E+04  0.17200178314E+04  0.00000000000E+00 0. -1.
         25    2    1    2    0    0  0.41195674189E+03  0.14612853813E+03 -0.46600794839E+03  0.65103720860E+03  0.12499652868E+03 0.  0.
          2    1    1    2  501    0  0.21337466764E+02  0.50137226190E+01 -0.73950321359E+03  0.73982797177E+03  0.00000000000E+00 0. -1.
          1    1    1    2  502    0 -0.43329420865E+03 -0.15114226075E+03 -0.29702344457E+03  0.54663587593E+03  0.00000000000E+00 0. -1.
         22    1    3    3    0    0  0.69563707301E+02  0.73376833300E+02 -0.72762010183E+02  0.12456957560E+03  0.00000000000E+00 0.  1.
         22    1    3    3    0    0  0.34239303458E+03  0.72751704832E+02 -0.39324593820E+03  0.52646763301E+03  0.00000000000E+00 0.  1.
</event>
<event>
 7    1  0.5018917E-005  0.4995226E+03  0.7818608E-02  0.1168644E+00
          2   -1    0    0  502    0  0.00000000000E+00  0.00000000000E+00  0.16150792584E+04  0.16150792584E+04  0.00000000000E+00 0. -1.
          1   -1    0    0  501    0 -0.00000000000E+00 -0.00000000000E+00 -0.36753805571E+04  0.36753805571E+04  0.00000000000E+00 0. -1.
         25    2    1    2    0    0 -0.51744712108E+03 -0.10423410971E+03  0.92353523210E+03  0.10710548681E+04  0.12499973129E+03 0.  0.
          2    1    1    2  501    0  0.57774046921E+02  0.28086750104E+02 -0.35134319590E+04  0.35140191855E+04  0.00000000000E+00 0. -1.
          1    1    1    2  502    0  0.45967307416E+03  0.76147359607E+02  0.52959542815E+03  0.70538576184E+03  0.00000000000E+00 0. -1.
         22    1    3    3    0    0  0.71197654667E+01  0.14101002220E+01  0.14652792567E+02  0.16351873683E+02  0.00000000000E+00 0. -1.
         22    1    3    3    0    0 -0.52456688655E+03 -0.10564420993E+03  0.90888243953E+03  0.10547029944E+04  0.00000000000E+00 0. -1.
</event>
<event>
 7    1  0.5018917E-005  0.4901268E+03  0.7818608E-02  0.1089279E+00
          2   -1    0    0  502    0  0.00000000000E+00  0.00000000000E+00  0.13715582384E+04  0.13715582384E+04  0.00000000000E+00 0. -1.
          1   -1    0    0  501    0 -0.00000000000E+00 -0.00000000000E+00 -0.24353035351E+04  0.24353035351E+04  0.00000000000E+00 0. -1.
         25    2    1    2    0    0 -0.40388831270E+03  0.72452782774E+02  0.40444538450E+03  0.58955619058E+03  0.12500103178E+03 0.  0.
          2    1    1    2  501    0  0.48914838576E+03  0.79265742664E+02 -0.23075182847E+04  0.23601249618E+04  0.00000000000E+00 0. -1.
          1    1    1    2  502    0 -0.85260073060E+02 -0.15171852544E+03  0.83932760355E+03  0.85718062105E+03  0.00000000000E+00 0. -1.
         22    1    3    3    0    0 -0.37524645911E+03  0.29542304885E+02  0.36784392344E+03  0.52630010913E+03  0.00000000000E+00 0.  1.
         22    1    3    3    0    0 -0.28641853580E+02  0.42910477889E+02  0.36601461059E+02  0.63256081453E+02  0.00000000000E+00 0.  1.
</event>
<event>
 7    1  0.5018917E-005  0.2222507E+03  0.7818608E-02  0.1261356E+00
          2   -1    0    0  502    0  0.00000000000E+00  0.00000000000E+00  0.10385249006E+04  0.10385249006E+04  0.00000000000E+00 0. -1.
          1   -1    0    0  501    0 -0.00000000000E+00 -0.00000000000E+00 -0.27537429755E+03  0.27537429755E+03  0.00000000000E+00 0. -1.
         25    2    1    2    0    0 -0.18141860526E+03 -0.13155640303E+03  0.19144017364E+03  0.32014627128E+03  0.12499798964E+03 0.  0.
          2    1    1    2  501    0  0.14390015747E+03  0.17042874889E+03 -0.15078629553E+03  0.26923915147E+03  0.00000000000E+00 0. -1.
          1    1    1    2  502    0  0.37518447797E+02 -0.38872345858E+02  0.72249672497E+03  0.72451377543E+03  0.00000000000E+00 0. -1.
         22    1    3    3    0    0 -0.70712751937E+02 -0.12750754130E+03  0.11069968246E+03  0.18306525086E+03  0.00000000000E+00 0. -1.
         22    1    3    3    0    0 -0.11070585333E+03 -0.40488617255E+01  0.80740491179E+02  0.13708102042E+03  0.00000000000E+00 0. -1.
</event>
<event>
 7    1  0.5018917E-005  0.1241511E+04  0.7818608E-02  0.1176531E+00
          2   -1    0    0  502    0  0.00000000000E+00  0.00000000000E+00  0.19377539032E+04  0.19377539032E+04  0.00000000000E+00 0. -1.
          1   -1    0    0  501    0 -0.00000000000E+00 -0.00000000000E+00 -0.11247969278E+04  0.11247969278E+04  0.00000000000E+00 0. -1.
         25    2    1    2    0    0  0.11415409992E+04 -0.49509292014E+03  0.10398771732E+04  0.16264079313E+04  0.12500148366E+03 0.  0.
          2    1    1    2  501    0 -0.16797911579E+02 -0.16615158995E+02 -0.19874754680E+03  0.20014699774E+03  0.00000000000E+00 0. -1.
          1    1    1    2  502    0 -0.11247430877E+04  0.51170807914E+03 -0.28172651018E+02  0.12359959020E+04  0.00000000000E+00 0. -1.
         22    1    3    3    0    0  0.40852371930E+03 -0.16429088533E+03  0.44560678118E+03  0.62645712357E+03  0.00000000000E+00 0. -1.
         22    1    3    3    0    0  0.73301727994E+03 -0.33080203481E+03  0.59427039205E+03  0.99995080768E+03  0.00000000000E+00 0. -1.
</event>
<event>
 7    1  0.5018917E-005  0.5780105E+02  0.7818608E-02  0.1427891E+00
          2   -1    0    0  502    0  0.00000000000E+00  0.00000000000E+00  0.61108451759E+02  0.61108451759E+02  0.00000000000E+00 0. -1.
          1   -1    0    0  501    0 -0.00000000000E+00 -0.00000000000E+00 -0.15516202789E+04  0.15516202789E+04  0.00000000000E+00 0. -1.
         25    2    1    2    0    0  0.17570644271E+02 -0.37777530734E+02 -0.21306848454E+03  0.25051779262E+03  0.12500046379E+03 0.  0.
          2    1    1    2  501    0  0.29980245086E+02  0.50822439988E+02 -0.13045903083E+04  0.13059240437E+04  0.00000000000E+00 0. -1.
          1    1    1    2  502    0 -0.47550889358E+02 -0.13044909254E+02  0.27146965623E+02  0.56286894378E+02  0.00000000000E+00 0. -1.
         22    1    3    3    0    0 -0.48502937825E+02  0.19680140624E+01 -0.12132014904E+03  0.13067129226E+03  0.00000000000E+00 0. -1.
         22    1    3    3    0    0  0.66073582097E+02 -0.39745544796E+02 -0.91748335498E+02  0.11984650036E+03  0.00000000000E+00 0. -1.
</event>
<event>
 7    1  0.5018917E-005  0.6052469E+03  0.7818608E-02  0.1256432E+00
          2   -1    0    0  502    0  0.00000000000E+00  0.00000000000E+00  0.13213013437E+04  0.13213013437E+04  0.00000000000E+00 0. -1.
          1   -1    0    0  501    0 -0.00000000000E+00 -0.00000000000E+00 -0.11034642926E+04  0.11034642926E+04  0.00000000000E+00 0. -1.
         25    2    1    2    0    0  0.16265516712E+03 -0.57072154215E+03  0.28673642641E+03  0.67083724549E+03  0.12500019859E+03 0.  0.
          2    1    1    2  501    0 -0.18123362929E+03  0.58012723626E+03 -0.80992712695E+03  0.10126081125E+04  0.00000000000E+00 0. -1.
          1    1    1    2  502    0  0.18578462165E+02 -0.94056941111E+01  0.74102775159E+03  0.74132027826E+03  0.00000000000E+00 0. -1.
         22    1    3    3    0    0  0.16980231437E+03 -0.47323670891E+03  0.27304716306E+03  0.57213683842E+03  0.00000000000E+00 0.  1.
         22    1    3    3    0    0 -0.71471472470E+01 -0.97484833235E+02  0.13689263354E+02  0.98700407070E+02  0.00000000000E+00 0.  1.
</event>
<event>
 7    1  0.5018917E-005  0.1132132E+04  0.7818608E-02  0.1116615E+00
          2   -1    0    0  502    0  0.00000000000E+00  0.00000000000E+00  0.24326682605E+04  0.24326682605E+04  0.00000000000E+00 0. -1.
          1   -1    0    0  501    0 -0.00000000000E+00 -0.00000000000E+00 -0.24654689746E+04  0.24654689746E+04  0.00000000000E+00 0. -1.
         25    2    1    2    0    0  0.97873669978E+03 -0.56143485134E+03 -0.18769737676E+04  0.21935799666E+04  0.12501170375E+03 0.  0.
          2    1    1    2  501    0 -0.10218703860E+04  0.53072876223E+03  0.34163354531E+03  0.12010851694E+04  0.00000000000E+00 0. -1.
          1    1    1    2  502    0  0.43133686265E+02  0.30706089106E+02  0.15025395082E+04  0.15034720990E+04  0.00000000000E+00 0. -1.
         22    1    3    3    0    0  0.63755435660E+03 -0.29654924781E+03 -0.11800692193E+04  0.13736740430E+04  0.00000000000E+00 0.  1.
         22    1    3    3    0    0  0.34118234318E+03 -0.26488560353E+03 -0.69690454822E+03  0.81990592362E+03  0.00000000000E+00 0.  1.
</event>
<event>
 7    1  0.5018917E-005  0.1965162E+03  0.7818608E-02  0.1290232E+00
          2   -1    0    0  502    0  0.00000000000E+00  0.00000000000E+00  0.32592244561E+04  0.32592244561E+04  0.00000000000E+00 0. -1.
          1   -1    0    0  501    0 -0.00000000000E+00 -0.00000000000E+00 -0.23465685558E+03  0.23465685558E+03  0.00000000000E+00 0. -1.
         25    2    1    2    0    0  0.14170155567E+03 -0.18912032059E+03  0.68827790831E+03  0.73837936082E+03  0.12502709658E+03 0.  0.
          2    1    1    2  501    0 -0.33780210894E+02  0.31710736689E+02 -0.20342078899E+03  0.20863051278E+03  0.00000000000E+00 0. -1.
          1    1    1    2  502    0 -0.10792134477E+03  0.15740958390E+03  0.25397104812E+04  0.25468714381E+04  0.00000000000E+00 0. -1.
         22    1    3    3    0    0  0.16101802181E+03 -0.18110422214E+03  0.58865336079E+03  0.63658331881E+03  0.00000000000E+00 0.  1.
         22    1    3    3    0    0 -0.19316466148E+02 -0.80160984475E+01  0.99624547525E+02  0.10179604201E+03  0.00000000000E+00 0.  1.
</event>
<event>
 7    1  0.5018917E-005  0.5509076E+03  0.7818608E-02  0.1239611E+00
          2   -1    0    0  502    0  0.00000000000E+00  0.00000000000E+00  0.36793250459E+03  0.36793250459E+03  0.00000000000E+00 0. -1.
          1   -1    0    0  501    0 -0.00000000000E+00 -0.00000000000E+00 -0.12310294047E+04  0.12310294047E+04  0.00000000000E+00 0. -1.
         25    2    1    2    0    0 -0.20544681179E+03  0.51419229816E+03 -0.76596792109E+03  0.95338028953E+03  0.12500003348E+03 0.  0.
          2    1    1    2  501    0  0.22579698344E+03 -0.49632858840E+03 -0.16730219516E+03  0.57036511981E+03  0.00000000000E+00 0. -1.
          1    1    1    2  502    0 -0.20350171646E+02 -0.17863709756E+02  0.70173216103E+02  0.75216499988E+02  0.00000000000E+00 0. -1.
         22    1    3    3    0    0 -0.30205605434E+02  0.12378050700E+03 -0.26834744306E+03  0.29705949356E+03  0.00000000000E+00 0. -1.
         22    1    3    3    0    0 -0.17524120636E+03  0.39041179116E+03 -0.49762047803E+03  0.65632079597E+03  0.00000000000E+00 0. -1.
</event>
<event>
 7    1  0.5018917E-005  0.2585852E+03  0.7818608E-02  0.1166682E+00
          2   -1    0    0  502    0  0.00000000000E+00  0.00000000000E+00  0.28945903757E+03  0.28945903757E+03  0.00000000000E+00 0. -1.
          1   -1    0    0  501    0 -0.00000000000E+00 -0.00000000000E+00 -0.13207129277E+04  0.13207129277E+04  0.00000000000E+00 0. -1.
         25    2    1    2    0    0 -0.22204821468E+03 -0.15745988871E+03 -0.77133553532E+03  0.82745569658E+03  0.12500158218E+03 0.  0.
          2    1    1    2  501    0  0.11815478490E+03  0.23036690896E+03 -0.47039258647E+03  0.53693449446E+03  0.00000000000E+00 0. -1.
          1    1    1    2  502    0  0.10389342979E+03 -0.72907020250E+02  0.21047423166E+03  0.24578177424E+03  0.00000000000E+00 0. -1.
         22    1    3    3    0    0 -0.19504609808E+03 -0.12943943541E+03 -0.48554730821E+03  0.53903036679E+03  0.00000000000E+00 0. -1.
         22    1    3    3    0    0 -0.27002116601E+02 -0.28020453305E+02 -0.28578822711E+03  0.28842532978E+03  0.00000000000E+00 0. -1.
</event>
<event>
 7    1  0.5018917E-005  0.5456061E+03  0.7818608E-02  0.1232262E+00
          2   -1    0    0  502    0  0.00000000000E+00  0.00000000000E+00  0.60529418565E+03  0.60529418565E+03  0.00000000000E+00 0. -1.
          1   -1    0    0  501    0 -0.00000000000E+00 -0.00000000000E+00 -0.12096351096E+04  0.12096351096E+04  0.00000000000E+00 0. -1.
         25    2    1    2    0    0 -0.20103846948E+03 -0.53152011230E+03 -0.39806752933E+03  0.70499153337E+03  0.12500083288E+03 0.  0.
          2    1    1    2  501    0  0.13501379937E+02  0.26200907572E+02 -0.49676896669E+03  0.49764262386E+03  0.00000000000E+00 0. -1.
          1    1    1    2  502    0  0.18753708954E+03  0.50531920473E+03  0.29049557208E+03  0.61229513800E+03  0.00000000000E+00 0. -1.
         22    1    3    3    0    0 -0.65373008436E+02 -0.29947527267E+03 -0.15922875589E+03  0.34541694498E+03  0.00000000000E+00 0. -1.
         22    1    3    3    0    0 -0.13566546104E+03 -0.23204483963E+03 -0.23883877344E+03  0.35957458839E+03  0.00000000000E+00 0. -1.
</event>
<event>
 7    1  0.5018917E-005  0.3354093E+02  0.7818608E-02  0.1600052E+00
          2   -1    0    0  502    0  0.00000000000E+00  0.00000000000E+00  0.16366923297E+04  0.16366923297E+04  0.00000000000E+00 0. -1.
          1   -1    0    0  501    0 -0.00000000000E+00 -0.00000000000E+00 -0.27798232934E+03  0.27798232934E+03  0.00000000000E+00 0. -1.
         25    2    1    2    0    0 -0.34370989543E+02 -0.25524776373E+02  0.21467961345E+03  0.25208160632E+03  0.12499968273E+03 0.  0.
          2    1    1    2  501    0  0.25616977128E+02 -0.68516155115E+01 -0.25840231377E+03  0.25975936926E+03  0.00000000000E+00 0. -1.
          1    1    1    2  502    0  0.87540124148E+01  0.32376391885E+02  0.14024327007E+04  0.14028336834E+04  0.00000000000E+00 0. -1.
         22    1    3    3    0    0  0.59611467764E+01  0.36760180929E+02  0.14701891670E+03  0.15166215098E+03  0.00000000000E+00 0. -1.
         22    1    3    3    0    0 -0.40332136319E+02 -0.62284957302E+02  0.67660696755E+02  0.10041945534E+03  0.00000000000E+00 0. -1.
</event>
<event>
 7    1  0.5254960E-005  0.1440147E+03  0.7818608E-02  0.1238819E+00
          2   -1    0    0  502    0  0.00000000000E+00  0.00000000000E+00  0.82958572223E+03  0.82958572223E+03  0.00000000000E+00 0. -1.
          1   -1    0    0  501    0 -0.00000000000E+00 -0.00000000000E+00 -0.61188331295E+03  0.61188331295E+03  0.00000000000E+00 0. -1.
         25    2    1    2    0    0  0.48100666423E+02 -0.22186077997E+03 -0.25568435345E+03  0.36405052453E+03  0.12498966362E+03 0.  0.
          2    1    1    2  501    0 -0.40178700243E+02  0.11773923164E+03 -0.28547570799E+03  0.31140525762E+03  0.00000000000E+00 0. -1.
          1    1    1    2  502    0 -0.79219661799E+01  0.10412154833E+03  0.75886247071E+03  0.76601325303E+03  0.00000000000E+00 0. -1.
         22    1    3    3    0    0  0.54938632978E+02 -0.28726177820E+02 -0.91183100401E+02  0.11026243460E+03  0.00000000000E+00 0. -1.
         22    1    3    3    0    0 -0.68379665546E+01 -0.19313460215E+03 -0.16450125305E+03  0.25378808993E+03  0.00000000000E+00 0. -1.
</event>
<event>
 7    1  0.5018917E-005  0.1967777E+03  0.7818608E-02  0.1193340E+00
          2   -1    0    0  502    0  0.00000000000E+00  0.00000000000E+00  0.19210070667E+04  0.19210070667E+04  0.00000000000E+00 0. -1.
          1   -1    0    0  501    0 -0.00000000000E+00 -0.00000000000E+00 -0.17959489777E+03  0.17959489777E+03  0.00000000000E+00 0. -1.
         25    2    1    2    0    0 -0.27932146279E+02  0.13392907748E+03  0.15012061674E+04  0.15126019485E+04  0.12500997900E+03 0.  0.
          2    1    1    2  501    0  0.15150133900E+03 -0.13109195601E+03 -0.10152719896E+03  0.22460082097E+03  0.00000000000E+00 0. -1.
          1    1    1    2  502    0 -0.12356919273E+03 -0.28371214741E+01  0.34173320047E+03  0.36339919504E+03  0.00000000000E+00 0. -1.
         22    1    3    3    0    0 -0.10158847948E+02 -0.17328282770E+02  0.57949978004E+02  0.61332467145E+02  0.00000000000E+00 0.  1.
         22    1    3    3    0    0 -0.17773298330E+02  0.15125736025E+03  0.14432561894E+04  0.14512694814E+04  0.00000000000E+00 0.  1.
</event>
<event>
 7    1  0.5018917E-005  0.3265631E+03  0.7818608E-02  0.1161308E+00
          2   -1    0    0  502    0  0.00000000000E+00  0.00000000000E+00  0.84143384685E+03  0.84143384685E+03  0.00000000000E+00 0. -1.
          1   -1    0    0  501    0 -0.00000000000E+00 -0.00000000000E+00 -0.12135002497E+04  0.12135002497E+04  0.00000000000E+00 0. -1.
         25    2    1    2    0    0  0.32713075994E+03 -0.26886222133E+03 -0.21351241672E+03  0.49042708541E+03  0.12501898197E+03 0.  0.
          2    1    1    2  501    0 -0.78870064303E+02  0.72222259442E+02 -0.82222119085E+03  0.82914668696E+03  0.00000000000E+00 0. -1.
          1    1    1    2  502    0 -0.24826069564E+03  0.19663996189E+03  0.66366720477E+03  0.73536032413E+03  0.00000000000E+00 0. -1.
         22    1    3    3    0    0  0.13020582337E+02 -0.64104788482E+02 -0.44671353424E+02  0.79211673934E+02  0.00000000000E+00 0. -1.
         22    1    3    3    0    0  0.31411017760E+03 -0.20475743285E+03 -0.16884106330E+03  0.41121541148E+03  0.00000000000E+00 0. -1.
</event>
<event>
 7    1  0.5018917E-005  0.4433477E+03  0.7818608E-02  0.1190335E+00
          2   -1    0    0  502    0  0.00000000000E+00  0.00000000000E+00  0.11944576390E+04  0.11944576390E+04  0.00000000000E+00 0. -1.
          1   -1    0    0  501    0 -0.00000000000E+00 -0.00000000000E+00 -0.49329693464E+03  0.49329693464E+03  0.00000000000E+00 0. -1.
         25    2    1    2    0    0  0.27965945880E+01 -0.45607123326E+03  0.22248197656E+03  0.52261352875E+03  0.12497151588E+03 0.  0.
          2    1    1    2  501    0 -0.55785813455E+02  0.43587881116E+03 -0.20091433602E+03  0.48318626369E+03  0.00000000000E+00 0. -1.
          1    1    1    2  502    0  0.52989218867E+02  0.20192422110E+02  0.67959306377E+03  0.68195478116E+03  0.00000000000E+00 0. -1.
         22    1    3    3    0    0 -0.60977397113E+02 -0.23193131492E+03  0.10933217931E+03  0.26356005621E+03  0.00000000000E+00 0. -1.
         22    1    3    3    0    0  0.63773991701E+02 -0.22413991835E+03  0.11314979725E+03  0.25905347254E+03  0.00000000000E+00 0. -1.
</event>
<event>
 7    1  0.5018917E-005  0.4040288E+03  0.7818608E-02  0.1176460E+00
          2   -1    0    0  502    0  0.00000000000E+00  0.00000000000E+00  0.25426357873E+04  0.25426357873E+04  0.00000000000E+00 0. -1.
          1   -1    0    0  501    0 -0.00000000000E+00 -0.00000000000E+00 -0.35959159109E+03  0.35959159109E+03  0.00000000000E+00 0. -1.
         25    2    1    2    0    0  0.43313522032E+03  0.13899103572E+03  0.89721775878E+03  0.10136807043E+04  0.12499694609E+03 0.  0.
          2    1    1    2  501    0 -0.63746213116E+02 -0.34868207305E+02 -0.27334462418E+03  0.28283679948E+03  0.00000000000E+00 0. -1.
          1    1    1    2  502    0 -0.36938900720E+03 -0.10412282842E+03  0.15591710617E+04  0.16057098746E+04  0.00000000000E+00 0. -1.
         22    1    3    3    0    0  0.41507114796E+03  0.14289222169E+03  0.78024152403E+03  0.89525364043E+03  0.00000000000E+00 0.  1.
         22    1    3    3    0    0  0.18064072358E+02 -0.39011859737E+01  0.11697623475E+03  0.11842706388E+03  0.00000000000E+00 0.  1.
</event>
<event>
 7    1  0.5018917E-005  0.2869940E+03  0.7818608E-02  0.1243691E+00
          2   -1    0    0  502    0  0.00000000000E+00  0.00000000000E+00  0.61355585896E+03  0.61355585896E+03  0.00000000000E+00 0. -1.
          1   -1    0    0  501    0 -0.00000000000E+00 -0.00000000000E+00 -0.33569710105E+03  0.33569710105E+03  0.00000000000E+00 0. -1.
         25    2    1    2    0    0 -0.96360520306E+02 -0.29605138873E+03 -0.15241780822E+03  0.36849391287E+03  0.12499920368E+03 0.  0.
          2    1    1    2  501    0  0.46944520262E+02  0.16844270033E+02 -0.15690301280E+02  0.52284825426E+02  0.00000000000E+00 0. -1.
          1    1    1    2  502    0  0.49416000043E+02  0.27920711870E+03  0.44596686741E+03  0.52847422171E+03  0.00000000000E+00 0. -1.
         22    1    3    3    0    0 -0.51046591715E+02 -0.38014035644E+02  0.32866723810E+01  0.63730868870E+02  0.00000000000E+00 0.  1.
         22    1    3    3    0    0 -0.45313928591E+02 -0.25803735308E+03 -0.15570448060E+03  0.30476304400E+03  0.00000000000E+00 0.  1.
</event>
<event>
 7    1  0.5018917E-005  0.7616838E+03  0.7818608E-02  0.1007674E+00
          2   -1    0    0  502    0  0.00000000000E+00  0.00000000000E+00  0.16039525249E+04  0.16039525249E+04  0.00000000000E+00 0. -1.
          1   -1    0    0  501    0 -0.00000000000E+00 -0.00000000000E+00 -0.17289989887E+04  0.17289989887E+04  0.00000000000E+00 0. -1.
         25    2    1    2    0    0  0.29155378227E+03  0.10270114941E+04 -0.49451543768E+03  0.11831848832E+04  0.12499893055E+03 0.  0.
          2    1    1    2  501    0 -0.10500920357E+02 -0.36046313373E+03 -0.74121688561E+03  0.82428539452E+03  0.00000000000E+00 0. -1.
          1    1    1    2  502    0 -0.28105286192E+03 -0.66654836042E+03  0.11106858595E+04  0.13254812358E+04  0.00000000000E+00 0. -1.
         22    1    3    3    0    0  0.33418235046E+02  0.62662566175E+02 -0.46394487478E+01  0.71168111664E+02  0.00000000000E+00 0. -1.
         22    1    3    3    0    0  0.25813554723E+03  0.96434892797E+03 -0.48987598893E+03  0.11120167715E+04  0.00000000000E+00 0. -1.
</event>
<event>
 7    1  0.5018917E-005  0.1997748E+03  0.7818608E-02  0.1242732E+00
          2   -1    0    0  502    0  0.00000000000E+00  0.00000000000E+00  0.86650773308E+03  0.86650773308E+03  0.00000000000E+00 0. -1.
          1   -1    0    0  501    0 -0.00000000000E+00 -0.00000000000E+00 -0.24667578593E+03  0.24667578593E+03  0.00000000000E+00 0. -1.
         25    2    1    2    0    0  0.24969689746E+03 -0.42083272689E+02  0.27981355204E+03  0.39754295532E+03  0.12500093990E+03 0.  0.
          2    1    1    2  501    0 -0.64818256793E+02  0.32135892910E+02 -0.16369967775E+03  0.17897403868E+03  0.00000000000E+00 0. -1.
          1    1    1    2  502    0 -0.18487864067E+03  0.99473797795E+01  0.50371807286E+03  0.53666652501E+03  0.00000000000E+00 0. -1.
         22    1    3    3    0    0  0.25474844177E+03 -0.54772570294E+02  0.28172474789E+03  0.38375205096E+03  0.00000000000E+00 0. -1.
         22    1    3    3    0    0 -0.50515443111E+01  0.12689297605E+02 -0.19111958424E+01  0.13790904364E+02  0.00000000000E+00 0. -1.
</event>
<event>
 7    1  0.5018917E-005  0.4755985E+03  0.7818608E-02  0.1169381E+00
          2   -1    0    0  502    0  0.00000000000E+00  0.00000000000E+00  0.83590414838E+03  0.83590414838E+03  0.00000000000E+00 0. -1.
          1   -1    0    0  501    0 -0.00000000000E+00 -0.00000000000E+00 -0.10495724746E+04  0.10495724746E+04  0.00000000000E+00 0. -1.
         25    2    1    2    0    0  0.13857944980E+03  0.47154839810E+03  0.55965389211E+03  0.75524779148E+03  0.12499836770E+03 0.  0.
          2    1    1    2  501    0  0.13006505302E+02 -0.65626651656E+02 -0.68469475642E+03  0.68795562070E+03  0.00000000000E+00 0. -1.
          1    1    1    2  502    0 -0.15158595510E+03 -0.40592174644E+03 -0.88627461944E+02  0.44227321084E+03  0.00000000000E+00 0. -1.
         22    1    3    3    0    0  0.28280628910E+02  0.27330787869E+02  0.11190745149E+02  0.40890080876E+02  0.00000000000E+00 0. -1.
         22    1    3    3    0    0  0.11029882089E+03  0.44421761023E+03  0.54846314696E+03  0.71435771060E+03  0.00000000000E+00 0. -1.
</event>
<event>
 7    1  0.5018917E-005  0.2276393E+03  0.7818608E-02  0.1262158E+00
          2   -1    0    0  502    0  0.00000000000E+00  0.00000000000E+00  0.10770906343E+04  0.10770906343E+04  0.00000000000E+00 0. -1.
          1   -1    0    0  501    0 -0.00000000000E+00 -0.00000000000E+00 -0.72124239824E+02  0.72124239824E+02  0.00000000000E+00 0. -1.
         25    2    1    2    0    0  0.13403336505E+03 -0.21716606062E+03  0.60157557723E+03  0.66531512636E+03  0.12500000568E+03 0.  0.
          2    1    1    2  501    0 -0.37381155142E+02  0.36624759285E+02  0.36759709129E+02  0.63953107568E+02  0.00000000000E+00 0. -1.
          1    1    1    2  502    0 -0.96652209905E+02  0.18054130134E+03  0.36663110813E+03  0.41994664020E+03  0.00000000000E+00 0. -1.
         22    1    3    3    0    0  0.31699893967E+02 -0.14957161502E+03  0.25093440834E+03  0.29384456535E+03  0.00000000000E+00 0. -1.
         22    1    3    3    0    0  0.10233347108E+03 -0.67594445601E+02  0.35064116889E+03  0.37147056101E+03  0.00000000000E+00 0. -1.
</event>
<event>
 7    1  0.5018917E-005  0.1972317E+04  0.7818608E-02  0.1130508E+00
          2   -1    0    0  502    0  0.00000000000E+00  0.00000000000E+00  0.31991289902E+04  0.31991289902E+04  0.00000000000E+00 0. -1.
          1   -1    0    0  501    0 -0.00000000000E+00 -0.00000000000E+00 -0.18133851985E+04  0.18133851985E+04  0.00000000000E+00 0. -1.
         25    2    1    2    0    0 -0.58588741041E+03  0.18741067139E+04 -0.18563956334E+03  0.19762660479E+04  0.12500164859E+03 0.  0.
          2    1    1    2  501    0  0.17888076125E+02  0.18276659928E+02 -0.30818879303E+03  0.30924804238E+03  0.00000000000E+00 0. -1.
          1    1    1    2  502    0  0.56799933428E+03 -0.18923833738E+04  0.18795721481E+04  0.27270000984E+04  0.00000000000E+00 0. -1.
         22    1    3    3    0    0 -0.39622633894E+03  0.11533004394E+04 -0.64737840784E+02  0.12211831162E+04  0.00000000000E+00 0.  1.
         22    1    3    3    0    0 -0.18966107147E+03  0.72080627444E+03 -0.12090172256E+03  0.75508293175E+03  0.00000000000E+00 0.  1.
</event>
<event>
 7    1  0.5018917E-005  0.3078104E+03  0.7818608E-02  0.1301445E+00
          2   -1    0    0  502    0  0.00000000000E+00  0.00000000000E+00  0.92700340998E+03  0.92700340998E+03  0.00000000000E+00 0. -1.
          1   -1    0    0  501    0 -0.00000000000E+00 -0.00000000000E+00 -0.42702046455E+03  0.42702046455E+03  0.00000000000E+00 0. -1.
         25    2    1    2    0    0 -0.27989395597E+03  0.97567691817E+02  0.82000249038E+03  0.88084587728E+03  0.12500117689E+03 0.  0.
          2    1    1    2  501    0  0.29854845912E+03 -0.78525100463E+02 -0.32246465348E+03  0.44640881106E+03  0.00000000000E+00 0. -1.
          1    1    1    2  502    0 -0.18654503145E+02 -0.19042591354E+02  0.24451085302E+01  0.26769186181E+02  0.00000000000E+00 0. -1.
         22    1    3    3    0    0 -0.15437446538E+03  0.44504943282E+02  0.60762834136E+03  0.62850963935E+03  0.00000000000E+00 0. -1.
         22    1    3    3    0    0 -0.12551949059E+03  0.53062748535E+02  0.21237414902E+03  0.25233623793E+03  0.00000000000E+00 0. -1.
</event>
<event>
 7    1  0.5018917E-005  0.3717458E+03  0.7818608E-02  0.1179920E+00
          2   -1    0    0  502    0  0.00000000000E+00  0.00000000000E+00  0.97944196324E+03  0.97944196324E+03  0.00000000000E+00 0. -1.
          1   -1    0    0  501    0 -0.00000000000E+00 -0.00000000000E+00 -0.94631100737E+03  0.94631100737E+03  0.00000000000E+00 0. -1.
         25    2    1    2    0    0 -0.17447318078E+03  0.36909960295E+03 -0.40274593720E+03  0.58694554034E+03  0.12500147872E+03 0.  0.
          2    1    1    2  501    0  0.18364667142E+03 -0.29370780121E+03 -0.38300348412E+03  0.51641266567E+03  0.00000000000E+00 0. -1.
          1    1    1    2  502    0 -0.91734906426E+01 -0.75391801744E+02  0.81888037719E+03  0.82239476460E+03  0.00000000000E+00 0. -1.
         22    1    3    3    0    0 -0.17181506175E+03  0.32790092968E+03 -0.30091195128E+03  0.47706125136E+03  0.00000000000E+00 0.  1.
         22    1    3    3    0    0 -0.26581190311E+01  0.41198673275E+02 -0.10183398591E+03  0.10988428897E+03  0.00000000000E+00 0.  1.
</event>
<event>
 7    1  0.5018917E-005  0.5141811E+03  0.7818608E-02  0.1255898E+00
          2   -1    0    0  502    0  0.00000000000E+00  0.00000000000E+00  0.93554913328E+03  0.93554913328E+03  0.00000000000E+00 0. -1.
          1   -1    0    0  501    0 -0.00000000000E+00 -0.00000000000E+00 -0.72207257010E+03  0.72207257010E+03  0.00000000000E+00 0. -1.
         25    2    1    2    0    0  0.21967813435E+03 -0.47849524057E+03  0.32308590149E+03  0.63025831636E+03  0.12499947056E+03 0.  0.
          2    1    1    2  501    0 -0.16678701654E+02  0.18139057604E+02 -0.43011675142E+03  0.43082203327E+03  0.00000000000E+00 0. -1.
          1    1    1    2  502    0 -0.20299943269E+03  0.46035618297E+03  0.32050741311E+03  0.59654135374E+03  0.00000000000E+00 0. -1.
         22    1    3    3    0    0  0.20225114891E+03 -0.45369736238E+03  0.26091135391E+03  0.56108961714E+03  0.00000000000E+00 0. -1.
         22    1    3    3    0    0  0.17426985443E+02 -0.24797878186E+02  0.62174547582E+02  0.69168699216E+02  0.00000000000E+00 0. -1.
</event>
<event>
 7    1  0.5018917E-005  0.7058124E+03  0.7818608E-02  0.1128360E+00
          2   -1    0    0  502    0  0.00000000000E+00  0.00000000000E+00  0.19518379789E+04  0.19518379789E+04  0.00000000000E+00 0. -1.
          1   -1    0    0  501    0 -0.00000000000E+00 -0.00000000000E+00 -0.93931334542E+03  0.93931334542E+03  0.00000000000E+00 0. -1.
         25    2    1    2    0    0  0.30588951907E+03 -0.58664954009E+03  0.47071983090E+03  0.82154010758E+03  0.12499963362E+03 0.  0.
          2    1    1    2  501    0  0.52199406531E+02 -0.51567772853E+02 -0.65916743704E+03  0.66323881317E+03  0.00000000000E+00 0. -1.
          1    1    1    2  502    0 -0.35808892560E+03  0.63821731294E+03  0.12009722396E+04  0.14063724035E+04  0.00000000000E+00 0. -1.
         22    1    3    3    0    0  0.72945577907E+02 -0.23183674287E+03  0.22441876013E+03  0.33080676018E+03  0.00000000000E+00 0.  1.
         22    1    3    3    0    0  0.23294394116E+03 -0.35481279722E+03  0.24630107076E+03  0.49073334741E+03  0.00000000000E+00 0.  1.
</event>
<event>
 7    1  0.5018917E-005  0.5418427E+03  0.7818608E-02  0.1122284E+00
          2   -1    0    0  502    0  0.00000000000E+00  0.00000000000E+00  0.16746212963E+04  0.16746212963E+04  0.00000000000E+00 0. -1.
          1   -1    0    0  501    0 -0.00000000000E+00 -0.00000000000E+00 -0.82060897877E+03  0.82060897877E+03  0.00000000000E+00 0. -1.
         25    2    1    2    0    0  0.44808450166E+03 -0.27342219640E+03 -0.29028463567E+02  0.54037545814E+03  0.12499426369E+03 0.  0.
          2    1    1    2  501    0 -0.51812567082E+03  0.19783406063E+03 -0.38977332681E+03  0.67787592714E+03  0.00000000000E+00 0. -1.
          1    1    1    2  502    0  0.70041169160E+02  0.75588135768E+02  0.12728141079E+04  0.12769788897E+04  0.00000000000E+00 0. -1.
         22    1    3    3    0    0  0.11771998055E+03 -0.15695254833E+02 -0.24939660275E+02  0.12135205602E+03  0.00000000000E+00 0.  1.
         22    1    3    3    0    0  0.33036452111E+03 -0.25772694157E+03 -0.40888032917E+01  0.41902340213E+03  0.00000000000E+00 0.  1.
</event>
<event>
 7    1  0.5018917E-005  0.5356460E+02  0.7818608E-02  0.1455953E+00
          2   -1    0    0  502    0  0.00000000000E+00  0.00000000000E+00  0.79628873487E+03  0.79628873487E+03  0.00000000000E+00 0. -1.
          1   -1    0    0  501    0 -0.00000000000E+00 -0.00000000000E+00 -0.66049637055E+03  0.66049637055E+03  0.00000000000E+00 0. -1.
         25    2    1    2    0    0 -0.32146143459E+02  0.44075157748E+02  0.10416204298E+03  0.17162343401E+03  0.12501551038E+03 0.  0.
          2    1    1    2  501    0  0.42203213382E+02  0.90658265554E+01 -0.62490918106E+03  0.62639826389E+03  0.00000000000E+00 0. -1.
          1    1    1    2  502    0 -0.10057069923E+02 -0.53140984304E+02  0.65653950240E+03  0.65876340751E+03  0.00000000000E+00 0. -1.
         22    1    3    3    0    0 -0.49898283584E+02  0.79711108942E+02  0.87542252471E+02  0.12848091516E+03  0.00000000000E+00 0. -1.
         22    1    3    3    0    0  0.17752140125E+02 -0.35635951193E+02  0.16619790504E+02  0.43142518852E+02  0.00000000000E+00 0. -1.
</event>
<event>
 7    1  0.5018917E-005  0.1278592E+04  0.7818608E-02  0.1069591E+00
          2   -1    0    0  502    0  0.00000000000E+00  0.00000000000E+00  0.15816425705E+04  0.15816425705E+04  0.00000000000E+00 0. -1.
          1   -1    0    0  501    0 -0.00000000000E+00 -0.00000000000E+00 -0.17910689719E+04  0.17910689719E+04  0.00000000000E+00 0. -1.
         25    2    1    2    0    0  0.10531953207E+04  0.66188133207E+03 -0.77954447427E+02  0.12526009563E+04  0.12499991460E+03 0.  0.
          2    1    1    2  501    0  0.11846371184E+02  0.86186376831E+02 -0.69602110889E+03  0.70143696231E+03  0.00000000000E+00 0. -1.
          1    1    1    2  502    0 -0.10650416919E+04 -0.74806770891E+03  0.56454915490E+03  0.14186736238E+04  0.00000000000E+00 0. -1.
         22    1    3    3    0    0  0.37802252644E+02  0.56448637239E+02 -0.66831460743E+01  0.68265096444E+02  0.00000000000E+00 0. -1.
         22    1    3    3    0    0  0.10153930680E+04  0.60543269484E+03 -0.71271301352E+02  0.11843358599E+04  0.00000000000E+00 0. -1.
</event>
<event>
 7    1  0.5018917E-005  0.1116789E+04  0.7818608E-02  0.9628371E-01
          2   -1    0    0  502    0  0.00000000000E+00  0.00000000000E+00  0.10398324591E+04  0.10398324591E+04  0.00000000000E+00 0. -1.
          1   -1    0    0  501    0 -0.00000000000E+00 -0.00000000000E+00 -0.20514065411E+04  0.20514065411E+04  0.00000000000E+00 0. -1.
         25    2    1    2    0    0  0.34100132583E+03  0.94601574804E+03  0.24744280970E+02  0.10136394074E+04  0.12499947626E+03 0.  0.
          2    1    1    2  501    0 -0.84496551348E+03 -0.86982114217E+03 -0.99064637373E+03  0.15658658232E+04  0.00000000000E+00 0. -1.
          1    1    1    2  502    0  0.50396418765E+03 -0.76194605874E+02 -0.45671989177E+02  0.51173376964E+03  0.00000000000E+00 0. -1.
         22    1    3    3    0    0  0.46998795562E+02  0.29878320353E+03  0.83757401743E+01  0.30257303667E+03  0.00000000000E+00 0.  1.
         22    1    3    3    0    0  0.29400253027E+03  0.64723254451E+03  0.16368540796E+02  0.71106637075E+03  0.00000000000E+00 0.  1.
</event>
<event>
 7    1  0.5018917E-005  0.2298695E+03  0.7818608E-02  0.1252372E+00
          2   -1    0    0  502    0  0.00000000000E+00  0.00000000000E+00  0.93556771620E+03  0.93556771620E+03  0.00000000000E+00 0. -1.
          1   -1    0    0  501    0 -0.00000000000E+00 -0.00000000000E+00 -0.92110967311E+03  0.92110967311E+03  0.00000000000E+00 0. -1.
         25    2    1    2    0    0  0.25178810768E+03  0.83188294587E+02  0.35270466662E+03  0.45863194104E+03  0.12500052784E+03 0.  0.
          2    1    1    2  501    0 -0.40354159495E+02 -0.40371025249E+02 -0.84518751789E+03  0.84711287221E+03  0.00000000000E+00 0. -1.
          1    1    1    2  502    0 -0.21143394818E+03 -0.42817269337E+02  0.50694089435E+03  0.55093257606E+03  0.00000000000E+00 0. -1.
         22    1    3    3    0    0  0.13792760924E+03  0.63958628376E+02  0.10334657947E+03  0.18383483626E+03  0.00000000000E+00 0.  1.
         22    1    3    3    0    0  0.11386049843E+03  0.19229666211E+02  0.24935808715E+03  0.27479710478E+03  0.00000000000E+00 0.  1.
</event>
<event>
 7    1  0.5018917E-005  0.7058877E+02  0.7818608E-02  0.1451167E+00
          2   -1    0    0  502    0  0.00000000000E+00  0.00000000000E+00  0.23505478586E+04  0.23505478586E+04  0.00000000000E+00 0. -1.
          1   -1    0    0  501    0 -0.00000000000E+00 -0.00000000000E+00 -0.78004670788E+02  0.78004670788E+02  0.00000000000E+00 0. -1.
         25    2    1    2    0    0  0.29968993367E+02 -0.98928719904E+02  0.20022778515E+04  0.20088370569E+04  0.12499877858E+03 0.  0.
          2    1    1    2  501    0 -0.26342306122E+02  0.65198083359E+02 -0.57109164704E+02  0.90587879204E+02  0.00000000000E+00 0. -1.
          1    1    1    2  502    0 -0.36266872448E+01  0.33730636546E+02  0.32737450107E+03  0.32912759327E+03  0.00000000000E+00 0. -1.
         22    1    3    3    0    0 -0.41116144584E+02 -0.63499771387E+02  0.68443504148E+03  0.68860299471E+03  0.00000000000E+00 0. -1.
         22    1    3    3    0    0  0.71085137951E+02 -0.35428948518E+02  0.13178428100E+04  0.13202340622E+04  0.00000000000E+00 0. -1.
</event>
<event>
 7    1  0.5018917E-005  0.5656644E+03  0.7818608E-02  0.1170479E+00
          2   -1    0    0  502    0  0.00000000000E+00  0.00000000000E+00  0.10439871302E+04  0.10439871302E+04  0.00000000000E+00 0. -1.
          1   -1    0    0  501    0 -0.00000000000E+00 -0.00000000000E+00 -0.11481282574E+04  0.11481282574E+04  0.00000000000E+00 0. -1.
         25    2    1    2    0    0  0.19990895865E+03  0.55450091320E+03  0.26032323809E+03  0.65637490551E+03  0.12499989523E+03 0.  0.
          2    1    1    2  501    0  0.22530309995E+02 -0.50774270568E+02 -0.81951414085E+03  0.82139458756E+03  0.00000000000E+00 0. -1.
          1    1    1    2  502    0 -0.22243926865E+03 -0.50372664263E+03  0.45504977558E+03  0.71434589450E+03  0.00000000000E+00 0. -1.
         22    1    3    3    0    0  0.31003451462E+02  0.22527264258E+03  0.58129296807E+02  0.23470831397E+03  0.00000000000E+00 0.  1.
         22    1    3    3    0    0  0.16890550719E+03  0.32922827062E+03  0.20219394128E+03  0.42166659155E+03  0.00000000000E+00 0.  1.
</event>
<event>
 7    1  0.5018917E-005  0.5579621E+03  0.7818608E-02  0.1234532E+00
          2   -1    0    0  502    0  0.00000000000E+00  0.00000000000E+00  0.53331216117E+03  0.53331216117E+03  0.00000000000E+00 0. -1.
          1   -1    0    0  501    0 -0.00000000000E+00 -0.00000000000E+00 -0.19998496102E+04  0.19998496102E+04  0.00000000000E+00 0. -1.
         25    2    1    2    0    0  0.51681428654E+03  0.24293987948E+03 -0.12544046395E+03  0.59789322642E+03  0.12499683350E+03 0.  0.
          2    1    1    2  501    0 -0.49240652595E+03 -0.25698089500E+03 -0.15902869017E+04  0.16844927418E+04  0.00000000000E+00 0. -1.
          1    1    1    2  502    0 -0.24407760596E+02  0.14041015518E+02  0.24918991667E+03  0.25077580318E+03  0.00000000000E+00 0. -1.
         22    1    3    3    0    0  0.74918331647E+02  0.50777149286E+02  0.23545161494E+02  0.93517110392E+02  0.00000000000E+00 0.  1.
         22    1    3    3    0    0  0.44189595490E+03  0.19216273019E+03 -0.14898562544E+03  0.50437611602E+03  0.00000000000E+00 0.  1.
</event>
<event>
 7    1  0.5259061E-005  0.5973212E+03  0.7818608E-02  0.1158971E+00
          2   -1    0    0  502    0  0.00000000000E+00  0.00000000000E+00  0.20944909656E+04  0.20944909656E+04  0.00000000000E+00 0. -1.
          1   -1    0    0  501    0 -0.00000000000E+00 -0.00000000000E+00 -0.10341016168E+04  0.10341016168E+04  0.00000000000E+00 0. -1.
         25    2    1    2    0    0  0.41524823424E+03  0.48564564146E+03 -0.31806921194E+03  0.72462106823E+03  0.12499953531E+03 0.  0.
          2    1    1    2  501    0 -0.59135614157E+02 -0.10602191116E+02 -0.46417810578E+03  0.46804993452E+03  0.00000000000E+00 0. -1.
          1    1    1    2  502    0 -0.35611262008E+03 -0.47504345034E+03  0.18426366665E+04  0.19359215797E+04  0.00000000000E+00 0. -1.
         22    1    3    3    0    0  0.33355149966E+03  0.37617253652E+03 -0.19024994050E+03  0.53754759791E+03  0.00000000000E+00 0.  1.
         22    1    3    3    0    0  0.81696734584E+02  0.10947310494E+03 -0.12781927144E+03  0.18707347032E+03  0.00000000000E+00 0.  1.
</event>
<event>
 7    1  0.5018917E-005  0.4004493E+03  0.7818608E-02  0.1272119E+00
          2   -1    0    0  502    0  0.00000000000E+00  0.00000000000E+00  0.44452337053E+03  0.44452337053E+03  0.00000000000E+00 0. -1.
          1   -1    0    0  501    0 -0.00000000000E+00 -0.00000000000E+00 -0.14269893934E+04  0.14269893934E+04  0.00000000000E+00 0. -1.
         25    2    1    2    0    0 -0.29785311262E+03  0.25727101089E+03 -0.66212876368E+03  0.78034889396E+03  0.12500018748E+03 0.  0.
          2    1    1    2  501    0  0.32330918402E+03 -0.24825533055E+03 -0.64628639329E+03  0.76409792551E+03  0.00000000000E+00 0. -1.
          1    1    1    2  502    0 -0.25456071392E+02 -0.90156803358E+01  0.32594913405E+03  0.32706594450E+03  0.00000000000E+00 0. -1.
         22    1    3    3    0    0 -0.30533821132E+02  0.76417023688E+01 -0.10662226873E+02  0.33232407826E+02  0.00000000000E+00 0.  1.
         22    1    3    3    0    0 -0.26731929149E+03  0.24962930852E+03 -0.65146653681E+03  0.74711648614E+03  0.00000000000E+00 0.  1.
</event>
<event>
 7    1  0.5018917E-005  0.2219786E+03  0.7818608E-02  0.1138459E+00
          2   -1    0    0  502    0  0.00000000000E+00  0.00000000000E+00  0.17501856534E+04  0.17501856534E+04  0.00000000000E+00 0. -1.
          1   -1    0    0  501    0 -0.00000000000E+00 -0.00000000000E+00 -0.52632530738E+03  0.52632530738E+03  0.00000000000E+00 0. -1.
         25    2    1    2    0    0  0.38758143147E+03 -0.14184009269E+03  0.26209465762E+03  0.50463572013E+03  0.12500249024E+03 0.  0.
          2    1    1    2  501    0 -0.18404713752E+03  0.93096087459E+02 -0.37008640877E+03  0.42367933663E+03  0.00000000000E+00 0. -1.
          1    1    1    2  502    0 -0.20353429395E+03  0.48744005231E+02  0.13318520972E+04  0.13481959041E+04  0.00000000000E+00 0. -1.
         22    1    3    3    0    0  0.55084432969E+02 -0.52106014883E+02  0.95856405647E+02  0.12222021946E+03  0.00000000000E+00 0.  1.
         22    1    3    3    0    0  0.33249699850E+03 -0.89734077807E+02  0.16623825197E+03  0.38241550067E+03  0.00000000000E+00 0.  1.
</event>
<event>
 7    1  0.5018917E-005  0.1988805E+03  0.7818608E-02  0.1294360E+00
          2   -1    0    0  502    0  0.00000000000E+00  0.00000000000E+00  0.11242703743E+04  0.11242703743E+04  0.00000000000E+00 0. -1.
          1   -1    0    0  501    0 -0.00000000000E+00 -0.00000000000E+00 -0.56118377726E+03  0.56118377726E+03  0.00000000000E+00 0. -1.
         25    2    1    2    0    0 -0.22663160483E+03  0.63681547224E+02  0.62299023759E+03  0.67761298325E+03  0.12500118067E+03 0.  0.
          2    1    1    2  501    0  0.18370305490E+03 -0.73564538961E+02 -0.51443388467E+03  0.55118125465E+03  0.00000000000E+00 0. -1.
          1    1    1    2  502    0  0.42928549930E+02  0.98829917373E+01  0.45453024407E+03  0.45665991361E+03  0.00000000000E+00 0. -1.
         22    1    3    3    0    0 -0.19224853587E+03  0.14502490827E+02  0.55177490642E+03  0.58448727029E+03  0.00000000000E+00 0.  1.
         22    1    3    3    0    0 -0.34383068962E+02  0.49179056397E+02  0.71215331176E+02  0.93125712957E+02  0.00000000000E+00 0.  1.
</event>
<event>
 7    1  0.5018917E-005  0.1020526E+04  0.7818608E-02  0.1062311E+00
          2   -1    0    0  502    0  0.00000000000E+00  0.00000000000E+00  0.27460641529E+04  0.27460641529E+04  0.00000000000E+00 0. -1.
          1   -1    0    0  501    0 -0.00000000000E+00 -0.00000000000E+00 -0.11783865502E+04  0.11783865502E+04  0.00000000000E+00 0. -1.
         25    2    1    2    0    0 -0.10612357427E+04 -0.18845628890E+03  0.10342404633E+04  0.14990048848E+04  0.12500093697E+03 0.  0.
          2    1    1    2  501    0  0.10945520436E+03 -0.50506013984E+02 -0.77812272796E+03  0.78740477455E+03  0.00000000000E+00 0. -1.
          1    1    1    2  502    0  0.95178053835E+03  0.23896230289E+03  0.13115598674E+04  0.16380410438E+04  0.00000000000E+00 0. -1.
         22    1    3    3    0    0 -0.65232222018E+03 -0.71172306178E+02  0.56824455719E+03  0.86803896968E+03  0.00000000000E+00 0.  1.
         22    1    3    3    0    0 -0.40891352253E+03 -0.11728398272E+03  0.46599590608E+03  0.63096591508E+03  0.00000000000E+00 0.  1.
</event>
<event>
 7    1  0.5018917E-005  0.3830579E+03  0.7818608E-02  0.1152200E+00
          2   -1    0    0  502    0  0.00000000000E+00  0.00000000000E+00  0.26373149402E+04  0.26373149402E+04  0.00000000000E+00 0. -1.
          1   -1    0    0  501    0 -0.00000000000E+00 -0.00000000000E+00 -0.11770537878E+03  0.11770537878E+03  0.00000000000E+00 0. -1.
         25    2    1    2    0    0 -0.36851544391E+03 -0.20294787543E+02  0.11453358951E+04  0.12098079326E+04  0.12500164223E+03 0.  0.
          2    1    1    2  501    0 -0.13901534335E+02 -0.10046971792E+03 -0.11965559526E+02  0.10213026726E+03  0.00000000000E+00 0. -1.
          1    1    1    2  502    0  0.38241697825E+03  0.12076450546E+03  0.13862392259E+04  0.14430821191E+04  0.00000000000E+00 0. -1.
         22    1    3    3    0    0 -0.25572044366E+03  0.25115368133E+02  0.90048389100E+03  0.93642670027E+03  0.00000000000E+00 0. -1.
         22    1    3    3    0    0 -0.11279500026E+03 -0.45410155677E+02  0.24485200405E+03  0.27338123237E+03  0.00000000000E+00 0. -1.
</event>
<event>
 7    1  0.1603664E-004  0.1406213E+04  0.7818608E-02  0.1085819E+00
          2   -1    0    0  502    0  0.00000000000E+00  0.00000000000E+00  0.19249610086E+04  0.19249610086E+04  0.00000000000E+00 0. -1.
          1   -1    0    0  501    0 -0.00000000000E+00 -0.00000000000E+00 -0.22358844789E+04  0.22358844789E+04  0.00000000000E+00 0. -1.
         25    2    1    2    0    0 -0.12499718930E+04 -0.59921671699E+03 -0.10078239930E+04  0.17183782817E+04  0.12499724410E+03 0.  0.
          2    1    1    2  501    0  0.13129889823E+04  0.59132084173E+03 -0.27708251746E+03  0.14664157415E+04  0.00000000000E+00 0. -1.
          1    1    1    2  502    0 -0.63017089239E+02  0.78958752648E+01  0.97398304013E+03  0.97605146424E+03  0.00000000000E+00 0. -1.
         22    1    3    3    0    0 -0.84575816846E+03 -0.46907092647E+03 -0.70523843682E+03  0.11969526584E+04  0.00000000000E+00 0. -1.
         22    1    3    3    0    0 -0.40421372457E+03 -0.13014579052E+03 -0.30258555615E+03  0.52142562338E+03  0.00000000000E+00 0. -1.
</event>
<event>
 7    1  0.5018917E-005  0.4652330E+03  0.7818608E-02  0.1127463E+00
          2   -1    0    0  502    0  0.00000000000E+00  0.00000000000E+00  0.11428800409E+04  0.11428800409E+04  0.00000000000E+00 0. -1.
          1   -1    0    0  501    0 -0.00000000000E+00 -0.00000000000E+00 -0.88577897457E+03  0.88577897457E+03  0.00000000000E+00 0. -1.
         25    2    1    2    0    0  0.39753108135E+03 -0.37967452787E+03  0.20600557003E+03  0.60020584687E+03  0.12500022393E+03 0.  0.
          2    1    1    2  501    0 -0.77229935113E+02  0.81881850479E+02 -0.61851382899E+03  0.62867197883E+03  0.00000000000E+00 0. -1.
          1    1    1    2  502    0 -0.32030114624E+03  0.29779267740E+03  0.66960932532E+03  0.79978118979E+03  0.00000000000E+00 0. -1.
         22    1    3    3    0    0  0.24737206218E+03 -0.18338124674E+03  0.61806377994E+02  0.31407267816E+03  0.00000000000E+00 0.  1.
         22    1    3    3    0    0  0.15015901917E+03 -0.19629328113E+03  0.14419919203E+03  0.28613316871E+03  0.00000000000E+00 0.  1.
</event>
<event>
 7    1  0.5018917E-005  0.5222428E+03  0.7818608E-02  0.1218867E+00
          2   -1    0    0  502    0  0.00000000000E+00  0.00000000000E+00  0.58459123463E+03  0.58459123463E+03  0.00000000000E+00 0. -1.
          1   -1    0    0  501    0 -0.00000000000E+00 -0.00000000000E+00 -0.11465258179E+04  0.11465258179E+04  0.00000000000E+00 0. -1.
         25    2    1    2    0    0  0.15180822395E+03  0.47688177263E+03 -0.24241775942E+03  0.56995976222E+03  0.12500319415E+03 0.  0.
          2    1    1    2  501    0 -0.15531247211E+03 -0.51210508181E+03 -0.64253999982E+03  0.83620047248E+03  0.00000000000E+00 0. -1.
          1    1    1    2  502    0  0.35042481583E+01  0.35223309178E+02  0.32302317595E+03  0.32495681785E+03  0.00000000000E+00 0. -1.
         22    1    3    3    0    0 -0.22375811688E+02  0.52382012444E+02 -0.28690675247E+02  0.63778578085E+02  0.00000000000E+00 0.  1.
         22    1    3    3    0    0  0.17418403564E+03  0.42449976019E+03 -0.21372708417E+03  0.50618118414E+03  0.00000000000E+00 0.  1.
</event>
<event>
 7    1  0.5018917E-005  0.1876034E+03  0.7818608E-02  0.1170293E+00
          2   -1    0    0  502    0  0.00000000000E+00  0.00000000000E+00  0.45947123061E+04  0.45947123061E+04  0.00000000000E+00 0. -1.
          1   -1    0    0  501    0 -0.00000000000E+00 -0.00000000000E+00 -0.27169444605E+03  0.27169444605E+03  0.00000000000E+00 0. -1.
         25    2    1    2    0    0  0.32629835563E+03 -0.12832142849E+03  0.19950158142E+04  0.20294455461E+04  0.12499647889E+03 0.  0.
          2    1    1    2  501    0 -0.16408590055E+03  0.85193611119E+02 -0.21776682639E+03  0.28566505703E+03  0.00000000000E+00 0. -1.
          1    1    1    2  502    0 -0.16221245508E+03  0.43127817367E+02  0.25457688722E+04  0.25512961490E+04  0.00000000000E+00 0. -1.
         22    1    3    3    0    0  0.20853823261E+03 -0.58776034042E+02  0.15118823279E+04  0.15273280558E+04  0.00000000000E+00 0. -1.
         22    1    3    3    0    0  0.11776012302E+03 -0.69545394444E+02  0.48313348629E+03  0.50211749027E+03  0.00000000000E+00 0. -1.
</event>
<event>
 7    1  0.5018917E-005  0.8437997E+03  0.7818608E-02  0.1153189E+00
          2   -1    0    0  502    0  0.00000000000E+00  0.00000000000E+00  0.20828431334E+04  0.20828431334E+04  0.00000000000E+00 0. -1.
          1   -1    0    0  501    0 -0.00000000000E+00 -0.00000000000E+00 -0.18182760010E+04  0.18182760010E+04  0.00000000000E+00 0. -1.
         25    2    1    2    0    0 -0.26568207861E+02  0.85688392519E+03 -0.89265626615E+03  0.12439520193E+04  0.12500194358E+03 0.  0.
          2    1    1    2  501    0 -0.74354201629E+01 -0.82663504323E+03 -0.52176766932E+03  0.97755934905E+03  0.00000000000E+00 0. -1.
          1    1    1    2  502    0  0.34003628024E+02 -0.30248881959E+02  0.16789910679E+04  0.16796077660E+04  0.00000000000E+00 0. -1.
         22    1    3    3    0    0  0.12905688661E+02  0.77639924494E+03 -0.80846146779E+03  0.11209693525E+04  0.00000000000E+00 0.  1.
         22    1    3    3    0    0 -0.39473896522E+02  0.80484680252E+02 -0.84194798358E+02  0.12298266680E+03  0.00000000000E+00 0.  1.
</event>
<event>
 7    1  0.5018917E-005  0.3259641E+03  0.7818608E-02  0.1171513E+00
          2   -1    0    0  502    0  0.00000000000E+00  0.00000000000E+00  0.56553996305E+03  0.56553996305E+03  0.00000000000E+00 0. -1.
          1   -1    0    0  501    0 -0.00000000000E+00 -0.00000000000E+00 -0.79027474297E+03  0.79027474297E+03  0.00000000000E+00 0. -1.
         25    2    1    2    0    0  0.47214509093E+02 -0.36063023536E+03  0.29200767441E+03  0.48288418387E+03  0.12500110636E+03 0.  0.
          2    1    1    2  501    0  0.32728947594E+02  0.89467558192E+02 -0.57621828307E+03  0.58404035624E+03  0.00000000000E+00 0. -1.
          1    1    1    2  502    0 -0.79943456687E+02  0.27116267716E+03  0.59475828732E+02  0.28889016591E+03  0.00000000000E+00 0. -1.
         22    1    3    3    0    0 -0.20048126786E+02 -0.26273872799E+03  0.22511704532E+03  0.34657070082E+03  0.00000000000E+00 0. -1.
         22    1    3    3    0    0  0.67262635879E+02 -0.97891507368E+02  0.66890629094E+02  0.13631348305E+03  0.00000000000E+00 0. -1.
</event>
<event>
 7    1  0.5018917E-005  0.3259308E+03  0.7818608E-02  0.1256888E+00
          2   -1    0    0  502    0  0.00000000000E+00  0.00000000000E+00  0.28276668041E+04  0.28276668041E+04  0.00000000000E+00 0. -1.
          1   -1    0    0  501    0 -0.00000000000E+00 -0.00000000000E+00 -0.56719564006E+03  0.56719564006E+03  0.00000000000E+00 0. -1.
         25    2    1    2    0    0 -0.33857227994E+03 -0.70273925246E+02  0.90673853697E+03  0.97845258803E+03  0.12500031710E+03 0.  0.
          2    1    1    2  501    0  0.32858281358E+02 -0.20055540516E+02 -0.51714109584E+03  0.51857188929E+03  0.00000000000E+00 0. -1.
          1    1    1    2  502    0  0.30571399858E+03  0.90329465762E+02  0.18708737229E+04  0.18978379668E+04  0.00000000000E+00 0. -1.
         22    1    3    3    0    0 -0.26785514139E+03 -0.91214888304E+02  0.80119147101E+03  0.84969071187E+03  0.00000000000E+00 0. -1.
         22    1    3    3    0    0 -0.70717138551E+02  0.20940963058E+02  0.10554706596E+03  0.12876187616E+03  0.00000000000E+00 0. -1.
</event>
<event>
 7    1  0.5018917E-005  0.4179044E+03  0.7818608E-02  0.1102972E+00
          2   -1    0    0  502    0  0.00000000000E+00  0.00000000000E+00  0.77433108269E+03  0.77433108269E+03  0.00000000000E+00 0. -1.
          1   -1    0    0  501    0 -0.00000000000E+00 -0.00000000000E+00 -0.10670728640E+04  0.10670728640E+04  0.00000000000E+00 0. -1.
         25    2    1    2    0    0 -0.42308863051E+03 -0.31750021532E+03 -0.13634884581E+03  0.56038151630E+03  0.12500424015E+03 0.  0.
          2    1    1    2  501    0  0.35780591603E+03  0.15981187082E+03 -0.64986344766E+03  0.75887245846E+03  0.00000000000E+00 0. -1.
          1    1    1    2  502    0  0.65282714487E+02  0.15768834450E+03  0.49347051217E+03  0.52214997192E+03  0.00000000000E+00 0. -1.
         22    1    3    3    0    0 -0.24032606673E+03 -0.10244274561E+03 -0.69868072640E+02  0.27043054941E+03  0.00000000000E+00 0.  1.
         22    1    3    3    0    0 -0.18276256378E+03 -0.21505746971E+03 -0.66480773168E+02  0.28995096689E+03  0.00000000000E+00 0.  1.
</event>
<event>
 7    1  0.5018917E-005  0.3057836E+03  0.7818608E-02  0.1122856E+00
          2   -1    0    0  502    0  0.00000000000E+00  0.00000000000E+00  0.87796167640E+03  0.87796167640E+03  0.00000000000E+00 0. -1.
          1   -1    0    0  501    0 -0.00000000000E+00 -0.00000000000E+00 -0.49424135643E+03  0.49424135643E+03  0.00000000000E+00 0. -1.
         25    2    1    2    0    0 -0.15975636622E+03 -0.40031431740E+03  0.25038286205E+03  0.51389770821E+03  0.12500251048E+03 0.  0.
          2    1    1    2  501    0 -0.44073708736E+00  0.18130576611E+03 -0.29793917704E+03  0.34876887517E+03  0.00000000000E+00 0. -1.
          1    1    1    2  502    0  0.16019710331E+03  0.21900855129E+03  0.43127663496E+03  0.50953644944E+03  0.00000000000E+00 0. -1.
         22    1    3    3    0    0 -0.75860430165E+02 -0.25374831485E+03  0.86603963705E+02  0.27864539954E+03  0.00000000000E+00 0. -1.
         22    1    3    3    0    0 -0.83895936058E+02 -0.14656600255E+03  0.16377889835E+03  0.23525230867E+03  0.00000000000E+00 0. -1.
</event>
<event>
 7    1  0.5018917E-005  0.5906757E+02  0.7818608E-02  0.1414350E+00
          2   -1    0    0  502    0  0.00000000000E+00  0.00000000000E+00  0.55786496735E+03  0.55786496735E+03  0.00000000000E+00 0. -1.
          1   -1    0    0  501    0 -0.00000000000E+00 -0.00000000000E+00 -0.10197504781E+04  0.10197504781E+04  0.00000000000E+00 0. -1.
         25    2    1    2    0    0 -0.43543374264E+01  0.18699268170E+00  0.21843730129E+03  0.25170696017E+03  0.12499017554E+03 0.  0.
          2    1    1    2  501    0 -0.46832158463E+02  0.35996206406E+02 -0.99919202398E+03  0.10009364009E+04  0.00000000000E+00 0. -1.
          1    1    1    2  502    0  0.51186495889E+02 -0.36183199088E+02  0.31886921195E+03  0.32497208432E+03  0.00000000000E+00 0. -1.
         22    1    3    3    0    0 -0.34701980811E+02  0.45023770733E+02  0.16931280131E+03  0.17860064975E+03  0.00000000000E+00 0. -1.
         22    1    3    3    0    0  0.30347643384E+02 -0.44836778051E+02  0.49124499983E+02  0.73106310422E+02  0.00000000000E+00 0. -1.
</event>
<event>
 7    1  0.5018917E-005  0.2891490E+03  0.7818608E-02  0.1233068E+00
          2   -1    0    0  502    0  0.00000000000E+00  0.00000000000E+00  0.50204938506E+03  0.50204938506E+03  0.00000000000E+00 0. -1.
          1   -1    0    0  501    0 -0.00000000000E+00 -0.00000000000E+00 -0.10927838163E+04  0.10927838163E+04  0.00000000000E+00 0. -1.
         25    2    1    2    0    0 -0.24989384276E+03 -0.22473897698E+03 -0.10390464271E+03  0.37333068910E+03  0.12500035290E+03 0.  0.
          2    1    1    2  501    0  0.21143030771E+03  0.18520434278E+03 -0.82877311592E+03  0.87513901826E+03  0.00000000000E+00 0. -1.
          1    1    1    2  502    0  0.38463535046E+02  0.39534634199E+02  0.34194332739E+03  0.34636349400E+03  0.00000000000E+00 0. -1.
         22    1    3    3    0    0 -0.10774558037E+03 -0.55710957659E+02  0.15470232231E+02  0.12227898012E+03  0.00000000000E+00 0. -1.
         22    1    3    3    0    0 -0.14214826238E+03 -0.16902801932E+03 -0.11937487495E+03  0.25105170898E+03  0.00000000000E+00 0. -1.
</event>
<event>
 7    1  0.5018917E-005  0.4971135E+03  0.7818608E-02  0.1019493E+00
          2   -1    0    0  502    0  0.00000000000E+00  0.00000000000E+00  0.16190080844E+04  0.16190080844E+04  0.00000000000E+00 0. -1.
          1   -1    0    0  501    0 -0.00000000000E+00 -0.00000000000E+00 -0.41155094549E+04  0.41155094549E+04  0.00000000000E+00 0. -1.
         25    2    1    2    0    0 -0.90354620819E+03  0.16983861909E+03 -0.42962039863E+03  0.10224669478E+04  0.12499626223E+03 0.  0.
          2    1    1    2  501    0  0.44257737695E+03 -0.16965961251E+03 -0.33320120986E+04  0.33655554882E+04  0.00000000000E+00 0. -1.
          1    1    1    2  502    0  0.46096883124E+03 -0.17900658018E+00  0.12651311267E+04  0.13464951033E+04  0.00000000000E+00 0. -1.
         22    1    3    3    0    0 -0.60028401807E+03  0.15914300987E+03 -0.24724845515E+03  0.66843039915E+03  0.00000000000E+00 0.  1.
         22    1    3    3    0    0 -0.30326219013E+03  0.10695609218E+02 -0.18237194349E+03  0.35403654866E+03  0.00000000000E+00 0.  1.
</event>
<event>
 7    1  0.5018917E-005  0.8189862E+03  0.7818608E-02  0.1104982E+00
          2   -1    0    0  502    0  0.00000000000E+00  0.00000000000E+00  0.28068912297E+04  0.28068912297E+04  0.00000000000E+00 0. -1.
          1   -1    0    0  501    0 -0.00000000000E+00 -0.00000000000E+00 -0.98827842986E+03  0.98827842986E+03  0.00000000000E+00 0. -1.
         25    2    1    2    0    0 -0.81234565129E+03  0.12608585056E+03  0.32306512889E+03  0.89207619876E+03  0.12500307196E+03 0.  0.
          2    1    1    2  501    0  0.81796418749E+03 -0.41410239276E+02 -0.46426331110E+03  0.94144603773E+03  0.00000000000E+00 0. -1.
          1    1    1    2  502    0 -0.56185361971E+01 -0.84675611284E+02  0.19598109821E+04  0.19616474231E+04  0.00000000000E+00 0. -1.
         22    1    3    3    0    0 -0.53329605984E+03  0.66556912798E+02  0.14845573003E+03  0.55756041274E+03  0.00000000000E+00 0.  1.
         22    1    3    3    0    0 -0.27904959145E+03  0.59528937762E+02  0.17460939886E+03  0.33451578601E+03  0.00000000000E+00 0.  1.
</event>
<event>
 7    1  0.5018917E-005  0.5143204E+03  0.7818608E-02  0.1252311E+00
          2   -1    0    0  502    0  0.00000000000E+00  0.00000000000E+00  0.88148110108E+03  0.88148110108E+03  0.00000000000E+00 0. -1.
          1   -1    0    0  501    0 -0.00000000000E+00 -0.00000000000E+00 -0.99561522772E+03  0.99561522772E+03  0.00000000000E+00 0. -1.
         25    2    1    2    0    0 -0.46975163742E+03  0.25245682353E+03 -0.11605867330E+03  0.55990615074E+03  0.12499693351E+03 0.  0.
          2    1    1    2  501    0  0.18239989451E+02 -0.17859269207E+02 -0.55916473711E+03  0.55974713393E+03  0.00000000000E+00 0. -1.
          1    1    1    2  502    0  0.45151164797E+03 -0.23459755432E+03  0.56108928377E+03  0.75744304413E+03  0.00000000000E+00 0. -1.
         22    1    3    3    0    0 -0.23079975513E+03  0.18705892584E+03 -0.34473505709E+02  0.29907857045E+03  0.00000000000E+00 0.  1.
         22    1    3    3    0    0 -0.23895188228E+03  0.65397897688E+02 -0.81585167593E+02  0.26082758029E+03  0.00000000000E+00 0.  1.
</event>
<event>
 7    1  0.5018917E-005  0.2218823E+03  0.7818608E-02  0.1312306E+00
          2   -1    0    0  502    0  0.00000000000E+00  0.00000000000E+00  0.14416203244E+04  0.14416203244E+04  0.00000000000E+00 0. -1.
          1   -1    0    0  501    0 -0.00000000000E+00 -0.00000000000E+00 -0.12736218538E+04  0.12736218538E+04  0.00000000000E+00 0. -1.
         25    2    1    2    0    0  0.21635662847E+03  0.57053766551E+02 -0.11422530330E+04  0.11706544492E+04  0.12499810009E+03 0.  0.
          2    1    1    2  501    0 -0.20982138639E+03 -0.24204046525E+02 -0.21600663328E+02  0.21231448069E+03  0.00000000000E+00 0. -1.
          1    1    1    2  502    0 -0.65352420854E+01 -0.32849720026E+02  0.13318521669E+04  0.13322732483E+04  0.00000000000E+00 0. -1.
         22    1    3    3    0    0  0.17620682789E+03  0.84806580355E+02 -0.73813137764E+03  0.76359605350E+03  0.00000000000E+00 0. -1.
         22    1    3    3    0    0  0.40149800585E+02 -0.27752813804E+02 -0.40412165540E+03  0.40705839572E+03  0.00000000000E+00 0. -1.
</event>
<event>
 7    1  0.5018917E-005  0.9595934E+03  0.7818608E-02  0.1144941E+00
          2   -1    0    0  502    0  0.00000000000E+00  0.00000000000E+00  0.13869580959E+04  0.13869580959E+04  0.00000000000E+00 0. -1.
          1   -1    0    0  501    0 -0.00000000000E+00 -0.00000000000E+00 -0.95860375788E+03  0.95860375788E+03  0.00000000000E+00 0. -1.
         25    2    1    2    0    0 -0.80334929978E+03 -0.55619432045E+03  0.34994991156E+03  0.10453758549E+04  0.12499407106E+03 0.  0.
          2    1    1    2  501    0  0.76119540025E+03  0.56926653145E+03 -0.23869525880E+03  0.98002971779E+03  0.00000000000E+00 0. -1.
          1    1    1    2  502    0  0.42153899536E+02 -0.13072210999E+02  0.31709968525E+03  0.32015628110E+03  0.00000000000E+00 0. -1.
         22    1    3    3    0    0 -0.33897486908E+03 -0.20556363304E+03  0.82286440294E+02  0.40488446173E+03  0.00000000000E+00 0.  1.
         22    1    3    3    0    0 -0.46437443071E+03 -0.35063068740E+03  0.26766347127E+03  0.64049139315E+03  0.00000000000E+00 0.  1.
</event>
<event>
 7    1  0.5018917E-005  0.1344805E+04  0.7818608E-02  0.1094291E+00
          2   -1    0    0  502    0  0.00000000000E+00  0.00000000000E+00  0.22336652347E+04  0.22336652347E+04  0.00000000000E+00 0. -1.
          1   -1    0    0  501    0 -0.00000000000E+00 -0.00000000000E+00 -0.16017249129E+04  0.16017249129E+04  0.00000000000E+00 0. -1.
         25    2    1    2    0    0  0.10583705305E+04 -0.84390519664E+03  0.52410650380E+03  0.14569271453E+04  0.12499967437E+03 0.  0.
          2    1    1    2  501    0  0.22813517291E+02  0.54817568430E+02 -0.77354832087E+03  0.77582370878E+03  0.00000000000E+00 0. -1.
          1    1    1    2  502    0 -0.10811840478E+04  0.78908762821E+03  0.88138213893E+03  0.16026392935E+04  0.00000000000E+00 0. -1.
         22    1    3    3    0    0  0.42747065578E+03 -0.33987214452E+03  0.27760501434E+03  0.61262450176E+03  0.00000000000E+00 0. -1.
         22    1    3    3    0    0  0.63089987473E+03 -0.50403305212E+03  0.24650148946E+03  0.84430264353E+03  0.00000000000E+00 0. -1.
</event>
<event>
 7    1  0.5018917E-005  0.9620355E+03  0.7818608E-02  0.1015072E+00
          2   -1    0    0  502    0  0.00000000000E+00  0.00000000000E+00  0.21531019006E+04  0.21531019006E+04  0.00000000000E+00 0. -1.
          1   -1    0    0  501    0 -0.00000000000E+00 -0.00000000000E+00 -0.12199111690E+04  0.12199111690E+04  0.00000000000E+00 0. -1.
         25    2    1    2    0    0  0.10661734419E+04 -0.63380719097E+02 -0.47321595473E+03  0.11748632411E+04  0.12500948602E+03 0.  0.
          2    1    1    2  501    0 -0.82854798271E+03 -0.28509584944E+02  0.63695906055E+02  0.83148164414E+03  0.00000000000E+00 0. -1.
          1    1    1    2  502    0 -0.23762545921E+03  0.91890304041E+02  0.13427107802E+04  0.13666681844E+04  0.00000000000E+00 0. -1.
         22    1    3    3    0    0  0.60184072888E+03  0.10390169133E+02 -0.31087494244E+03  0.67746841136E+03  0.00000000000E+00 0. -1.
         22    1    3    3    0    0  0.46433271304E+03 -0.73770888230E+02 -0.16234101229E+03  0.49739482971E+03  0.00000000000E+00 0. -1.
</event>
<event>
 7    1  0.5018917E-005  0.1765260E+03  0.7818608E-02  0.1299850E+00
          2   -1    0    0  502    0  0.00000000000E+00  0.00000000000E+00  0.62795045236E+03  0.62795045236E+03  0.00000000000E+00 0. -1.
          1   -1    0    0  501    0 -0.00000000000E+00 -0.00000000000E+00 -0.54323506824E+03  0.54323506824E+03  0.00000000000E+00 0. -1.
         25    2    1    2    0    0 -0.12175258357E+03 -0.12388623016E+03 -0.44271076783E+03  0.49171804295E+03  0.12498928029E+03 0.  0.
          2    1    1    2  501    0  0.10194221566E+03  0.16669499465E+03  0.52664752309E+02  0.20236850721E+03  0.00000000000E+00 0. -1.
          1    1    1    2  502    0  0.19810367909E+02 -0.42808764489E+02  0.47476139964E+03  0.47709897043E+03  0.00000000000E+00 0. -1.
         22    1    3    3    0    0 -0.10967325971E+02 -0.90245131247E+02 -0.25976695852E+03  0.27521507715E+03  0.00000000000E+00 0. -1.
         22    1    3    3    0    0 -0.11078525760E+03 -0.33641098914E+02 -0.18294380931E+03  0.21650296580E+03  0.00000000000E+00 0. -1.
</event>
<event>
 7    1  0.5018917E-005  0.1540771E+04  0.7818608E-02  0.1127706E+00
          2   -1    0    0  502    0  0.00000000000E+00  0.00000000000E+00  0.28242645168E+04  0.28242645168E+04  0.00000000000E+00 0. -1.
          1   -1    0    0  501    0 -0.00000000000E+00 -0.00000000000E+00 -0.10419390843E+04  0.10419390843E+04  0.00000000000E+00 0. -1.
         25    2    1    2    0    0  0.17464981733E+03  0.15223363429E+04  0.31508923192E+03  0.15693682744E+04  0.12500022712E+03 0.  0.
          2    1    1    2  501    0 -0.15102059726E+03 -0.15466224644E+04  0.10436858317E+04  0.18719317251E+04  0.00000000000E+00 0. -1.
          1    1    1    2  502    0 -0.23629220077E+02  0.24286121430E+02  0.42355036884E+03  0.42490360163E+03  0.00000000000E+00 0. -1.
         22    1    3    3    0    0  0.11378243078E+03  0.11875080984E+04  0.19674013463E+03  0.12090610431E+04  0.00000000000E+00 0.  1.
         22    1    3    3    0    0  0.60867386550E+02  0.33482824454E+03  0.11834909728E+03  0.36030723128E+03  0.00000000000E+00 0.  1.
</event>
<event>
 7    1  0.5018917E-005  0.2987547E+03  0.7818608E-02  0.1120309E+00
          2   -1    0    0  502    0  0.00000000000E+00  0.00000000000E+00  0.91956176275E+03  0.91956176275E+03  0.00000000000E+00 0. -1.
          1   -1    0    0  501    0 -0.00000000000E+00 -0.00000000000E+00 -0.13587682990E+04  0.13587682990E+04  0.00000000000E+00 0. -1.
         25    2    1    2    0    0 -0.34290511852E+03 -0.29770878798E+02 -0.44057413771E+03  0.57288852206E+03  0.12500184940E+03 0.  0.
          2    1    1    2  501    0  0.80586708150E+02  0.17378415213E+03 -0.81434386615E+03  0.83657102591E+03  0.00000000000E+00 0. -1.
          1    1    1    2  502    0  0.26231841037E+03 -0.14401327333E+03  0.81571146762E+03  0.86887051378E+03  0.00000000000E+00 0. -1.
         22    1    3    3    0    0 -0.23330840076E+02 -0.37387465925E+02 -0.77419084029E+02  0.89083473657E+02  0.00000000000E+00 0. -1.
         22    1    3    3    0    0 -0.31957427844E+03  0.76165871268E+01 -0.36315505368E+03  0.48380504840E+03  0.00000000000E+00 0. -1.
</event>
<event>
 7    1  0.5018917E-005  0.7640575E+03  0.7818608E-02  0.1103543E+00
          2   -1    0    0  502    0  0.00000000000E+00  0.00000000000E+00  0.11292665851E+04  0.11292665851E+04  0.00000000000E+00 0. -1.
          1   -1    0    0  501    0 -0.00000000000E+00 -0.00000000000E+00 -0.11199825306E+04  0.11199825306E+04  0.00000000000E+00 0. -1.
         25    2    1    2    0    0  0.26275920568E+03 -0.70795215415E+03  0.23114536280E+03  0.79956128869E+03  0.12502568889E+03 0.  0.
          2    1    1    2  501    0  0.90677970136E+02  0.19076321809E+02 -0.58656519761E+03  0.59383931444E+03  0.00000000000E+00 0. -1.
          1    1    1    2  502    0 -0.35343717582E+03  0.68887583234E+03  0.36470388923E+03  0.85584851256E+03  0.00000000000E+00 0. -1.
         22    1    3    3    0    0  0.14564452597E+03 -0.43007720548E+03  0.20081534104E+03  0.49649323441E+03  0.00000000000E+00 0. -1.
         22    1    3    3    0    0  0.11711467971E+03 -0.27787494867E+03  0.30330021766E+02  0.30306805428E+03  0.00000000000E+00 0. -1.
</event>
<event>
 7    1  0.5018917E-005  0.3593520E+03  0.7818608E-02  0.1202396E+00
          2   -1    0    0  502    0  0.00000000000E+00  0.00000000000E+00  0.25764593036E+04  0.25764593036E+04  0.00000000000E+00 0. -1.
          1   -1    0    0  501    0 -0.00000000000E+00 -0.00000000000E+00 -0.13783050723E+04  0.13783050723E+04  0.00000000000E+00 0. -1.
         25    2    1    2    0    0  0.32362642815E+03  0.11652531649E+03  0.18197694552E+03  0.40872041515E+03  0.12499821871E+03 0.  0.
          2    1    1    2  501    0  0.32420822255E+02 -0.52050895869E+02 -0.12498278780E+04  0.12513313431E+04  0.00000000000E+00 0. -1.
          1    1    1    2  502    0 -0.35604725040E+03 -0.64474420622E+02  0.22660051638E+04  0.22947126177E+04  0.00000000000E+00 0. -1.
         22    1    3    3    0    0  0.15998450517E+03  0.12222574800E+03  0.86051427113E+02  0.21894981954E+03  0.00000000000E+00 0.  1.
         22    1    3    3    0    0  0.16364192298E+03 -0.57004315128E+01  0.95925518408E+02  0.18977059561E+03  0.00000000000E+00 0.  1.
</event>
<event>
 7    1  0.5018917E-005  0.2329166E+03  0.7818608E-02  0.1127137E+00
          2   -1    0    0  502    0  0.00000000000E+00  0.00000000000E+00  0.29194796970E+04  0.29194796970E+04  0.00000000000E+00 0. -1.
          1   -1    0    0  501    0 -0.00000000000E+00 -0.00000000000E+00 -0.56086456141E+03  0.56086456141E+03  0.00000000000E+00 0. -1.
         25    2    1    2    0    0  0.26090424163E+03  0.22231426931E+03  0.45173667069E+03  0.58067914197E+03  0.12501035413E+03 0.  0.
          2    1    1    2  501    0 -0.35260119308E+02 -0.22852595377E+03 -0.46381019266E+03  0.51825407126E+03  0.00000000000E+00 0. -1.
          1    1    1    2  502    0 -0.22564412233E+03  0.62116844600E+01  0.23706886576E+04  0.23814110452E+04  0.00000000000E+00 0. -1.
         22    1    3    3    0    0  0.25765184251E+03  0.23525589216E+03  0.41847427431E+03  0.54483990768E+03  0.00000000000E+00 0.  1.
         22    1    3    3    0    0  0.32523991201E+01 -0.12941622844E+02  0.33262396378E+02  0.35839234293E+02  0.00000000000E+00 0.  1.
</event>
<event>
 7    1  0.5018917E-005  0.3345886E+03  0.7818608E-02  0.1201017E+00
          2   -1    0    0  502    0  0.00000000000E+00  0.00000000000E+00  0.39213060518E+04  0.39213060518E+04  0.00000000000E+00 0. -1.
          1   -1    0    0  501    0 -0.00000000000E+00 -0.00000000000E+00 -0.67727984759E+03  0.67727984759E+03  0.00000000000E+00 0. -1.
         25    2    1    2    0    0 -0.40532421842E+01 -0.35949629984E+03  0.28786441732E+03  0.47722614527E+03  0.12499941039E+03 0.  0.
          2    1    1    2  501    0  0.59159343087E+02  0.31133277192E+02 -0.57281902283E+03  0.57670680744E+03  0.00000000000E+00 0. -1.
          1    1    1    2  502    0 -0.55106100903E+02  0.32836302265E+03  0.35289808097E+04  0.35446529467E+04  0.00000000000E+00 0. -1.
         22    1    3    3    0    0 -0.23768574690E+02 -0.42234944417E+02  0.12567383708E+00  0.48463919224E+02  0.00000000000E+00 0.  1.
         22    1    3    3    0    0  0.19715332505E+02 -0.31726135543E+03  0.28773874348E+03  0.42876222605E+03  0.00000000000E+00 0.  1.
</event>
<event>
 7    1  0.5018917E-005  0.3367693E+03  0.7818608E-02  0.1221758E+00
          2   -1    0    0  502    0  0.00000000000E+00  0.00000000000E+00  0.24618473061E+03  0.24618473061E+03  0.00000000000E+00 0. -1.
          1   -1    0    0  501    0 -0.00000000000E+00 -0.00000000000E+00 -0.15439327751E+04  0.15439327751E+04  0.00000000000E+00 0. -1.
         25    2    1    2    0    0 -0.26353531137E+03  0.24194215378E+03 -0.34838444784E+02  0.38056412316E+03  0.12501387318E+03 0.  0.
          2    1    1    2  501    0  0.38293028755E+02 -0.37004849873E+02 -0.10163137188E+04  0.10177078609E+04  0.00000000000E+00 0. -1.
          1    1    1    2  502    0  0.22524228261E+03 -0.20493730391E+03 -0.24659588088E+03  0.39184552170E+03  0.00000000000E+00 0. -1.
         22    1    3    3    0    0 -0.11799971765E+03  0.54688012618E+02 -0.57747153986E+02  0.14230054773E+03  0.00000000000E+00 0. -1.
         22    1    3    3    0    0 -0.14553559372E+03  0.18725414116E+03  0.22908709202E+02  0.23826357543E+03  0.00000000000E+00 0. -1.
</event>
<event>
 7    1  0.5018917E-005  0.3588670E+03  0.7818608E-02  0.1154754E+00
          2   -1    0    0  502    0  0.00000000000E+00  0.00000000000E+00  0.10362516224E+04  0.10362516224E+04  0.00000000000E+00 0. -1.
          1   -1    0    0  501    0 -0.00000000000E+00 -0.00000000000E+00 -0.96976718005E+03  0.96976718005E+03  0.00000000000E+00 0. -1.
         25    2    1    2    0    0 -0.37840304488E+03  0.19616696284E+03  0.13087106776E+03  0.46305641761E+03  0.12499467121E+03 0.  0.
          2    1    1    2  501    0  0.33649391142E+03 -0.99830819230E+02 -0.76122619050E+03  0.83824796927E+03  0.00000000000E+00 0. -1.
          1    1    1    2  502    0  0.41909133464E+02 -0.96336143609E+02  0.69683956506E+03  0.70471441554E+03  0.00000000000E+00 0. -1.
         22    1    3    3    0    0 -0.19641492275E+03  0.38901806332E+02  0.88115963914E+02  0.21876150372E+03  0.00000000000E+00 0. -1.
         22    1    3    3    0    0 -0.18198812213E+03  0.15726515651E+03  0.42755103843E+02  0.24429491389E+03  0.00000000000E+00 0. -1.
</event>
<event>
 7    1  0.5018917E-005  0.1572136E+03  0.7818608E-02  0.1219538E+00
          2   -1    0    0  502    0  0.00000000000E+00  0.00000000000E+00  0.30570165205E+04  0.30570165205E+04  0.00000000000E+00 0. -1.
          1   -1    0    0  501    0 -0.00000000000E+00 -0.00000000000E+00 -0.49815799246E+03  0.49815799246E+03  0.00000000000E+00 0. -1.
         25    2    1    2    0    0  0.11768526388E+03  0.17540543388E+03 -0.25798581361E+03  0.35608924240E+03  0.12500392378E+03 0.  0.
          2    1    1    2  501    0 -0.11530804854E+03 -0.18345811302E+02 -0.17103048094E+03  0.20708437957E+03  0.00000000000E+00 0. -1.
          1    1    1    2  502    0 -0.23772153455E+01 -0.15705962258E+03  0.29878748226E+04  0.29920008910E+04  0.00000000000E+00 0. -1.
         22    1    3    3    0    0  0.11320814014E+03  0.56640942681E+02 -0.13159302141E+03  0.18259518796E+03  0.00000000000E+00 0.  1.
         22    1    3    3    0    0  0.44771237429E+01  0.11876449120E+03 -0.12639279220E+03  0.17349405444E+03  0.00000000000E+00 0.  1.
</event>
<event>
 7    1  0.5018917E-005  0.3577922E+03  0.7818608E-02  0.1156321E+00
          2   -1    0    0  502    0  0.00000000000E+00  0.00000000000E+00  0.15996668237E+04  0.15996668237E+04  0.00000000000E+00 0. -1.
          1   -1    0    0  501    0 -0.00000000000E+00 -0.00000000000E+00 -0.30874088919E+03  0.30874088919E+03  0.00000000000E+00 0. -1.
         25    2    1    2    0    0  0.34766701287E+03 -0.15356181485E+03  0.45205511248E+03  0.60368214497E+03  0.12499889849E+03 0.  0.
          2    1    1    2  501    0 -0.27371801625E+03  0.22590962931E+03 -0.93194972108E+02  0.36693598333E+03  0.00000000000E+00 0. -1.
          1    1    1    2  502    0 -0.73948996616E+02 -0.72347814456E+02  0.93206579410E+03  0.93778958455E+03  0.00000000000E+00 0. -1.
         22    1    3    3    0    0  0.35007562577E+03 -0.13335872573E+03  0.40119519725E+03  0.54890352503E+03  0.00000000000E+00 0. -1.
         22    1    3    3    0    0 -0.24086129054E+01 -0.20203089123E+02  0.50859915230E+02  0.54778619948E+02  0.00000000000E+00 0. -1.
</event>
<event>
 7    1  0.5018917E-005  0.2297056E+03  0.7818608E-02  0.1215631E+00
          2   -1    0    0  502    0  0.00000000000E+00  0.00000000000E+00  0.82212216886E+03  0.82212216886E+03  0.00000000000E+00 0. -1.
          1   -1    0    0  501    0 -0.00000000000E+00 -0.00000000000E+00 -0.35809565002E+03  0.35809565002E+03  0.00000000000E+00 0. -1.
         25    2    1    2    0    0  0.13652136529E+03 -0.23948201267E+03  0.31916424875E+03  0.43986436262E+03  0.12500048899E+03 0.  0.
          2    1    1    2  501    0  0.64767029229E+01  0.83018358697E+02 -0.26562400103E+03  0.27837044650E+03  0.00000000000E+00 0. -1.
          1    1    1    2  502    0 -0.14299806821E+03  0.15646365398E+03  0.41048627112E+03  0.46198300976E+03  0.00000000000E+00 0. -1.
         22    1    3    3    0    0  0.12173762072E+02 -0.97300284617E+02  0.18094636360E+03  0.20580848469E+03  0.00000000000E+00 0. -1.
         22    1    3    3    0    0  0.12434760322E+03 -0.14218172806E+03  0.13821788515E+03  0.23405587793E+03  0.00000000000E+00 0. -1.
</event>
<event>
 7    1  0.5018917E-005  0.1763563E+03  0.7818608E-02  0.1192916E+00
          2   -1    0    0  502    0  0.00000000000E+00  0.00000000000E+00  0.13950026901E+04  0.13950026901E+04  0.00000000000E+00 0. -1.
          1   -1    0    0  501    0 -0.00000000000E+00 -0.00000000000E+00 -0.75483670269E+03  0.75483670269E+03  0.00000000000E+00 0. -1.
         25    2    1    2    0    0  0.18997970243E+03  0.22012311058E+02 -0.39282337324E+03  0.45443634527E+03  0.12500144068E+03 0.  0.
          2    1    1    2  501    0 -0.12202201207E+03 -0.14276043207E+03 -0.30070386340E+03  0.35453169937E+03  0.00000000000E+00 0. -1.
          1    1    1    2  502    0 -0.67957690361E+02  0.12074812101E+03  0.13336932240E+04  0.13408713481E+04  0.00000000000E+00 0. -1.
         22    1    3    3    0    0  0.17783497050E+03  0.31851246992E+02 -0.23788867926E+03  0.29871525302E+03  0.00000000000E+00 0.  1.
         22    1    3    3    0    0  0.12144731929E+02 -0.98389359341E+01 -0.15493469398E+03  0.15572109225E+03  0.00000000000E+00 0.  1.
</event>
<event>
 7    1  0.5018917E-005  0.2295441E+03  0.7818608E-02  0.1151827E+00
          2   -1    0    0  502    0  0.00000000000E+00  0.00000000000E+00  0.22646552553E+04  0.22646552553E+04  0.00000000000E+00 0. -1.
          1   -1    0    0  501    0 -0.00000000000E+00 -0.00000000000E+00 -0.15220824481E+03  0.15220824481E+03  0.00000000000E+00 0. -1.
         25    2    1    2    0    0  0.16354697247E+03 -0.11556294212E+03  0.13237939587E+03  0.27065038970E+03  0.12499969279E+03 0.  0.
          2    1    1    2  501    0 -0.10416021651E+03  0.27486059963E+03  0.19425101550E+03  0.35232251838E+03  0.00000000000E+00 0. -1.
          1    1    1    2  502    0 -0.59386755957E+02 -0.15929765751E+03  0.17858165991E+04  0.17938905920E+04  0.00000000000E+00 0. -1.
         22    1    3    3    0    0  0.70121091952E+02 -0.46979453389E+01 -0.56065024927E+01  0.70501568048E+02  0.00000000000E+00 0. -1.
         22    1    3    3    0    0  0.93425880518E+02 -0.11086499678E+03  0.13798589836E+03  0.20014882165E+03  0.00000000000E+00 0. -1.
</event>
<event>
 7    1  0.5018917E-005  0.4334292E+03  0.7818608E-02  0.1270005E+00
          2   -1    0    0  502    0  0.00000000000E+00  0.00000000000E+00  0.10654682878E+04  0.10654682878E+04  0.00000000000E+00 0. -1.
          1   -1    0    0  501    0 -0.00000000000E+00 -0.00000000000E+00 -0.12322755535E+04  0.12322755535E+04  0.00000000000E+00 0. -1.
         25    2    1    2    0    0  0.42367629896E+03  0.10158122815E+03  0.80749325629E+03  0.92600453055E+03  0.12497471520E+03 0.  0.
          2    1    1    2  501    0 -0.16089578896E+02  0.19737872877E+02 -0.94513856310E+03  0.94548155013E+03  0.00000000000E+00 0. -1.
          1    1    1    2  502    0 -0.40758672007E+03 -0.12131910103E+03 -0.29161958863E+02  0.42625776063E+03  0.00000000000E+00 0. -1.
         22    1    3    3    0    0  0.30162098732E+03  0.12033632990E+02  0.54092118064E+03  0.61944794130E+03  0.00000000000E+00 0. -1.
         22    1    3    3    0    0  0.12205531164E+03  0.89547595164E+02  0.26657207564E+03  0.30655658925E+03  0.00000000000E+00 0. -1.
</event>
<event>
 7    1  0.5018917E-005  0.4761187E+03  0.7818608E-02  0.1252185E+00
          2   -1    0    0  502    0  0.00000000000E+00  0.00000000000E+00  0.92169688604E+03  0.92169688604E+03  0.00000000000E+00 0. -1.
          1   -1    0    0  501    0 -0.00000000000E+00 -0.00000000000E+00 -0.14985989634E+04  0.14985989634E+04  0.00000000000E+00 0. -1.
         25    2    1    2    0    0  0.19392926287E+03 -0.45008639912E+03 -0.12666791753E+03  0.52139769229E+03  0.12499786609E+03 0.  0.
          2    1    1    2  501    0  0.12481117378E+02  0.24628153985E+02 -0.10971925313E+04  0.10975398740E+04  0.00000000000E+00 0. -1.
          1    1    1    2  502    0 -0.20641038025E+03  0.42545824514E+03  0.64695837151E+03  0.80135828310E+03  0.00000000000E+00 0. -1.
         22    1    3    3    0    0  0.45663977833E+02 -0.22602988420E+03 -0.10020341756E+03  0.25142679315E+03  0.00000000000E+00 0.  1.
         22    1    3    3    0    0  0.14826528504E+03 -0.22405651492E+03 -0.26464499968E+02  0.26997089914E+03  0.00000000000E+00 0.  1.
</event>
<event>
 7    1  0.5018917E-005  0.3032781E+03  0.7818608E-02  0.1191374E+00
          2   -1    0    0  502    0  0.00000000000E+00  0.00000000000E+00  0.55655109245E+03  0.55655109245E+03  0.00000000000E+00 0. -1.
          1   -1    0    0  501    0 -0.00000000000E+00 -0.00000000000E+00 -0.56441734002E+03  0.56441734002E+03  0.00000000000E+00 0. -1.
         25    2    1    2    0    0  0.16443414180E+03  0.32072708188E+03 -0.10633982982E+03  0.39603039458E+03  0.12500986357E+03 0.  0.
          2    1    1    2  501    0 -0.12791543246E+03 -0.24736213157E+03 -0.24555798633E+03  0.37128036125E+03  0.00000000000E+00 0. -1.
          1    1    1    2  502    0 -0.36518709335E+02 -0.73364950308E+02  0.34403156858E+03  0.35365767664E+03  0.00000000000E+00 0. -1.
         22    1    3    3    0    0 -0.14584999445E+02  0.32714780456E+02  0.10542141921E+02  0.37337860482E+02  0.00000000000E+00 0.  1.
         22    1    3    3    0    0  0.17901914124E+03  0.28801230142E+03 -0.11688197174E+03  0.35869253410E+03  0.00000000000E+00 0.  1.
</event>
<event>
 7    1  0.5018917E-005  0.1112855E+03  0.7818608E-02  0.1440969E+00
          2   -1    0    0  502    0  0.00000000000E+00  0.00000000000E+00  0.21914305655E+03  0.21914305655E+03  0.00000000000E+00 0. -1.
          1   -1    0    0  501    0 -0.00000000000E+00 -0.00000000000E+00 -0.76422242129E+03  0.76422242129E+03  0.00000000000E+00 0. -1.
         25    2    1    2    0    0 -0.12932231027E+03 -0.30489344737E+02 -0.37992893137E+03  0.42145608364E+03  0.12500150984E+03 0.  0.
          2    1    1    2  501    0  0.20677517705E+02  0.10537124970E+02 -0.34773627334E+03  0.34850983707E+03  0.00000000000E+00 0. -1.
          1    1    1    2  502    0  0.10864479257E+03  0.19952219767E+02  0.18258583997E+03  0.21339955713E+03  0.00000000000E+00 0. -1.
         22    1    3    3    0    0 -0.13153330246E+03 -0.31145868720E+02 -0.19931131964E+03  0.24082374661E+03  0.00000000000E+00 0.  1.
         22    1    3    3    0    0  0.22109921924E+01  0.65652398288E+00 -0.18061761174E+03  0.18063233703E+03  0.00000000000E+00 0.  1.
</event>
<event>
 7    1  0.5018917E-005  0.7801534E+02  0.7818608E-02  0.1369903E+00
          2   -1    0    0  502    0  0.00000000000E+00  0.00000000000E+00  0.51548771736E+03  0.51548771736E+03  0.00000000000E+00 0. -1.
          1   -1    0    0  501    0 -0.00000000000E+00 -0.00000000000E+00 -0.74552961357E+02  0.74552961357E+02  0.00000000000E+00 0. -1.
         25    2    1    2    0    0  0.76046424023E+02  0.34533629394E+02  0.18918403239E+03  0.24161573517E+03  0.12494772989E+03 0.  0.
          2    1    1    2  501    0 -0.76609853372E+02  0.23337686323E+02 -0.96766630888E+01  0.80668178641E+02  0.00000000000E+00 0. -1.
          1    1    1    2  502    0  0.56342934934E+00 -0.57871315718E+02  0.26142738670E+03  0.26775676491E+03  0.00000000000E+00 0. -1.
         22    1    3    3    0    0  0.10702896397E+03  0.37411249830E+02  0.11656210482E+03  0.16260850231E+03  0.00000000000E+00 0. -1.
         22    1    3    3    0    0 -0.30982539947E+02 -0.28776204355E+01  0.72621927570E+02  0.79007232864E+02  0.00000000000E+00 0. -1.
</event>
<event>
 7    1  0.5018917E-005  0.6193645E+03  0.7818608E-02  0.1156706E+00
          2   -1    0    0  502    0  0.00000000000E+00  0.00000000000E+00  0.28148585582E+04  0.28148585582E+04  0.00000000000E+00 0. -1.
          1   -1    0    0  501    0 -0.00000000000E+00 -0.00000000000E+00 -0.43436120439E+03  0.43436120439E+03  0.00000000000E+00 0. -1.
         25    2    1    2    0    0  0.37906833517E+03 -0.46945328297E+03  0.16697400571E+04  0.17798137146E+04  0.12500325082E+03 0.  0.
          2    1    1    2  501    0 -0.41856650049E+01 -0.59346131443E+02 -0.27955555437E+03  0.28581600916E+03  0.00000000000E+00 0. -1.
          1    1    1    2  502    0 -0.37488267016E+03  0.52879941442E+03  0.99031285114E+03  0.11835900389E+04  0.00000000000E+00 0. -1.
         22    1    3    3    0    0  0.13140624478E+03 -0.15321933182E+03  0.39981861789E+03  0.44788245335E+03  0.00000000000E+00 0. -1.
         22    1    3    3    0    0  0.24766209038E+03 -0.31623395115E+03  0.12699214392E+04  0.13319312612E+04  0.00000000000E+00 0. -1.
</event>
<event>
 7    1  0.5018917E-005  0.6751782E+03  0.7818608E-02  0.1156095E+00
          2   -1    0    0  502    0  0.00000000000E+00  0.00000000000E+00  0.66850596406E+03  0.66850596406E+03  0.00000000000E+00 0. -1.
          1   -1    0    0  501    0 -0.00000000000E+00 -0.00000000000E+00 -0.23953398503E+04  0.23953398503E+04  0.00000000000E+00 0. -1.
         25    2    1    2    0    0  0.68597525635E+03 -0.17260891619E+03 -0.96685504378E+03  0.12044872374E+04  0.12499975651E+03 0.  0.
          2    1    1    2  501    0 -0.63541799965E+03  0.15103470232E+03 -0.12265281851E+04  0.13895822770E+04  0.00000000000E+00 0. -1.
          1    1    1    2  502    0 -0.50557256700E+02  0.21574213866E+02  0.46654934264E+03  0.46977629999E+03  0.00000000000E+00 0. -1.
         22    1    3    3    0    0  0.54038527398E+03 -0.12425360184E+03 -0.66463814645E+03  0.86556286174E+03  0.00000000000E+00 0. -1.
         22    1    3    3    0    0  0.14558998237E+03 -0.48355314348E+02 -0.30221689733E+03  0.33892437567E+03  0.00000000000E+00 0. -1.
</event>
<event>
 7    1  0.5018917E-005  0.6596184E+03  0.7818608E-02  0.1111203E+00
          2   -1    0    0  502    0  0.00000000000E+00  0.00000000000E+00  0.47521301522E+03  0.47521301522E+03  0.00000000000E+00 0. -1.
          1   -1    0    0  501    0 -0.00000000000E+00 -0.00000000000E+00 -0.20900613486E+04  0.20900613486E+04  0.00000000000E+00 0. -1.
         25    2    1    2    0    0  0.56774181072E+03 -0.30718617766E+03 -0.72573538240E+02  0.66150278512E+03  0.12499961950E+03 0.  0.
          2    1    1    2  501    0 -0.98020991284E+01 -0.96816668140E+02 -0.10562436665E+04  0.10607168479E+04  0.00000000000E+00 0. -1.
          1    1    1    2  502    0 -0.55793971159E+03  0.40400284580E+03 -0.48603112868E+03  0.84305473087E+03  0.00000000000E+00 0. -1.
         22    1    3    3    0    0  0.82303269310E+01  0.54789331798E+01  0.11386875529E+02  0.15080382107E+02  0.00000000000E+00 0.  1.
         22    1    3    3    0    0  0.55951148379E+03 -0.31266511084E+03 -0.83960413769E+02  0.64642240301E+03  0.00000000000E+00 0.  1.
</event>
<event>
 7    1  0.5018917E-005  0.2230115E+03  0.7818608E-02  0.1210308E+00
          2   -1    0    0  502    0  0.00000000000E+00  0.00000000000E+00  0.15699037199E+04  0.15699037199E+04  0.00000000000E+00 0. -1.
          1   -1    0    0  501    0 -0.00000000000E+00 -0.00000000000E+00 -0.10522532852E+03  0.10522532852E+03  0.00000000000E+00 0. -1.
         25    2    1    2    0    0 -0.12598687965E+03 -0.17503034848E+03  0.30699300421E+03  0.39544684957E+03  0.12500075786E+03 0.  0.
          2    1    1    2  501    0 -0.70047463975E+02  0.57712711397E+02 -0.86604591396E+01  0.91172407112E+02  0.00000000000E+00 0. -1.
          1    1    1    2  502    0  0.19603434362E+03  0.11731763709E+03  0.11663458463E+04  0.11885097918E+04  0.00000000000E+00 0. -1.
         22    1    3    3    0    0 -0.14971147807E+03 -0.16392478864E+03  0.28487440808E+03  0.36116241689E+03  0.00000000000E+00 0. -1.
         22    1    3    3    0    0  0.23724598415E+02 -0.11105559847E+02  0.22118596127E+02  0.34284432678E+02  0.00000000000E+00 0. -1.
</event>
<event>
 7    1  0.5018917E-005  0.4692476E+03  0.7818608E-02  0.1154858E+00
          2   -1    0    0  502    0  0.00000000000E+00  0.00000000000E+00  0.92549963636E+03  0.92549963636E+03  0.00000000000E+00 0. -1.
          1   -1    0    0  501    0 -0.00000000000E+00 -0.00000000000E+00 -0.45648106497E+03  0.45648106497E+03  0.00000000000E+00 0. -1.
         25    2    1    2    0    0  0.50136421588E+03 -0.55239508462E+02  0.49018063719E+03  0.71436602214E+03  0.12499710497E+03 0.  0.
          2    1    1    2  501    0 -0.80215050743E+02  0.22437962863E+01 -0.19351019542E+03  0.20948910405E+03  0.00000000000E+00 0. -1.
          1    1    1    2  502    0 -0.42114916514E+03  0.52995712176E+02  0.17234812962E+03  0.45812557513E+03  0.00000000000E+00 0. -1.
         22    1    3    3    0    0  0.17964806511E+03 -0.11035835982E+02  0.97142043472E+02  0.20452822197E+03  0.00000000000E+00 0. -1.
         22    1    3    3    0    0  0.32171615077E+03 -0.44203672480E+02  0.39303859372E+03  0.50983780017E+03  0.00000000000E+00 0. -1.
</event>
<event>
 7    1  0.5018917E-005  0.8006984E+03  0.7818608E-02  0.1067181E+00
          2   -1    0    0  502    0  0.00000000000E+00  0.00000000000E+00  0.18808073325E+04  0.18808073325E+04  0.00000000000E+00 0. -1.
          1   -1    0    0  501    0 -0.00000000000E+00 -0.00000000000E+00 -0.13138872250E+04  0.13138872250E+04  0.00000000000E+00 0. -1.
         25    2    1    2    0    0 -0.51337565918E+03  0.68569880077E+03  0.78511625424E+03  0.11686614608E+04  0.12499865828E+03 0.  0.
          2    1    1    2  501    0 -0.14601879012E+02 -0.14286322473E+03 -0.95721718866E+03  0.96792967829E+03  0.00000000000E+00 0. -1.
          1    1    1    2  502    0  0.52797753819E+03 -0.54283557604E+03  0.73902104192E+03  0.10581034183E+04  0.00000000000E+00 0. -1.
         22    1    3    3    0    0 -0.47949845102E+02  0.20429649571E+02  0.31517184752E+02  0.60908875885E+02  0.00000000000E+00 0. -1.
         22    1    3    3    0    0 -0.46542581408E+03  0.66526915120E+03  0.75359906949E+03  0.11077525850E+04  0.00000000000E+00 0. -1.
</event>
<event>
 7    1  0.5018917E-005  0.6092819E+03  0.7818608E-02  0.1195139E+00
          2   -1    0    0  502    0  0.00000000000E+00  0.00000000000E+00  0.70464001146E+03  0.70464001146E+03  0.00000000000E+00 0. -1.
          1   -1    0    0  501    0 -0.00000000000E+00 -0.00000000000E+00 -0.96375520143E+03  0.96375520143E+03  0.00000000000E+00 0. -1.
         25    2    1    2    0    0 -0.57739638844E+03 -0.19511873181E+03  0.13856409168E+03  0.63740319973E+03  0.12499969052E+03 0.  0.
          2    1    1    2  501    0 -0.11584470583E+02  0.37385957475E+02 -0.41905744522E+03  0.42088128037E+03  0.00000000000E+00 0. -1.
          1    1    1    2  502    0  0.58898085902E+03  0.15773277434E+03  0.21378163572E+02  0.61011073279E+03  0.00000000000E+00 0. -1.
         22    1    3    3    0    0 -0.30410853241E+03 -0.16788327558E+03  0.84257423897E+02  0.35744385179E+03  0.00000000000E+00 0. -1.
         22    1    3    3    0    0 -0.27328785603E+03 -0.27235456236E+02  0.54306667786E+02  0.27995934793E+03  0.00000000000E+00 0. -1.
</event>
<event>
 7    1  0.5018917E-005  0.9440839E+03  0.7818608E-02  0.1120284E+00
          2   -1    0    0  502    0  0.00000000000E+00  0.00000000000E+00  0.22167755782E+04  0.22167755782E+04  0.00000000000E+00 0. -1.
          1   -1    0    0  501    0 -0.00000000000E+00 -0.00000000000E+00 -0.12468133076E+04  0.12468133076E+04  0.00000000000E+00 0. -1.
         25    2    1    2    0    0 -0.97821945246E+03  0.13017505065E+03  0.37052057638E+03  0.10614941016E+04  0.12500155675E+03 0.  0.
          2    1    1    2  501    0  0.59357290378E+02 -0.12395087758E+02 -0.75704192446E+03  0.75946652429E+03  0.00000000000E+00 0. -1.
          1    1    1    2  502    0  0.91886216208E+03 -0.11777996289E+03  0.13564836187E+04  0.16426282600E+04  0.00000000000E+00 0. -1.
         22    1    3    3    0    0 -0.32764153172E+03  0.45059964201E+02  0.18814527927E+03  0.38049706937E+03  0.00000000000E+00 0. -1.
         22    1    3    3    0    0 -0.65057792074E+03  0.85115086447E+02  0.18237529711E+03  0.68099703222E+03  0.00000000000E+00 0. -1.
</event>
<event>
 7    1  0.5018917E-005  0.1409420E+03  0.7818608E-02  0.1424357E+00
          2   -1    0    0  502    0  0.00000000000E+00  0.00000000000E+00  0.15290661847E+03  0.15290661847E+03  0.00000000000E+00 0. -1.
          1   -1    0    0  501    0 -0.00000000000E+00 -0.00000000000E+00 -0.24378968680E+03  0.24378968680E+03  0.00000000000E+00 0. -1.
         25    2    1    2    0    0  0.64542219351E+01  0.13171666135E+03 -0.13447623127E+03  0.22605242190E+03  0.12499961924E+03 0.  0.
          2    1    1    2  501    0  0.18175337214E+02  0.10059623761E+02  0.20888424179E+01  0.20878270419E+02  0.00000000000E+00 0. -1.
          1    1    1    2  502    0 -0.24629559149E+02 -0.14177628511E+03  0.41504320526E+02  0.14976561296E+03  0.00000000000E+00 0. -1.
         22    1    3    3    0    0 -0.58938283517E+02  0.61613722262E+02 -0.54389594205E+02  0.10113456379E+03  0.00000000000E+00 0. -1.
         22    1    3    3    0    0  0.65392505453E+02  0.70102939085E+02 -0.80086637065E+02  0.12491785811E+03  0.00000000000E+00 0. -1.
</event>
<event>
 7    1  0.5018917E-005  0.4100989E+03  0.7818608E-02  0.1182895E+00
          2   -1    0    0  502    0  0.00000000000E+00  0.00000000000E+00  0.14846653028E+04  0.14846653028E+04  0.00000000000E+00 0. -1.
          1   -1    0    0  501    0 -0.00000000000E+00 -0.00000000000E+00 -0.10728534566E+04  0.10728534566E+04  0.00000000000E+00 0. -1.
         25    2    1    2    0    0 -0.36389055989E+03 -0.29237975495E+03  0.89570019408E+02  0.49147816127E+03  0.12500293575E+03 0.  0.
          2    1    1    2  501    0  0.30627165702E+03  0.25900433567E+03 -0.82475187165E+03  0.91711570894E+03  0.00000000000E+00 0. -1.
          1    1    1    2  502    0  0.57618902871E+02  0.33375419277E+02  0.11469936985E+04  0.11489248891E+04  0.00000000000E+00 0. -1.
         22    1    3    3    0    0 -0.18080852598E+03 -0.93784110873E+02 -0.91606037458E+01  0.20388991927E+03  0.00000000000E+00 0. -1.
         22    1    3    3    0    0 -0.18308203391E+03 -0.19859564408E+03  0.98730623154E+02  0.28758824200E+03  0.00000000000E+00 0. -1.
</event>
<event>
 7    1  0.5018917E-005  0.4058035E+03  0.7818608E-02  0.1223943E+00
          2   -1    0    0  502    0  0.00000000000E+00  0.00000000000E+00  0.67019702733E+03  0.67019702733E+03  0.00000000000E+00 0. -1.
          1   -1    0    0  501    0 -0.00000000000E+00 -0.00000000000E+00 -0.11193978198E+04  0.11193978198E+04  0.00000000000E+00 0. -1.
         25    2    1    2    0    0  0.31760474988E+03 -0.24342030847E+03  0.11213880949E+03  0.43396555298E+03  0.12499905942E+03 0.  0.
          2    1    1    2  501    0  0.32192723168E+02  0.28799841021E+02 -0.85177148754E+03  0.85286603242E+03  0.00000000000E+00 0. -1.
          1    1    1    2  502    0 -0.34979747305E+03  0.21462046745E+03  0.29043188557E+03  0.50276326174E+03  0.00000000000E+00 0. -1.
         22    1    3    3    0    0  0.11512799023E+03 -0.54124796614E+02  0.90136770645E+02  0.15591210718E+03  0.00000000000E+00 0. -1.
         22    1    3    3    0    0  0.20247675965E+03 -0.18929551185E+03  0.22002038846E+02  0.27805344580E+03  0.00000000000E+00 0. -1.
</event>
<event>
 7    1  0.5018917E-005  0.2920173E+03  0.7818608E-02  0.1210403E+00
          2   -1    0    0  502    0  0.00000000000E+00  0.00000000000E+00  0.30349007986E+03  0.30349007986E+03  0.00000000000E+00 0. -1.
          1   -1    0    0  501    0 -0.00000000000E+00 -0.00000000000E+00 -0.19692378058E+04  0.19692378058E+04  0.00000000000E+00 0. -1.
         25    2    1    2    0    0 -0.29695528421E+02 -0.30426419247E+03  0.85793469332E+01  0.33039005007E+03  0.12500182706E+03 0.  0.
          2    1    1    2  501    0  0.65054577410E+02  0.23714374526E+02 -0.16576305003E+04  0.16590760517E+04  0.00000000000E+00 0. -1.
          1    1    1    2  502    0 -0.35359048989E+02  0.28054981794E+03 -0.16696572542E+02  0.28326178391E+03  0.00000000000E+00 0. -1.
         22    1    3    3    0    0  0.14344408335E+02 -0.19804487618E+03 -0.44896813976E+02  0.20357617478E+03  0.00000000000E+00 0. -1.
         22    1    3    3    0    0 -0.44039936756E+02 -0.10621931628E+03  0.53476160909E+02  0.12681387529E+03  0.00000000000E+00 0. -1.
</event>
<event>
 7    1  0.5018917E-005  0.2251437E+03  0.7818608E-02  0.1167761E+00
          2   -1    0    0  502    0  0.00000000000E+00  0.00000000000E+00  0.18728207603E+04  0.18728207603E+04  0.00000000000E+00 0. -1.
          1   -1    0    0  501    0 -0.00000000000E+00 -0.00000000000E+00 -0.15525281762E+04  0.15525281762E+04  0.00000000000E+00 0. -1.
         25    2    1    2    0    0 -0.27305410753E+03  0.60445338077E+02 -0.17809648358E+03  0.35432582283E+03  0.12496498202E+03 0.  0.
          2    1    1    2  501    0  0.21175664203E+03  0.69832585598E+02 -0.12737126425E+04  0.12930821169E+04  0.00000000000E+00 0. -1.
          1    1    1    2  502    0  0.61297465497E+02 -0.13027792367E+03  0.17721017102E+04  0.17779409968E+04  0.00000000000E+00 0. -1.
         22    1    3    3    0    0 -0.25598945630E+03  0.78659279318E+02 -0.18828547773E+03  0.32736723276E+03  0.00000000000E+00 0.  1.
         22    1    3    3    0    0 -0.17064651228E+02 -0.18213941241E+02  0.10188994151E+02  0.26958590076E+02  0.00000000000E+00 0.  1.
</event>
<event>
 7    1  0.5018917E-005  0.2141950E+03  0.7818608E-02  0.1174154E+00
          2   -1    0    0  502    0  0.00000000000E+00  0.00000000000E+00  0.15445963897E+04  0.15445963897E+04  0.00000000000E+00 0. -1.
          1   -1    0    0  501    0 -0.00000000000E+00 -0.00000000000E+00 -0.86996924072E+02  0.86996924072E+02  0.00000000000E+00 0. -1.
         25    2    1    2    0    0 -0.28770954694E+03  0.14794380416E+03  0.49085404692E+03  0.60102036389E+03  0.12499451926E+03 0.  0.
          2    1    1    2  501    0  0.10448777833E+03 -0.94204001374E+02  0.23111787816E+03  0.27056896219E+03  0.00000000000E+00 0. -1.
          1    1    1    2  502    0  0.18322176861E+03 -0.53739802788E+02  0.73562754057E+03  0.76000398772E+03  0.00000000000E+00 0. -1.
         22    1    3    3    0    0 -0.20159300023E+03  0.38855265000E+02  0.25639115712E+03  0.32845988311E+03  0.00000000000E+00 0. -1.
         22    1    3    3    0    0 -0.86116546710E+02  0.10908853916E+03  0.23446288980E+03  0.27256048079E+03  0.00000000000E+00 0. -1.
</event>
<event>
 7    1  0.5018917E-005  0.1448309E+03  0.7818608E-02  0.1235820E+00
          2   -1    0    0  502    0  0.00000000000E+00  0.00000000000E+00  0.13719654881E+03  0.13719654881E+03  0.00000000000E+00 0. -1.
          1   -1    0    0  501    0 -0.00000000000E+00 -0.00000000000E+00 -0.10869640640E+04  0.10869640640E+04  0.00000000000E+00 0. -1.
         25    2    1    2    0    0  0.11991801633E+03 -0.21114190387E+03 -0.21747340615E+03  0.34911396626E+03  0.12499857938E+03 0.  0.
          2    1    1    2  501    0 -0.68951287376E+02  0.11699276866E+03 -0.75372721345E+03  0.76586310803E+03  0.00000000000E+00 0. -1.
          1    1    1    2  502    0 -0.50966728957E+02  0.94149135213E+02  0.21433104402E+02  0.10918353853E+03  0.00000000000E+00 0. -1.
         22    1    3    3    0    0  0.13110843591E+03 -0.18041903680E+03 -0.13574712997E+03  0.26108951358E+03  0.00000000000E+00 0.  1.
         22    1    3    3    0    0 -0.11190419580E+02 -0.30722867070E+02 -0.81726276182E+02  0.88024452682E+02  0.00000000000E+00 0.  1.
</event>
<event>
 7    1  0.5018917E-005  0.3753722E+03  0.7818608E-02  0.1243913E+00
          2   -1    0    0  502    0  0.00000000000E+00  0.00000000000E+00  0.16924851313E+04  0.16924851313E+04  0.00000000000E+00 0. -1.
          1   -1    0    0  501    0 -0.00000000000E+00 -0.00000000000E+00 -0.20708045211E+03  0.20708045211E+03  0.00000000000E+00 0. -1.
         25    2    1    2    0    0 -0.28485136872E+03 -0.24967615831E+03  0.61958258039E+03  0.73687578486E+03  0.12499944839E+03 0.  0.
          2    1    1    2  501    0  0.29664523600E+02 -0.23824266350E+02 -0.11065729991E+03  0.11701545903E+03  0.00000000000E+00 0. -1.
          1    1    1    2  502    0  0.25518684512E+03  0.27350042466E+03  0.97647939874E+03  0.10456743395E+04  0.00000000000E+00 0. -1.
         22    1    3    3    0    0 -0.12278329017E+03 -0.12646778969E+03  0.40175963271E+03  0.43872615679E+03  0.00000000000E+00 0.  1.
         22    1    3    3    0    0 -0.16206807855E+03 -0.12320836862E+03  0.21782294768E+03  0.29814962808E+03  0.00000000000E+00 0.  1.
</event>
<event>
 7    1  0.5018917E-005  0.3035327E+03  0.7818608E-02  0.1101825E+00
          2   -1    0    0  502    0  0.00000000000E+00  0.00000000000E+00  0.98898533081E+03  0.98898533081E+03  0.00000000000E+00 0. -1.
          1   -1    0    0  501    0 -0.00000000000E+00 -0.00000000000E+00 -0.41082955122E+03  0.41082955122E+03  0.00000000000E+00 0. -1.
         25    2    1    2    0    0 -0.20758260721E+03  0.38080757499E+03 -0.13511131180E+03  0.47116189800E+03  0.12503407360E+03 0.  0.
          2    1    1    2  501    0 -0.47983243432E+02 -0.23360573758E+03  0.12192084665E+03  0.26784085784E+03  0.00000000000E+00 0. -1.
          1    1    1    2  502    0  0.25556585064E+03 -0.14720183741E+03  0.59134624474E+03  0.66081212619E+03  0.00000000000E+00 0. -1.
         22    1    3    3    0    0 -0.10317431023E+03  0.17240942207E+03 -0.12747059113E+03  0.23794684010E+03  0.00000000000E+00 0.  1.
         22    1    3    3    0    0 -0.10440829698E+03  0.20839815292E+03 -0.76407206786E+01  0.23321505790E+03  0.00000000000E+00 0.  1.
</event>
<event>
 7    1  0.5018917E-005  0.1936807E+03  0.7818608E-02  0.1238483E+00
          2   -1    0    0  502    0  0.00000000000E+00  0.00000000000E+00  0.87380480998E+02  0.87380480998E+02  0.00000000000E+00 0. -1.
          1   -1    0    0  501    0 -0.00000000000E+00 -0.00000000000E+00 -0.92874132530E+03  0.92874132530E+03  0.00000000000E+00 0. -1.
         25    2    1    2    0    0 -0.18206498306E+03 -0.66591690698E+01 -0.43025643887E+03  0.48367090319E+03  0.12499974722E+03 0.  0.
          2    1    1    2  501    0  0.19430717963E+03  0.83602363123E+02 -0.40167866752E+03  0.45397179110E+03  0.00000000000E+00 0. -1.
          1    1    1    2  502    0 -0.12242196567E+02 -0.76943194053E+02 -0.94257379139E+01  0.78479112018E+02  0.00000000000E+00 0. -1.
         22    1    3    3    0    0  0.12494345401E+02 -0.17830441719E+02 -0.79335725038E+02  0.82269013524E+02  0.00000000000E+00 0.  1.
         22    1    3    3    0    0 -0.19455932846E+03  0.11171272650E+02 -0.35092071384E+03  0.40140188966E+03  0.00000000000E+00 0.  1.
</event>
<event>
 7    1  0.5018917E-005  0.7533855E+03  0.7818608E-02  0.1172781E+00
          2   -1    0    0  502    0  0.00000000000E+00  0.00000000000E+00  0.93604217303E+03  0.93604217303E+03  0.00000000000E+00 0. -1.
          1   -1    0    0  501    0 -0.00000000000E+00 -0.00000000000E+00 -0.10202632609E+04  0.10202632609E+04  0.00000000000E+00 0. -1.
         25    2    1    2    0    0  0.50615816953E+03  0.58381082659E+03 -0.24006372860E+03  0.81871095754E+03  0.12500345745E+03 0.  0.
          2    1    1    2  501    0 -0.47009545384E+03 -0.56510107154E+03 -0.21395217264E+03  0.76557461358E+03  0.00000000000E+00 0. -1.
          1    1    1    2  502    0 -0.36062715684E+02 -0.18709755054E+02  0.36979481333E+03  0.37201986286E+03  0.00000000000E+00 0. -1.
         22    1    3    3    0    0  0.93691397430E+02  0.14968073544E+03 -0.88924651992E+01  0.17680915262E+03  0.00000000000E+00 0. -1.
         22    1    3    3    0    0  0.41246677210E+03  0.43413009115E+03 -0.23117126340E+03  0.64190180491E+03  0.00000000000E+00 0. -1.
</event>
<event>
 7    1  0.5018917E-005  0.3015921E+03  0.7818608E-02  0.1146282E+00
          2   -1    0    0  502    0  0.00000000000E+00  0.00000000000E+00  0.13525774404E+04  0.13525774404E+04  0.00000000000E+00 0. -1.
          1   -1    0    0  501    0 -0.00000000000E+00 -0.00000000000E+00 -0.23061501028E+04  0.23061501028E+04  0.00000000000E+00 0. -1.
         25    2    1    2    0    0 -0.38852278153E+03  0.40254639712E+02  0.13747183103E+03  0.43254395849E+03  0.12500153562E+03 0.  0.
          2    1    1    2  501    0  0.10199066267E+03 -0.93249089704E+02 -0.21364562584E+04  0.21409210242E+04  0.00000000000E+00 0. -1.
          1    1    1    2  502    0  0.28653211886E+03  0.52994449993E+02  0.10454117649E+04  0.10852625604E+04  0.00000000000E+00 0. -1.
         22    1    3    3    0    0 -0.18444973405E+03 -0.25321559123E+02  0.17746246721E+02  0.18702356808E+03  0.00000000000E+00 0.  1.
         22    1    3    3    0    0 -0.20407304749E+03  0.65576198835E+02  0.11972558431E+03  0.24552039040E+03  0.00000000000E+00 0.  1.
</event>
<event>
 7    1  0.5018917E-005  0.4086564E+03  0.7818608E-02  0.1147528E+00
          2   -1    0    0  502    0  0.00000000000E+00  0.00000000000E+00  0.13672162021E+04  0.13672162021E+04  0.00000000000E+00 0. -1.
          1   -1    0    0  501    0 -0.00000000000E+00 -0.00000000000E+00 -0.12764767605E+04  0.12764767605E+04  0.00000000000E+00 0. -1.
         25    2    1    2    0    0  0.42837421919E+03 -0.12543260610E+03 -0.65366959962E+03  0.80134051828E+03  0.12499948171E+03 0.  0.
          2    1    1    2  501    0 -0.33817708753E+03  0.16972557780E+03 -0.48147145825E+03  0.61236041626E+03  0.00000000000E+00 0. -1.
          1    1    1    2  502    0 -0.90197131663E+02 -0.44292971703E+02  0.12258804995E+04  0.12299920280E+04  0.00000000000E+00 0. -1.
         22    1    3    3    0    0  0.37217678078E+02 -0.54408423278E+02 -0.88507185416E+02  0.11035829808E+03  0.00000000000E+00 0. -1.
         22    1    3    3    0    0  0.39115654111E+03 -0.71024182823E+02 -0.56516241421E+03  0.69098222020E+03  0.00000000000E+00 0. -1.
</event>
<event>
 7    1  0.5018917E-005  0.2057000E+03  0.7818608E-02  0.1263248E+00
          2   -1    0    0  502    0  0.00000000000E+00  0.00000000000E+00  0.45487377517E+03  0.45487377517E+03  0.00000000000E+00 0. -1.
          1   -1    0    0  501    0 -0.00000000000E+00 -0.00000000000E+00 -0.49047039185E+03  0.49047039185E+03  0.00000000000E+00 0. -1.
         25    2    1    2    0    0 -0.15568927086E+03  0.45641280175E+02  0.34978400671E+03  0.40533592992E+03  0.12500435679E+03 0.  0.
          2    1    1    2  501    0  0.18623512973E+03 -0.94120726430E+02 -0.42285735459E+03  0.47154064195E+03  0.00000000000E+00 0. -1.
          1    1    1    2  502    0 -0.30545858870E+02  0.48479446255E+02  0.37476731196E+02  0.68467595141E+02  0.00000000000E+00 0. -1.
         22    1    3    3    0    0 -0.97266127024E+02 -0.31461804417E+02  0.22751162461E+03  0.24942350317E+03  0.00000000000E+00 0. -1.
         22    1    3    3    0    0 -0.58423143832E+02  0.77103084591E+02  0.12227238210E+03  0.15591242675E+03  0.00000000000E+00 0. -1.
</event>
<event>
 7    1  0.5018917E-005  0.6637645E+02  0.7818608E-02  0.1376561E+00
          2   -1    0    0  502    0  0.00000000000E+00  0.00000000000E+00  0.89151231036E+03  0.89151231036E+03  0.00000000000E+00 0. -1.
          1   -1    0    0  501    0 -0.00000000000E+00 -0.00000000000E+00 -0.46670197256E+02  0.46670197256E+02  0.00000000000E+00 0. -1.
         25    2    1    2    0    0 -0.18488834694E+02 -0.20561920027E+02  0.18682630969E+03  0.22648811237E+03  0.12501266132E+03 0.  0.
          2    1    1    2  501    0  0.53007651062E+02 -0.39950240114E+02  0.19208917380E+02  0.69100038084E+02  0.00000000000E+00 0. -1.
          1    1    1    2  502    0 -0.34518816369E+02  0.60512160141E+02  0.63880688603E+03  0.64259435716E+03  0.00000000000E+00 0. -1.
         22    1    3    3    0    0 -0.63622248158E+02  0.13472566218E+02  0.13477985520E+03  0.14964928957E+03  0.00000000000E+00 0.  1.
         22    1    3    3    0    0  0.45133413464E+02 -0.34034486245E+02  0.52046454494E+02  0.76838822807E+02  0.00000000000E+00 0.  1.
</event>
<event>
 7    1  0.5018917E-005  0.4493589E+03  0.7818608E-02  0.1201809E+00
          2   -1    0    0  502    0  0.00000000000E+00  0.00000000000E+00  0.29914182333E+04  0.29914182333E+04  0.00000000000E+00 0. -1.
          1   -1    0    0  501    0 -0.00000000000E+00 -0.00000000000E+00 -0.24349011928E+03  0.24349011928E+03  0.00000000000E+00 0. -1.
         25    2    1    2    0    0  0.15761006782E+03 -0.44075756725E+03  0.49051673559E+03  0.68944658318E+03  0.12498702572E+03 0.  0.
          2    1    1    2  501    0 -0.11079173637E+03  0.42514999809E+03  0.19201497167E+03  0.47947583784E+03  0.00000000000E+00 0. -1.
          1    1    1    2  502    0 -0.46818331444E+02  0.15607569164E+02  0.20653964067E+04  0.20659859315E+04  0.00000000000E+00 0. -1.
         22    1    3    3    0    0 -0.18522912241E+02 -0.21956717244E+02  0.17791390190E+02  0.33789484679E+02  0.00000000000E+00 0. -1.
         22    1    3    3    0    0  0.17613298006E+03 -0.41880085001E+03  0.47272534540E+03  0.65565709850E+03  0.00000000000E+00 0. -1.
</event>
<event>
 7    1  0.5018917E-005  0.3142640E+03  0.7818608E-02  0.1165221E+00
          2   -1    0    0  502    0  0.00000000000E+00  0.00000000000E+00  0.17164214485E+04  0.17164214485E+04  0.00000000000E+00 0. -1.
          1   -1    0    0  501    0 -0.00000000000E+00 -0.00000000000E+00 -0.50892769007E+03  0.50892769007E+03  0.00000000000E+00 0. -1.
         25    2    1    2    0    0 -0.10700889698E+03  0.37236209754E+03  0.10167389558E+03  0.41959892563E+03  0.12498496560E+03 0.  0.
          2    1    1    2  501    0  0.33721187070E+02 -0.29549349603E+03 -0.28438445400E+03  0.41149488737E+03  0.00000000000E+00 0. -1.
          1    1    1    2  502    0  0.73287709912E+02 -0.76868601505E+02  0.13902043169E+04  0.13942553256E+04  0.00000000000E+00 0. -1.
         22    1    3    3    0    0 -0.87510722569E+02  0.20774251175E+03  0.11543325495E+03  0.25325859137E+03  0.00000000000E+00 0.  1.
         22    1    3    3    0    0 -0.19498174413E+02  0.16461958578E+03 -0.13759359374E+02  0.16634033425E+03  0.00000000000E+00 0.  1.
</event>
<event>
 7    1  0.5018917E-005  0.8156045E+03  0.7818608E-02  0.1111728E+00
          2   -1    0    0  502    0  0.00000000000E+00  0.00000000000E+00  0.10003456398E+04  0.10003456398E+04  0.00000000000E+00 0. -1.
          1   -1    0    0  501    0 -0.00000000000E+00 -0.00000000000E+00 -0.13714580720E+04  0.13714580720E+04  0.00000000000E+00 0. -1.
         25    2    1    2    0    0  0.58797426820E+03 -0.53149366012E+03 -0.20415307075E+02  0.80264502384E+03  0.12499199465E+03 0.  0.
          2    1    1    2  501    0 -0.56323500903E+03  0.60565309003E+03 -0.77756559369E+03  0.11351905538E+04  0.00000000000E+00 0. -1.
          1    1    1    2  502    0 -0.24739259164E+02 -0.74159429918E+02  0.42686846857E+03  0.43396813414E+03  0.00000000000E+00 0. -1.
         22    1    3    3    0    0  0.28842325522E+02 -0.30666285152E+02  0.27818332875E+02  0.50459492968E+02  0.00000000000E+00 0.  1.
         22    1    3    3    0    0  0.55913194268E+03 -0.50082737496E+03 -0.48233639950E+02  0.75218553087E+03  0.00000000000E+00 0.  1.
</event>
<event>
 7    1  0.5018917E-005  0.7805751E+03  0.7818608E-02  0.1082280E+00
          2   -1    0    0  502    0  0.00000000000E+00  0.00000000000E+00  0.11948632404E+04  0.11948632404E+04  0.00000000000E+00 0. -1.
          1   -1    0    0  501    0 -0.00000000000E+00 -0.00000000000E+00 -0.15795278985E+04  0.15795278985E+04  0.00000000000E+00 0. -1.
         25    2    1    2    0    0 -0.76783578995E+03 -0.20893291169E+02  0.25185112985E+02  0.77863228268E+03  0.12500244702E+03 0.  0.
          2    1    1    2  501    0 -0.97557883059E+01 -0.11955908922E+03 -0.10014814700E+04  0.10086400180E+04  0.00000000000E+00 0. -1.
          1    1    1    2  502    0  0.77759157826E+03  0.14045238039E+03  0.59163169887E+03  0.98711883826E+03  0.00000000000E+00 0. -1.
         22    1    3    3    0    0 -0.57752539758E+03  0.38051470366E+02  0.10698686962E+02  0.57887646449E+03  0.00000000000E+00 0. -1.
         22    1    3    3    0    0 -0.19031039238E+03 -0.58944761535E+02  0.14486426023E+02  0.19975581818E+03  0.00000000000E+00 0. -1.
</event>
<event>
 7    1  0.5018917E-005  0.4557484E+03  0.7818608E-02  0.1176732E+00
          2   -1    0    0  502    0  0.00000000000E+00  0.00000000000E+00  0.16183085135E+04  0.16183085135E+04  0.00000000000E+00 0. -1.
          1   -1    0    0  501    0 -0.00000000000E+00 -0.00000000000E+00 -0.28086992723E+04  0.28086992723E+04  0.00000000000E+00 0. -1.
         25    2    1    2    0    0 -0.89882540066E+02 -0.49218840776E+03 -0.83314059634E+03  0.97983443504E+03  0.12499586831E+03 0.  0.
          2    1    1    2  501    0  0.57730980710E+02  0.43660029232E+03 -0.18760337542E+04  0.19270327783E+04  0.00000000000E+00 0. -1.
          1    1    1    2  502    0  0.32151559356E+02  0.55588115440E+02  0.15187835918E+04  0.15201405725E+04  0.00000000000E+00 0. -1.
         22    1    3    3    0    0  0.41222715093E+01 -0.25379757758E+03 -0.48675383688E+03  0.54896220382E+03  0.00000000000E+00 0. -1.
         22    1    3    3    0    0 -0.94004811575E+02 -0.23839083018E+03 -0.34638675946E+03  0.43087223122E+03  0.00000000000E+00 0. -1.
</event>
<event>
 7    1  0.5018917E-005  0.2917107E+03  0.7818608E-02  0.1300778E+00
          2   -1    0    0  502    0  0.00000000000E+00  0.00000000000E+00  0.16447216416E+04  0.16447216416E+04  0.00000000000E+00 0. -1.
          1   -1    0    0  501    0 -0.00000000000E+00 -0.00000000000E+00 -0.28804648339E+03  0.28804648339E+03  0.00000000000E+00 0. -1.
         25    2    1    2    0    0  0.26873133297E+03  0.23343111668E+01  0.36336328136E+03  0.46892031524E+03  0.12502563526E+03 0.  0.
          2    1    1    2  501    0 -0.29683243219E+03 -0.56974016670E+01 -0.14135998127E+03  0.32882304890E+03  0.00000000000E+00 0. -1.
          1    1    1    2  502    0  0.28101099215E+02  0.33630905002E+01  0.11346718581E+04  0.11350247608E+04  0.00000000000E+00 0. -1.
         22    1    3    3    0    0  0.21746984508E+03 -0.48640120252E+02  0.25492446068E+03  0.33859337777E+03  0.00000000000E+00 0. -1.
         22    1    3    3    0    0  0.51261487895E+02  0.50974431419E+02  0.10843882068E+03  0.13032693747E+03  0.00000000000E+00 0. -1.
</event>
<event>
 7    1  0.5018917E-005  0.4030698E+03  0.7818608E-02  0.1132399E+00
          2   -1    0    0  502    0  0.00000000000E+00  0.00000000000E+00  0.74818552859E+03  0.74818552859E+03  0.00000000000E+00 0. -1.
          1   -1    0    0  501    0 -0.00000000000E+00 -0.00000000000E+00 -0.10251922691E+04  0.10251922691E+04  0.00000000000E+00 0. -1.
         25    2    1    2    0    0 -0.38736927684E+03  0.10396789518E+02 -0.41186768538E+03  0.57915892570E+03  0.12500808410E+03 0.  0.
          2    1    1    2  501    0  0.40717092618E+03 -0.13105630003E+03 -0.43577741357E+03  0.61062744049E+03  0.00000000000E+00 0. -1.
          1    1    1    2  502    0 -0.19801649341E+02  0.12065951051E+03  0.57063835844E+03  0.58359143149E+03  0.00000000000E+00 0. -1.
         22    1    3    3    0    0 -0.17571608890E+03 -0.62354865660E+01 -0.27551325376E+03  0.32683723501E+03  0.00000000000E+00 0.  1.
         22    1    3    3    0    0 -0.21165318794E+03  0.16632276084E+02 -0.13635443162E+03  0.25232169069E+03  0.00000000000E+00 0.  1.
</event>
<event>
 7    1  0.5018917E-005  0.1673051E+03  0.7818608E-02  0.1299798E+00
          2   -1    0    0  502    0  0.00000000000E+00  0.00000000000E+00  0.84203727557E+03  0.84203727557E+03  0.00000000000E+00 0. -1.
          1   -1    0    0  501    0 -0.00000000000E+00 -0.00000000000E+00 -0.19704818902E+03  0.19704818902E+03  0.00000000000E+00 0. -1.
         25    2    1    2    0    0  0.98170401923E+02  0.15338836015E+03  0.15982363139E+02  0.22146428485E+03  0.12500230674E+03 0.  0.
          2    1    1    2  501    0 -0.11907184005E+03 -0.10819386638E+03 -0.24046646445E+02  0.16267223802E+03  0.00000000000E+00 0. -1.
          1    1    1    2  502    0  0.20901438131E+02 -0.45194493764E+02  0.65305336985E+03  0.65494894172E+03  0.00000000000E+00 0. -1.
         22    1    3    3    0    0 -0.16845650039E+02  0.18667560464E+02  0.35229268939E+02  0.43282272686E+02  0.00000000000E+00 0.  1.
         22    1    3    3    0    0  0.11501605196E+03  0.13472079968E+03 -0.19246905800E+02  0.17818201216E+03  0.00000000000E+00 0.  1.
</event>
<event>
 7    1  0.5018917E-005  0.1055456E+04  0.7818608E-02  0.1163352E+00
          2   -1    0    0  502    0  0.00000000000E+00  0.00000000000E+00  0.18716699406E+04  0.18716699406E+04  0.00000000000E+00 0. -1.
          1   -1    0    0  501    0 -0.00000000000E+00 -0.00000000000E+00 -0.22630143323E+04  0.22630143323E+04  0.00000000000E+00 0. -1.
         25    2    1    2    0    0  0.19146534297E+03 -0.10307740268E+04 -0.81511149839E+03  0.13338609602E+04  0.12499693803E+03 0.  0.
          2    1    1    2  501    0 -0.16493138845E+03  0.10492160962E+04 -0.95102013677E+03  0.14256563681E+04  0.00000000000E+00 0. -1.
          1    1    1    2  502    0 -0.26533954512E+02 -0.18442069417E+02  0.13747872435E+04  0.13751669446E+04  0.00000000000E+00 0. -1.
         22    1    3    3    0    0  0.80456474174E+01 -0.30783540992E+03 -0.27661460858E+03  0.41393600197E+03  0.00000000000E+00 0. -1.
         22    1    3    3    0    0  0.18341969555E+03 -0.72293861686E+03 -0.53849688980E+03  0.91992495824E+03  0.00000000000E+00 0. -1.
</event>
<event>
 7    1  0.5018917E-005  0.6301399E+03  0.7818608E-02  0.1163759E+00
          2   -1    0    0  502    0  0.00000000000E+00  0.00000000000E+00  0.55663601164E+03  0.55663601164E+03  0.00000000000E+00 0. -1.
          1   -1    0    0  501    0 -0.00000000000E+00 -0.00000000000E+00 -0.20243527028E+04  0.20243527028E+04  0.00000000000E+00 0. -1.
         25    2    1    2    0    0  0.60771026888E+03  0.66804739430E+02 -0.83006001554E+03  0.10384599896E+04  0.12499950604E+03 0.  0.
          2    1    1    2  501    0  0.26952220900E+02 -0.46642040045E+02 -0.86604735799E+03  0.86772111210E+03  0.00000000000E+00 0. -1.
          1    1    1    2  502    0 -0.63466248978E+03 -0.20162699385E+02  0.22839068238E+03  0.67480761272E+03  0.00000000000E+00 0. -1.
         22    1    3    3    0    0  0.20293188435E+03  0.78535816197E+02 -0.32471474384E+03  0.39088219323E+03  0.00000000000E+00 0.  1.
         22    1    3    3    0    0  0.40477838453E+03 -0.11731076767E+02 -0.50534527170E+03  0.64757779639E+03  0.00000000000E+00 0.  1.
</event>
<event>
 7    1  0.5018917E-005  0.9205977E+03  0.7818608E-02  0.1041246E+00
          2   -1    0    0  502    0  0.00000000000E+00  0.00000000000E+00  0.31138409217E+04  0.31138409217E+04  0.00000000000E+00 0. -1.
          1   -1    0    0  501    0 -0.00000000000E+00 -0.00000000000E+00 -0.10641719040E+04  0.10641719040E+04  0.00000000000E+00 0. -1.
         25    2    1    2    0    0  0.92755993616E+03  0.28848099254E+03  0.20281715002E+03  0.10001740710E+04  0.12499863124E+03 0.  0.
          2    1    1    2  501    0 -0.89283474215E+03 -0.11156469524E+03 -0.35598267969E+03  0.96763847911E+03  0.00000000000E+00 0. -1.
          1    1    1    2  502    0 -0.34725194014E+02 -0.17691629731E+03  0.22028345474E+04  0.22102002756E+04  0.00000000000E+00 0. -1.
         22    1    3    3    0    0  0.27462949681E+03  0.14531307417E+03  0.74843733747E+02  0.31959166842E+03  0.00000000000E+00 0.  1.
         22    1    3    3    0    0  0.65293043935E+03  0.14316791837E+03  0.12797341627E+03  0.68058240262E+03  0.00000000000E+00 0.  1.
</event>
<event>
 7    1  0.5018917E-005  0.2051617E+03  0.7818608E-02  0.1271407E+00
          2   -1    0    0  502    0  0.00000000000E+00  0.00000000000E+00  0.13766295086E+04  0.13766295086E+04  0.00000000000E+00 0. -1.
          1   -1    0    0  501    0 -0.00000000000E+00 -0.00000000000E+00 -0.40905972006E+03  0.40905972006E+03  0.00000000000E+00 0. -1.
         25    2    1    2    0    0  0.23290098085E+03 -0.85751458584E+02  0.56113327718E+02  0.28349853780E+03  0.12500614328E+03 0.  0.
          2    1    1    2  501    0 -0.52756828721E+02 -0.57948621124E+01 -0.28443652857E+03  0.28934581765E+03  0.00000000000E+00 0. -1.
          1    1    1    2  502    0 -0.18014415213E+03  0.91546320697E+02  0.11958929894E+04  0.12128448733E+04  0.00000000000E+00 0. -1.
         22    1    3    3    0    0  0.21821528332E+03 -0.33551046863E+02  0.28394495844E+02  0.22259791107E+03  0.00000000000E+00 0. -1.
         22    1    3    3    0    0  0.14685697534E+02 -0.52200411722E+02  0.27718831875E+02  0.60900626733E+02  0.00000000000E+00 0. -1.
</event>
<event>
 7    1  0.5018917E-005  0.6185517E+03  0.7818608E-02  0.1085810E+00
          2   -1    0    0  502    0  0.00000000000E+00  0.00000000000E+00  0.47945592652E+03  0.47945592652E+03  0.00000000000E+00 0. -1.
          1   -1    0    0  501    0 -0.00000000000E+00 -0.00000000000E+00 -0.32893520455E+04  0.32893520455E+04  0.00000000000E+00 0. -1.
         25    2    1    2    0    0  0.67023771845E+03 -0.20978090242E+03 -0.61705050171E+03  0.94319104541E+03  0.12502559823E+03 0.  0.
          2    1    1    2  501    0 -0.53826902531E+03  0.26839662816E+03 -0.24543053395E+04  0.25269319328E+04  0.00000000000E+00 0. -1.
          1    1    1    2  502    0 -0.13196869314E+03 -0.58615725733E+02  0.26145972214E+03  0.29868499389E+03  0.00000000000E+00 0. -1.
         22    1    3    3    0    0  0.47000738737E+03 -0.90950572927E+02 -0.38335490801E+03  0.61330248360E+03  0.00000000000E+00 0.  1.
         22    1    3    3    0    0  0.20023033109E+03 -0.11883032949E+03 -0.23369559370E+03  0.32988856180E+03  0.00000000000E+00 0.  1.
</event>
<event>
 7    1  0.5018917E-005  0.4258895E+03  0.7818608E-02  0.1193192E+00
          2   -1    0    0  502    0  0.00000000000E+00  0.00000000000E+00  0.22921281978E+04  0.22921281978E+04  0.00000000000E+00 0. -1.
          1   -1    0    0  501    0 -0.00000000000E+00 -0.00000000000E+00 -0.25880613955E+04  0.25880613955E+04  0.00000000000E+00 0. -1.
         25    2    1    2    0    0  0.13114313434E+02 -0.47369164227E+03  0.34773116265E+02  0.49131430675E+03  0.12499928492E+03 0.  0.
          2    1    1    2  501    0  0.19867746524E+02  0.53640977671E+02 -0.23375639229E+04  0.23382637096E+04  0.00000000000E+00 0. -1.
          1    1    1    2  502    0 -0.32982059957E+02  0.42005066460E+03  0.20068576089E+04  0.20506115770E+04  0.00000000000E+00 0. -1.
         22    1    3    3    0    0  0.56396955630E+02 -0.37372745781E+03  0.34740124906E+01  0.37797473208E+03  0.00000000000E+00 0.  1.
         22    1    3    3    0    0 -0.43282642196E+02 -0.99964184458E+02  0.31299103774E+02  0.11333957467E+03  0.00000000000E+00 0.  1.
</event>
<event>
 7    1  0.5018917E-005  0.1286168E+04  0.7818608E-02  0.1158894E+00
          2   -1    0    0  502    0  0.00000000000E+00  0.00000000000E+00  0.23917149226E+04  0.23917149226E+04  0.00000000000E+00 0. -1.
          1   -1    0    0  501    0 -0.00000000000E+00 -0.00000000000E+00 -0.20747897238E+04  0.20747897238E+04  0.00000000000E+00 0. -1.
         25    2    1    2    0    0  0.59784408764E+03 -0.11347812808E+04  0.44927304413E+03  0.13647775685E+04  0.12500173975E+03 0.  0.
          2    1    1    2  501    0 -0.62426211570E+03  0.11257274977E+04 -0.13606805722E+04  0.18730769359E+04  0.00000000000E+00 0. -1.
          1    1    1    2  502    0  0.26418028064E+02  0.90537830864E+01  0.12283327269E+04  0.12286501419E+04  0.00000000000E+00 0. -1.
         22    1    3    3    0    0  0.49415209867E+02 -0.12866453276E+03  0.12190386358E+02  0.13836556825E+03  0.00000000000E+00 0.  1.
         22    1    3    3    0    0  0.54842887777E+03 -0.10061167481E+04  0.43708265777E+03  0.12264120003E+04  0.00000000000E+00 0.  1.
</event>
<event>
 7    1  0.5018917E-005  0.2666642E+03  0.7818608E-02  0.1141919E+00
          2   -1    0    0  502    0  0.00000000000E+00  0.00000000000E+00  0.14832274181E+04  0.14832274181E+04  0.00000000000E+00 0. -1.
          1   -1    0    0  501    0 -0.00000000000E+00 -0.00000000000E+00 -0.78923583145E+03  0.78923583145E+03  0.00000000000E+00 0. -1.
         25    2    1    2    0    0  0.32037337546E+03  0.25106629526E+03  0.30878786792E+03  0.52597260493E+03  0.12499539766E+03 0.  0.
          2    1    1    2  501    0 -0.14777268391E+03 -0.72672034923E+02 -0.65587324451E+03  0.67623051072E+03  0.00000000000E+00 0. -1.
          1    1    1    2  502    0 -0.17260069155E+03 -0.17839426034E+03  0.10410769632E+04  0.10702601339E+04  0.00000000000E+00 0. -1.
         22    1    3    3    0    0  0.10571864238E+03  0.25947069234E+02  0.43761590673E+02  0.11732330786E+03  0.00000000000E+00 0.  1.
         22    1    3    3    0    0  0.21465473308E+03  0.22511922603E+03  0.26502627725E+03  0.40864929707E+03  0.00000000000E+00 0.  1.
</event>
<event>
 7    1  0.5018917E-005  0.1282804E+04  0.7818608E-02  0.1061656E+00
          2   -1    0    0  502    0  0.00000000000E+00  0.00000000000E+00  0.16241653119E+04  0.16241653119E+04  0.00000000000E+00 0. -1.
          1   -1    0    0  501    0 -0.00000000000E+00 -0.00000000000E+00 -0.32159051350E+04  0.32159051350E+04  0.00000000000E+00 0. -1.
         25    2    1    2    0    0 -0.41930024656E+03  0.11727263675E+04  0.52077731339E+03  0.13557043310E+04  0.12500157280E+03 0.  0.
          2    1    1    2  501    0 -0.22259207030E+02  0.94184337580E+02 -0.21402380147E+04  0.21424250095E+04  0.00000000000E+00 0. -1.
          1    1    1    2  502    0  0.44155945359E+03 -0.12669107051E+04  0.27720878196E+02  0.13419411063E+04  0.00000000000E+00 0. -1.
         22    1    3    3    0    0 -0.82480586169E+01  0.18793442464E+02 -0.72766339019E+01  0.21775521843E+02  0.00000000000E+00 0. -1.
         22    1    3    3    0    0 -0.41105218794E+03  0.11539329251E+04  0.52805394729E+03  0.13339288092E+04  0.00000000000E+00 0. -1.
</event>
<event>
 7    1  0.5018917E-005  0.6254863E+02  0.7818608E-02  0.1452768E+00
          2   -1    0    0  502    0  0.00000000000E+00  0.00000000000E+00  0.20697103517E+04  0.20697103517E+04  0.00000000000E+00 0. -1.
          1   -1    0    0  501    0 -0.00000000000E+00 -0.00000000000E+00 -0.40849125582E+03  0.40849125582E+03  0.00000000000E+00 0. -1.
         25    2    1    2    0    0  0.45133881599E+02  0.20500560914E+02  0.12445215349E+04  0.12517651384E+04  0.12499908214E+03 0.  0.
          2    1    1    2  501    0 -0.29751443184E+02 -0.55070671504E+02 -0.40201063382E+03  0.40685436822E+03  0.00000000000E+00 0. -1.
          1    1    1    2  502    0 -0.15382438415E+02  0.34570110590E+02  0.81870819483E+03  0.81958210097E+03  0.00000000000E+00 0. -1.
         22    1    3    3    0    0 -0.23488258734E+02  0.53089526975E+02  0.59028873714E+03  0.59313656890E+03  0.00000000000E+00 0. -1.
         22    1    3    3    0    0  0.68622140333E+02 -0.32588966061E+02  0.65423279778E+03  0.65862856948E+03  0.00000000000E+00 0. -1.
</event>
<event>
 7    1  0.5018917E-005  0.1173677E+03  0.7818608E-02  0.1397552E+00
          2   -1    0    0  502    0  0.00000000000E+00  0.00000000000E+00  0.37340666606E+03  0.37340666606E+03  0.00000000000E+00 0. -1.
          1   -1    0    0  501    0 -0.00000000000E+00 -0.00000000000E+00 -0.78055407881E+03  0.78055407881E+03  0.00000000000E+00 0. -1.
         25    2    1    2    0    0  0.11546876240E+03 -0.13070900143E+02  0.23886188154E+03  0.29357428041E+03  0.12500790434E+03 0.  0.
          2    1    1    2  501    0 -0.11612012975E+03 -0.17663250702E+02 -0.74630197238E+03  0.75548825864E+03  0.00000000000E+00 0. -1.
          1    1    1    2  502    0  0.65136734947E+00  0.30734150845E+02  0.10029267809E+03  0.10489820582E+03  0.00000000000E+00 0. -1.
         22    1    3    3    0    0  0.62259861636E+02  0.42218549540E+02  0.51656644567E+02  0.91252973782E+02  0.00000000000E+00 0.  1.
         22    1    3    3    0    0  0.53208900763E+02 -0.55289449683E+02  0.18720523697E+03  0.20232130663E+03  0.00000000000E+00 0.  1.
</event>
<event>
 7    1  0.5018917E-005  0.1443885E+04  0.7818608E-02  0.1112161E+00
          2   -1    0    0  502    0  0.00000000000E+00  0.00000000000E+00  0.30783715073E+04  0.30783715073E+04  0.00000000000E+00 0. -1.
          1   -1    0    0  501    0 -0.00000000000E+00 -0.00000000000E+00 -0.13635963299E+04  0.13635963299E+04  0.00000000000E+00 0. -1.
         25    2    1    2    0    0  0.13163965822E+04 -0.59715822663E+03 -0.44348877671E+03  0.15171699848E+04  0.12499823355E+03 0.  0.
          2    1    1    2  501    0 -0.13289938889E+04  0.55508559408E+03  0.97164278006E+03  0.17373642294E+04  0.00000000000E+00 0. -1.
          1    1    1    2  502    0  0.12597306671E+02  0.42072632553E+02  0.11866211740E+04  0.11874336230E+04  0.00000000000E+00 0. -1.
         22    1    3    3    0    0  0.99309374911E+03 -0.40964515998E+03 -0.28665733917E+03  0.11118528597E+04  0.00000000000E+00 0. -1.
         22    1    3    3    0    0  0.32330283310E+03 -0.18751306665E+03 -0.15683143754E+03  0.40531712505E+03  0.00000000000E+00 0. -1.
</event>
<event>
 7    1  0.5018917E-005  0.6606309E+03  0.7818608E-02  0.1192176E+00
          2   -1    0    0  502    0  0.00000000000E+00  0.00000000000E+00  0.33557959471E+04  0.33557959471E+04  0.00000000000E+00 0. -1.
          1   -1    0    0  501    0 -0.00000000000E+00 -0.00000000000E+00 -0.36251597191E+03  0.36251597191E+03  0.00000000000E+00 0. -1.
         25    2    1    2    0    0 -0.54845423782E+03  0.33529572004E+03  0.40706173076E+03  0.77106630657E+03  0.12497489996E+03 0.  0.
          2    1    1    2  501    0  0.58169498656E+03 -0.35219666663E+03  0.46064124209E+03  0.82134152658E+03  0.00000000000E+00 0. -1.
          1    1    1    2  502    0 -0.33240748743E+02  0.16900946585E+02  0.21255770023E+04  0.21259040858E+04  0.00000000000E+00 0. -1.
         22    1    3    3    0    0 -0.85411911288E+02  0.83054493098E+02  0.12655166764E+03  0.17380612186E+03  0.00000000000E+00 0.  1.
         22    1    3    3    0    0 -0.46304232653E+03  0.25224122695E+03  0.28051006312E+03  0.59726018471E+03  0.00000000000E+00 0.  1.
</event>
<event>
 7    1  0.5018917E-005  0.4969868E+03  0.7818608E-02  0.1025284E+00
          2   -1    0    0  502    0  0.00000000000E+00  0.00000000000E+00  0.88690289465E+03  0.88690289465E+03  0.00000000000E+00 0. -1.
          1   -1    0    0  501    0 -0.00000000000E+00 -0.00000000000E+00 -0.12357577678E+04  0.12357577678E+04  0.00000000000E+00 0. -1.
         25    2    1    2    0    0 -0.54375538672E+03  0.34672974451E+03 -0.43417473174E+03  0.78741624441E+03  0.12500083186E+03 0.  0.
          2    1    1    2  501    0  0.54498575190E+02 -0.41904294081E+03 -0.44254233762E+03  0.61189116804E+03  0.00000000000E+00 0. -1.
          1    1    1    2  502    0  0.48925681153E+03  0.72313196297E+02  0.52786219625E+03  0.72335324995E+03  0.00000000000E+00 0. -1.
         22    1    3    3    0    0 -0.36017286714E+03  0.16009038894E+03 -0.23997693104E+03  0.46145677401E+03  0.00000000000E+00 0.  1.
         22    1    3    3    0    0 -0.18358251958E+03  0.18663935557E+03 -0.19419780070E+03  0.32595947040E+03  0.00000000000E+00 0.  1.
</event>
<event>
 7    1  0.5018917E-005  0.2328071E+03  0.7818608E-02  0.1286496E+00
          2   -1    0    0  502    0  0.00000000000E+00  0.00000000000E+00  0.84603303180E+03  0.84603303180E+03  0.00000000000E+00 0. -1.
          1   -1    0    0  501    0 -0.00000000000E+00 -0.00000000000E+00 -0.15271609038E+04  0.15271609038E+04  0.00000000000E+00 0. -1.
         25    2    1    2    0    0 -0.16340781756E+03 -0.18136204292E+03  0.24931582854E+02  0.27539093939E+03  0.12499712084E+03 0.  0.
          2    1    1    2  501    0  0.18140122505E+03  0.14507162041E+03 -0.13917083469E+04  0.14109586465E+04  0.00000000000E+00 0. -1.
          1    1    1    2  502    0 -0.17993407486E+02  0.36290422510E+02  0.68564889204E+03  0.68684434964E+03  0.00000000000E+00 0. -1.
         22    1    3    3    0    0 -0.50636853980E+02 -0.61090334364E+02  0.68538093576E+02  0.10485032286E+03  0.00000000000E+00 0.  1.
         22    1    3    3    0    0 -0.11277096358E+03 -0.12027170856E+03 -0.43606510721E+02  0.17054061652E+03  0.00000000000E+00 0.  1.
</event>
<event>
 7    1  0.5018917E-005  0.1257723E+04  0.7818608E-02  0.1133903E+00
          2   -1    0    0  502    0  0.00000000000E+00  0.00000000000E+00  0.30640737140E+04  0.30640737140E+04  0.00000000000E+00 0. -1.
          1   -1    0    0  501    0 -0.00000000000E+00 -0.00000000000E+00 -0.10500287427E+04  0.10500287427E+04  0.00000000000E+00 0. -1.
         25    2    1    2    0    0  0.80638177605E+03  0.97823652179E+03  0.11919359735E+04  0.17445728799E+04  0.12499962922E+03 0.  0.
          2    1    1    2  501    0 -0.82523613340E+03 -0.94470046713E+03 -0.26472793925E+03  0.12820119072E+04  0.00000000000E+00 0. -1.
          1    1    1    2  502    0  0.18854357346E+02 -0.33536054659E+02  0.10868369371E+04  0.10875176696E+04  0.00000000000E+00 0. -1.
         22    1    3    3    0    0  0.33349559055E+03  0.40088912737E+03  0.40710953017E+03  0.66156599891E+03  0.00000000000E+00 0.  1.
         22    1    3    3    0    0  0.47288618550E+03  0.57734739442E+03  0.78482644330E+03  0.10830068810E+04  0.00000000000E+00 0.  1.
</event>
<event>
 7    1  0.5018917E-005  0.5040172E+02  0.7818608E-02  0.1445170E+00
          2   -1    0    0  502    0  0.00000000000E+00  0.00000000000E+00  0.22474404865E+02  0.22474404865E+02  0.00000000000E+00 0. -1.
          1   -1    0    0  501    0 -0.00000000000E+00 -0.00000000000E+00 -0.82370338567E+03  0.82370338567E+03  0.00000000000E+00 0. -1.
         25    2    1    2    0    0 -0.24297249649E+01  0.49231766034E+02 -0.56445454551E+03  0.58022735966E+03  0.12500073841E+03 0.  0.
          2    1    1    2  501    0  0.49466535673E+02 -0.31124545830E+02 -0.18363191209E+03  0.19270795168E+03  0.00000000000E+00 0. -1.
          1    1    1    2  502    0 -0.47036810708E+02 -0.18107220204E+02 -0.53142523202E+02  0.73242479186E+02  0.00000000000E+00 0. -1.
         22    1    3    3    0    0  0.38133837024E+02  0.48503679266E+02 -0.50183786062E+03  0.50561648983E+03  0.00000000000E+00 0. -1.
         22    1    3    3    0    0 -0.40563561989E+02  0.72808676764E+00 -0.62616684888E+02  0.74610869838E+02  0.00000000000E+00 0. -1.
</event>
<event>
 7    1  0.5018917E-005  0.7860237E+03  0.7818608E-02  0.1137686E+00
          2   -1    0    0  502    0  0.00000000000E+00  0.00000000000E+00  0.73922515799E+03  0.73922515799E+03  0.00000000000E+00 0. -1.
          1   -1    0    0  501    0 -0.00000000000E+00 -0.00000000000E+00 -0.19742446498E+04  0.19742446498E+04  0.00000000000E+00 0. -1.
         25    2    1    2    0    0 -0.45424327911E+03 -0.60815133354E+03 -0.53853792275E+02  0.77117407161E+03  0.12499686667E+03 0.  0.
          2    1    1    2  501    0 -0.17330276200E+02 -0.56182418599E+02 -0.11240702047E+04  0.11256067820E+04  0.00000000000E+00 0. -1.
          1    1    1    2  502    0  0.47157355531E+03  0.66433375214E+03 -0.57095494818E+02  0.81668895415E+03  0.00000000000E+00 0. -1.
         22    1    3    3    0    0 -0.19512118069E+02 -0.59765283748E+02 -0.33138251844E+02  0.71068668401E+02  0.00000000000E+00 0.  1.
         22    1    3    3    0    0 -0.43473116104E+03 -0.54838604979E+03 -0.20715540431E+02  0.70010540321E+03  0.00000000000E+00 0.  1.
</event>
<event>
 7    1  0.5018917E-005  0.1809193E+03  0.7818608E-02  0.1207713E+00
          2   -1    0    0  502    0  0.00000000000E+00  0.00000000000E+00  0.45709130771E+03  0.45709130771E+03  0.00000000000E+00 0. -1.
          1   -1    0    0  501    0 -0.00000000000E+00 -0.00000000000E+00 -0.16486122057E+03  0.16486122057E+03  0.00000000000E+00 0. -1.
         25    2    1    2    0    0  0.23523889901E+02  0.24710278688E+03  0.13233142216E+03  0.30781431282E+03  0.12499954083E+03 0.  0.
          2    1    1    2  501    0  0.20597395403E+02 -0.11316464598E+03  0.12293669175E+03  0.16835652638E+03  0.00000000000E+00 0. -1.
          1    1    1    2  502    0 -0.44121285304E+02 -0.13393814090E+03  0.36961973237E+02  0.14578168908E+03  0.00000000000E+00 0. -1.
         22    1    3    3    0    0  0.22986050339E+01  0.42134074775E+02  0.87188429630E+02  0.96862717821E+02  0.00000000000E+00 0.  1.
         22    1    3    3    0    0  0.21225284867E+02  0.20496871210E+03  0.45142992532E+02  0.21095159500E+03  0.00000000000E+00 0.  1.
</event>
<event>
 7    1  0.5018917E-005  0.7427947E+02  0.7818608E-02  0.1378196E+00
          2   -1    0    0  502    0  0.00000000000E+00  0.00000000000E+00  0.35290374948E+03  0.35290374948E+03  0.00000000000E+00 0. -1.
          1   -1    0    0  501    0 -0.00000000000E+00 -0.00000000000E+00 -0.99029027058E+02  0.99029027058E+02  0.00000000000E+00 0. -1.
         25    2    1    2    0    0  0.69745928921E+02 -0.10153279208E+03  0.26368871804E+03  0.31675169337E+03  0.12500597092E+03 0.  0.
          2    1    1    2  501    0 -0.25824700183E+02  0.65555479437E+02 -0.27620140399E+02  0.75678981094E+02  0.00000000000E+00 0. -1.
          1    1    1    2  502    0 -0.43921228738E+02  0.35977312641E+02  0.17806144780E+02  0.59502102070E+02  0.00000000000E+00 0. -1.
         22    1    3    3    0    0  0.20479958850E+02  0.96477227447E+01 -0.37649321601E+01  0.22949552999E+02  0.00000000000E+00 0. -1.
         22    1    3    3    0    0  0.49265970071E+02 -0.11118051482E+03  0.26745365020E+03  0.29380214037E+03  0.00000000000E+00 0. -1.
</event>
<event>
 7    1  0.5018917E-005  0.1012603E+03  0.7818608E-02  0.1284271E+00
          2   -1    0    0  502    0  0.00000000000E+00  0.00000000000E+00  0.15348029833E+03  0.15348029833E+03  0.00000000000E+00 0. -1.
          1   -1    0    0  501    0 -0.00000000000E+00 -0.00000000000E+00 -0.13412489110E+04  0.13412489110E+04  0.00000000000E+00 0. -1.
         25    2    1    2    0    0 -0.90092824753E+02 -0.16808443887E+03  0.18081416164E+01  0.22802691496E+03  0.12499563555E+03 0.  0.
          2    1    1    2  501    0  0.28704508189E+02  0.95447730627E+02 -0.11639462126E+04  0.11682058911E+04  0.00000000000E+00 0. -1.
          1    1    1    2  502    0  0.61388316564E+02  0.72636708243E+02 -0.25630541673E+02  0.98496403292E+02  0.00000000000E+00 0. -1.
         22    1    3    3    0    0 -0.88019256353E+02 -0.64948995762E+02  0.42198201511E+02  0.11724525470E+03  0.00000000000E+00 0. -1.
         22    1    3    3    0    0 -0.20735683999E+01 -0.10313544311E+03 -0.40390059895E+02  0.11078166026E+03  0.00000000000E+00 0. -1.
</event>
<event>
 7    1  0.5018917E-005  0.6167594E+03  0.7818608E-02  0.1142441E+00
          2   -1    0    0  502    0  0.00000000000E+00  0.00000000000E+00  0.17228485900E+04  0.17228485900E+04  0.00000000000E+00 0. -1.
          1   -1    0    0  501    0 -0.00000000000E+00 -0.00000000000E+00 -0.10600901211E+04  0.10600901211E+04  0.00000000000E+00 0. -1.
         25    2    1    2    0    0 -0.59218721819E+03 -0.11211449305E+03  0.13912459453E+03  0.63105977412E+03  0.12500169908E+03 0.  0.
          2    1    1    2  501    0  0.59450771543E+03  0.18283166941E+03 -0.69414689565E+03  0.93204439582E+03  0.00000000000E+00 0. -1.
          1    1    1    2  502    0 -0.23204972383E+01 -0.70717176358E+02  0.12177807700E+04  0.12198345411E+04  0.00000000000E+00 0. -1.
         22    1    3    3    0    0 -0.13577349550E+03 -0.80606260387E+02  0.29942681019E+02  0.16071208866E+03  0.00000000000E+00 0.  1.
         22    1    3    3    0    0 -0.45641372269E+03 -0.31508232664E+02  0.10918191351E+03  0.47034768546E+03  0.00000000000E+00 0.  1.
</event>
<event>
 7    1  0.5018917E-005  0.3685438E+03  0.7818608E-02  0.1198392E+00
          2   -1    0    0  502    0  0.00000000000E+00  0.00000000000E+00  0.66324262617E+03  0.66324262617E+03  0.00000000000E+00 0. -1.
          1   -1    0    0  501    0 -0.00000000000E+00 -0.00000000000E+00 -0.17936351388E+04  0.17936351388E+04  0.00000000000E+00 0. -1.
         25    2    1    2    0    0  0.10826413214E+03 -0.40381707171E+03  0.29223357805E+03  0.52518174411E+03  0.12500420191E+03 0.  0.
          2    1    1    2  501    0 -0.12583534509E+03  0.34389223121E+03 -0.16529652256E+04  0.16930417708E+04  0.00000000000E+00 0. -1.
          1    1    1    2  502    0  0.17571212952E+02  0.59924840502E+02  0.23033913486E+03  0.23865425008E+03  0.00000000000E+00 0. -1.
         22    1    3    3    0    0  0.11409119623E+03 -0.39719288109E+03  0.30213323598E+03  0.51192135932E+03  0.00000000000E+00 0. -1.
         22    1    3    3    0    0 -0.58270640961E+01 -0.66241906250E+01 -0.98996579385E+01  0.13260384788E+02  0.00000000000E+00 0. -1.
</event>
<event>
 7    1  0.5732266E-005  0.1476153E+04  0.7818608E-02  0.1144522E+00
          2   -1    0    0  502    0  0.00000000000E+00  0.00000000000E+00  0.17537282652E+04  0.17537282652E+04  0.00000000000E+00 0. -1.
          1   -1    0    0  501    0 -0.00000000000E+00 -0.00000000000E+00 -0.25247046368E+04  0.25247046368E+04  0.00000000000E+00 0. -1.
         25    2    1    2    0    0  0.14437359636E+04  0.33538887012E+03 -0.12988541930E+04  0.19747168005E+04  0.12500000317E+03 0.  0.
          2    1    1    2  501    0 -0.14325809937E+04 -0.30879994739E+03 -0.28280318170E+03  0.14925224791E+04  0.00000000000E+00 0. -1.
          1    1    1    2  502    0 -0.11154969863E+02 -0.26588922731E+02  0.81068100315E+03  0.81119362240E+03  0.00000000000E+00 0. -1.
         22    1    3    3    0    0  0.79707189702E+03  0.13264386561E+03 -0.65916089620E+03  0.10427900513E+04  0.00000000000E+00 0.  1.
         22    1    3    3    0    0  0.64666406656E+03  0.20274500450E+03 -0.63969329680E+03  0.93192674916E+03  0.00000000000E+00 0.  1.
</event>
<event>
 7    1  0.5018917E-005  0.6873980E+03  0.7818608E-02  0.1066953E+00
          2   -1    0    0  502    0  0.00000000000E+00  0.00000000000E+00  0.33585731134E+04  0.33585731134E+04  0.00000000000E+00 0. -1.
          1   -1    0    0  501    0 -0.00000000000E+00 -0.00000000000E+00 -0.22292930033E+03  0.22292930033E+03  0.00000000000E+00 0. -1.
         25    2    1    2    0    0  0.16630565696E+03  0.76053849222E+03  0.11827971483E+04  0.14215170629E+04  0.12500118655E+03 0.  0.
          2    1    1    2  501    0 -0.17757715310E+03 -0.59311070675E+03  0.89115133557E+03  0.10851104362E+04  0.00000000000E+00 0. -1.
          1    1    1    2  502    0  0.11271496141E+02 -0.16742778547E+03  0.10616953292E+04  0.10748749146E+04  0.00000000000E+00 0. -1.
         22    1    3    3    0    0  0.10759364756E+03  0.36280896488E+03  0.67490300819E+03  0.77375759025E+03  0.00000000000E+00 0. -1.
         22    1    3    3    0    0  0.58712009406E+02  0.39772952734E+03  0.50789414007E+03  0.64775947270E+03  0.00000000000E+00 0. -1.
</event>
<event>
 7    1  0.5018917E-005  0.1027559E+03  0.7818608E-02  0.1321034E+00
          2   -1    0    0  502    0  0.00000000000E+00  0.00000000000E+00  0.46878169279E+02  0.46878169279E+02  0.00000000000E+00 0. -1.
          1   -1    0    0  501    0 -0.00000000000E+00 -0.00000000000E+00 -0.20366016540E+04  0.20366016540E+04  0.00000000000E+00 0. -1.
         25    2    1    2    0    0  0.14997358072E+03 -0.25760397149E+02 -0.28373284995E+03  0.34537573757E+03  0.12499758792E+03 0.  0.
          2    1    1    2  501    0 -0.99140996168E+02 -0.17688077060E+02 -0.16434894775E+04  0.16465720355E+04  0.00000000000E+00 0. -1.
          1    1    1    2  502    0 -0.50832584554E+02  0.43448474209E+02 -0.62501157179E+02  0.91532050192E+02  0.00000000000E+00 0. -1.
         22    1    3    3    0    0  0.15383961422E+03 -0.42941960579E+01 -0.16894226922E+03  0.22853130497E+03  0.00000000000E+00 0. -1.
         22    1    3    3    0    0 -0.38660334999E+01 -0.21466201091E+02 -0.11479058074E+03  0.11684443260E+03  0.00000000000E+00 0. -1.
</event>
<event>
 7    1  0.5018917E-005  0.4994425E+03  0.7818608E-02  0.1128437E+00
          2   -1    0    0  502    0  0.00000000000E+00  0.00000000000E+00  0.77435800559E+03  0.77435800559E+03  0.00000000000E+00 0. -1.
          1   -1    0    0  501    0 -0.00000000000E+00 -0.00000000000E+00 -0.22263081159E+04  0.22263081159E+04  0.00000000000E+00 0. -1.
         25    2    1    2    0    0  0.57798977900E+03 -0.37577767639E+02 -0.15517724527E+03  0.61252684998E+03  0.12499956499E+03 0.  0.
          2    1    1    2  501    0 -0.10039640656E+03  0.25545838307E+02 -0.17360489931E+04  0.17391371811E+04  0.00000000000E+00 0. -1.
          1    1    1    2  502    0 -0.47759337244E+03  0.12031929332E+02  0.43927612802E+03  0.64900209042E+03  0.00000000000E+00 0. -1.
         22    1    3    3    0    0  0.18714747177E+03 -0.57050838965E+02 -0.91741937650E+02  0.21609154898E+03  0.00000000000E+00 0. -1.
         22    1    3    3    0    0  0.39084230723E+03  0.19473071326E+02 -0.63435307622E+02  0.39643530100E+03  0.00000000000E+00 0. -1.
</event>
<event>
 7    1  0.5018917E-005  0.7646436E+03  0.7818608E-02  0.1069411E+00
          2   -1    0    0  502    0  0.00000000000E+00  0.00000000000E+00  0.11971979014E+04  0.11971979014E+04  0.00000000000E+00 0. -1.
          1   -1    0    0  501    0 -0.00000000000E+00 -0.00000000000E+00 -0.20060884684E+04  0.20060884684E+04  0.00000000000E+00 0. -1.
         25    2    1    2    0    0  0.36268287872E+03 -0.64477491485E+03 -0.11739148322E+04  0.13931886830E+04  0.12500044814E+03 0.  0.
          2    1    1    2  501    0 -0.50844124144E+03  0.64939874865E+03 -0.47886567447E+03  0.95369993443E+03  0.00000000000E+00 0. -1.
          1    1    1    2  502    0  0.14575836273E+03 -0.46238337916E+01  0.84388993961E+03  0.85639775240E+03  0.00000000000E+00 0. -1.
         22    1    3    3    0    0  0.12977312867E+03 -0.12552586218E+03 -0.25893327771E+03  0.31566477363E+03  0.00000000000E+00 0. -1.
         22    1    3    3    0    0  0.23290975004E+03 -0.51924905268E+03 -0.91498155444E+03  0.10775239094E+04  0.00000000000E+00 0. -1.
</event>
<event>
 7    1  0.5018917E-005  0.2690225E+03  0.7818608E-02  0.1234811E+00
          2   -1    0    0  502    0  0.00000000000E+00  0.00000000000E+00  0.22755938046E+04  0.22755938046E+04  0.00000000000E+00 0. -1.
          1   -1    0    0  501    0 -0.00000000000E+00 -0.00000000000E+00 -0.27129048280E+03  0.27129048280E+03  0.00000000000E+00 0. -1.
         25    2    1    2    0    0 -0.30958153565E+03  0.70809108906E+02  0.54156220681E+03  0.64013292199E+03  0.12500350733E+03 0.  0.
          2    1    1    2  501    0  0.25155448732E+03 -0.75718481439E+02 -0.14357687027E+03  0.29937813246E+03  0.00000000000E+00 0. -1.
          1    1    1    2  502    0  0.58027048333E+02  0.49093725328E+01  0.16063179853E+04  0.16073732330E+04  0.00000000000E+00 0. -1.
         22    1    3    3    0    0 -0.18802924202E+03  0.20785095821E+02  0.20568516201E+03  0.27945196713E+03  0.00000000000E+00 0.  1.
         22    1    3    3    0    0 -0.12155229363E+03  0.50024013086E+02  0.33587704480E+03  0.36068095485E+03  0.00000000000E+00 0.  1.
</event>
<event>
 7    1  0.5018917E-005  0.4027566E+03  0.7818608E-02  0.1135262E+00
          2   -1    0    0  502    0  0.00000000000E+00  0.00000000000E+00  0.21412259416E+04  0.21412259416E+04  0.00000000000E+00 0. -1.
          1   -1    0    0  501    0 -0.00000000000E+00 -0.00000000000E+00 -0.37220994135E+03  0.37220994135E+03  0.00000000000E+00 0. -1.
         25    2    1    2    0    0  0.69138765917E+01  0.36213282605E+03  0.11366432580E+04  0.11994878974E+04  0.12500133848E+03 0.  0.
          2    1    1    2  501    0 -0.39881900198E+01  0.11810303263E+03 -0.26833804646E+03  0.29320562606E+03  0.00000000000E+00 0. -1.
          1    1    1    2  502    0 -0.29256865719E+01 -0.48023585868E+03  0.90071078873E+03  0.10207423595E+04  0.00000000000E+00 0. -1.
         22    1    3    3    0    0 -0.25321666531E+02  0.36892134075E+02  0.26160228775E+03  0.26540153223E+03  0.00000000000E+00 0. -1.
         22    1    3    3    0    0  0.32235543123E+02  0.32524069198E+03  0.87504097027E+03  0.93408636518E+03  0.00000000000E+00 0. -1.
</event>
<event>
 7    1  0.5018917E-005  0.1244765E+04  0.7818608E-02  0.1103802E+00
          2   -1    0    0  502    0  0.00000000000E+00  0.00000000000E+00  0.30143422999E+04  0.30143422999E+04  0.00000000000E+00 0. -1.
          1   -1    0    0  501    0 -0.00000000000E+00 -0.00000000000E+00 -0.15394500428E+04  0.15394500428E+04  0.00000000000E+00 0. -1.
         25    2    1    2    0    0 -0.11816207651E+04 -0.29736283222E+03  0.79363058346E+02  0.12274266369E+04  0.12500147031E+03 0.  0.
          2    1    1    2  501    0  0.12137473468E+04  0.34406861986E+03 -0.55268576513E+03  0.13773261749E+04  0.00000000000E+00 0. -1.
          1    1    1    2  502    0 -0.32126581719E+02 -0.46705787644E+02  0.19482149639E+04  0.19490395310E+04  0.00000000000E+00 0. -1.
         22    1    3    3    0    0 -0.28675743941E+03 -0.24710749776E+02 -0.75538416739E+01  0.28791927816E+03  0.00000000000E+00 0.  1.
         22    1    3    3    0    0 -0.89486332564E+03 -0.27265208244E+03  0.86916900020E+02  0.93950735875E+03  0.00000000000E+00 0.  1.
</event>
<event>
 7    1  0.5018917E-005  0.3217153E+03  0.7818608E-02  0.1267696E+00
          2   -1    0    0  502    0  0.00000000000E+00  0.00000000000E+00  0.14557489845E+03  0.14557489845E+03  0.00000000000E+00 0. -1.
          1   -1    0    0  501    0 -0.00000000000E+00 -0.00000000000E+00 -0.94474737770E+03  0.94474737770E+03  0.00000000000E+00 0. -1.
         25    2    1    2    0    0  0.12744097585E+03 -0.30908987651E+03 -0.28161823424E+03  0.45465503649E+03  0.12499847304E+03 0.  0.
          2    1    1    2  501    0  0.10131712057E+02  0.33588674796E+02 -0.15992895423E+03  0.16373185721E+03  0.00000000000E+00 0. -1.
          1    1    1    2  502    0 -0.13757268791E+03  0.27550120171E+03 -0.35762529077E+03  0.47193538245E+03  0.00000000000E+00 0. -1.
         22    1    3    3    0    0  0.13270685804E+03 -0.18088643097E+03 -0.21203424132E+03  0.30869002344E+03  0.00000000000E+00 0.  1.
         22    1    3    3    0    0 -0.52658821903E+01 -0.12820344554E+03 -0.69583992926E+02  0.14596501305E+03  0.00000000000E+00 0.  1.
</event>
<event>
 7    1  0.5018917E-005  0.1774240E+03  0.7818608E-02  0.1215361E+00
          2   -1    0    0  502    0  0.00000000000E+00  0.00000000000E+00  0.94906264324E+03  0.94906264324E+03  0.00000000000E+00 0. -1.
          1   -1    0    0  501    0 -0.00000000000E+00 -0.00000000000E+00 -0.24206554324E+04  0.24206554324E+04  0.00000000000E+00 0. -1.
         25    2    1    2    0    0  0.23320731463E+03  0.16060501410E+03 -0.37260460668E+03  0.48439698653E+03  0.12500650178E+03 0.  0.
          2    1    1    2  501    0 -0.92234421000E+02 -0.56407534585E+02 -0.19820656217E+04  0.19850121226E+04  0.00000000000E+00 0. -1.
          1    1    1    2  502    0 -0.14097289363E+03 -0.10419747951E+03  0.88307743920E+03  0.90030896647E+03  0.00000000000E+00 0. -1.
         22    1    3    3    0    0  0.17236661224E+03  0.16485396303E+03 -0.23959960361E+03  0.33807550664E+03  0.00000000000E+00 0. -1.
         22    1    3    3    0    0  0.60840702396E+02 -0.42489489294E+01 -0.13300500307E+03  0.14632147989E+03  0.00000000000E+00 0. -1.
</event>
<event>
 7    1  0.5018917E-005  0.7032845E+03  0.7818608E-02  0.1185089E+00
          2   -1    0    0  502    0  0.00000000000E+00  0.00000000000E+00  0.23554431580E+04  0.23554431580E+04  0.00000000000E+00 0. -1.
          1   -1    0    0  501    0 -0.00000000000E+00 -0.00000000000E+00 -0.21112488469E+04  0.21112488469E+04  0.00000000000E+00 0. -1.
         25    2    1    2    0    0 -0.28015415547E+03 -0.60697716896E+03  0.18135487979E+04  0.19368769843E+04  0.12500230289E+03 0.  0.
          2    1    1    2  501    0  0.28386028994E+03  0.64468409144E+03 -0.19881805970E+04  0.21092786274E+04  0.00000000000E+00 0. -1.
          1    1    1    2  502    0 -0.37061344656E+01 -0.37706922482E+02  0.41882611013E+03  0.42053639315E+03  0.00000000000E+00 0. -1.
         22    1    3    3    0    0 -0.28897027077E+03 -0.54182466854E+03  0.16541297936E+04  0.17644328162E+04  0.00000000000E+00 0.  1.
         22    1    3    3    0    0  0.88161152979E+01 -0.65152500412E+02  0.15941900426E+03  0.17244416812E+03  0.00000000000E+00 0.  1.
</event>
<event>
 7    1  0.5018917E-005  0.4868716E+03  0.7818608E-02  0.1098617E+00
          2   -1    0    0  502    0  0.00000000000E+00  0.00000000000E+00  0.91685414380E+03  0.91685414380E+03  0.00000000000E+00 0. -1.
          1   -1    0    0  501    0 -0.00000000000E+00 -0.00000000000E+00 -0.22160870935E+04  0.22160870935E+04  0.00000000000E+00 0. -1.
         25    2    1    2    0    0 -0.36038634468E+03  0.10881979562E+03 -0.43310309946E+02  0.39902470644E+03  0.12499947219E+03 0.  0.
          2    1    1    2  501    0  0.45055058458E+03 -0.23488938061E+03 -0.19539271508E+04  0.20189106372E+04  0.00000000000E+00 0. -1.
          1    1    1    2  502    0 -0.90164239897E+02  0.12606958499E+03  0.69800451109E+03  0.71500589362E+03  0.00000000000E+00 0. -1.
         22    1    3    3    0    0 -0.30235965328E+02  0.33161436679E+01 -0.42699819912E+02  0.52425995733E+02  0.00000000000E+00 0.  1.
         22    1    3    3    0    0 -0.33015037936E+03  0.10550365196E+03 -0.61049003421E+00  0.34659871071E+03  0.00000000000E+00 0.  1.
</event>
<event>
 7    1  0.5018917E-005  0.7368857E+03  0.7818608E-02  0.1122072E+00
          2   -1    0    0  502    0  0.00000000000E+00  0.00000000000E+00  0.41887108635E+03  0.41887108635E+03  0.00000000000E+00 0. -1.
          1   -1    0    0  501    0 -0.00000000000E+00 -0.00000000000E+00 -0.28015049742E+04  0.28015049742E+04  0.00000000000E+00 0. -1.
         25    2    1    2    0    0  0.44839297362E+03 -0.50982580863E+03 -0.13596515147E+04  0.15248788727E+04  0.12499888398E+03 0.  0.
          2    1    1    2  501    0  0.59019675803E+02 -0.47840773297E+02 -0.93310917006E+03  0.93619697979E+03  0.00000000000E+00 0. -1.
          1    1    1    2  502    0 -0.50741264942E+03  0.55766658193E+03 -0.89873203114E+02  0.75930020811E+03  0.00000000000E+00 0. -1.
         22    1    3    3    0    0  0.40697569992E+02 -0.99095617361E+02 -0.28208197566E+03  0.30173908361E+03  0.00000000000E+00 0. -1.
         22    1    3    3    0    0  0.40769540363E+03 -0.41073019127E+03 -0.10775695391E+04  0.12231397891E+04  0.00000000000E+00 0. -1.
</event>
<event>
 7    1  0.5018917E-005  0.8067282E+02  0.7818608E-02  0.1476833E+00
          2   -1    0    0  502    0  0.00000000000E+00  0.00000000000E+00  0.35352237290E+02  0.35352237290E+02  0.00000000000E+00 0. -1.
          1   -1    0    0  501    0 -0.00000000000E+00 -0.00000000000E+00 -0.75609661729E+03  0.75609661729E+03  0.00000000000E+00 0. -1.
         25    2    1    2    0    0 -0.49620095450E+02 -0.61573821392E+02 -0.47466911660E+03  0.49718094661E+03  0.12499853628E+03 0.  0.
          2    1    1    2  501    0  0.20113444495E+02 -0.14269003283E+02 -0.19844943029E+03  0.19997582725E+03  0.00000000000E+00 0. -1.
          1    1    1    2  502    0  0.29506650955E+02  0.75842824675E+02 -0.47625833115E+02  0.94292080713E+02  0.00000000000E+00 0. -1.
         22    1    3    3    0    0 -0.70777776425E+02 -0.87112178120E+02 -0.40058642953E+03  0.41601383719E+03  0.00000000000E+00 0. -1.
         22    1    3    3    0    0  0.21157680976E+02  0.25538356728E+02 -0.74082687069E+02  0.81167109422E+02  0.00000000000E+00 0. -1.
</event>
<event>
 7    1  0.5018917E-005  0.1028638E+04  0.7818608E-02  0.1082003E+00
          2   -1    0    0  502    0  0.00000000000E+00  0.00000000000E+00  0.24691279182E+04  0.24691279182E+04  0.00000000000E+00 0. -1.
          1   -1    0    0  501    0 -0.00000000000E+00 -0.00000000000E+00 -0.12961516566E+04  0.12961516566E+04  0.00000000000E+00 0. -1.
         25    2    1    2    0    0  0.31240428977E+03 -0.98201992063E+03  0.13227813595E+04  0.16814681195E+04  0.12499978808E+03 0.  0.
          2    1    1    2  501    0  0.84935558199E+02  0.33674265537E+02 -0.84030161067E+03  0.84525428251E+03  0.00000000000E+00 0. -1.
          1    1    1    2  502    0 -0.39733984796E+03  0.94834565509E+03  0.69049651270E+03  0.12385571728E+04  0.00000000000E+00 0. -1.
         22    1    3    3    0    0 -0.32806617279E+00 -0.51114226264E+02  0.10725848653E+03  0.11881563318E+03  0.00000000000E+00 0. -1.
         22    1    3    3    0    0  0.31273235594E+03 -0.93090569437E+03  0.12155228730E+04  0.15626524863E+04  0.00000000000E+00 0. -1.
</event>
<event>
 7    1  0.5018917E-005  0.6706106E+03  0.7818608E-02  0.1128989E+00
          2   -1    0    0  502    0  0.00000000000E+00  0.00000000000E+00  0.10818453609E+04  0.10818453609E+04  0.00000000000E+00 0. -1.
          1   -1    0    0  501    0 -0.00000000000E+00 -0.00000000000E+00 -0.25289670217E+04  0.25289670217E+04  0.00000000000E+00 0. -1.
         25    2    1    2    0    0 -0.69117034057E+03  0.23266086958E+03 -0.65536154927E+03  0.98841909990E+03  0.12500414742E+03 0.  0.
          2    1    1    2  501    0  0.75730716254E+02  0.11716766453E+02 -0.15862669984E+04  0.15881169397E+04  0.00000000000E+00 0. -1.
          1    1    1    2  502    0  0.61543962432E+03 -0.24437763604E+03  0.79450688691E+03  0.10342763429E+04  0.00000000000E+00 0. -1.
         22    1    3    3    0    0 -0.17291245189E+03  0.78627397016E+02 -0.24309541240E+03  0.30850666623E+03  0.00000000000E+00 0.  1.
         22    1    3    3    0    0 -0.51825788868E+03  0.15403347257E+03 -0.41226613688E+03  0.67991243368E+03  0.00000000000E+00 0.  1.
</event>
<event>
 7    1  0.5018917E-005  0.3744947E+03  0.7818608E-02  0.1201249E+00
          2   -1    0    0  502    0  0.00000000000E+00  0.00000000000E+00  0.11582703741E+04  0.11582703741E+04  0.00000000000E+00 0. -1.
          1   -1    0    0  501    0 -0.00000000000E+00 -0.00000000000E+00 -0.23901957197E+03  0.23901957197E+03  0.00000000000E+00 0. -1.
         25    2    1    2    0    0  0.31158722793E+03  0.23927123439E+03  0.57615864008E+03  0.70846442978E+03  0.12500298201E+03 0.  0.
          2    1    1    2  501    0 -0.14081011594E+01 -0.59561096263E+02 -0.10151215366E+03  0.11770396883E+03  0.00000000000E+00 0. -1.
          1    1    1    2  502    0 -0.31017912677E+03 -0.17971013812E+03  0.44460431568E+03  0.57112154744E+03  0.00000000000E+00 0. -1.
         22    1    3    3    0    0  0.16599672897E+03  0.17138003222E+03  0.25405899448E+03  0.34852833766E+03  0.00000000000E+00 0.  1.
         22    1    3    3    0    0  0.14559049896E+03  0.67891202166E+02  0.32209964559E+03  0.35993609212E+03  0.00000000000E+00 0.  1.
</event>
<event>
 7    1  0.5018917E-005  0.1418210E+03  0.7818608E-02  0.1258575E+00
          2   -1    0    0  502    0  0.00000000000E+00  0.00000000000E+00  0.53924888172E+03  0.53924888172E+03  0.00000000000E+00 0. -1.
          1   -1    0    0  501    0 -0.00000000000E+00 -0.00000000000E+00 -0.24507666053E+04  0.24507666053E+04  0.00000000000E+00 0. -1.
         25    2    1    2    0    0  0.14915490526E+03  0.93356543494E+02 -0.20779425008E+04  0.20891232756E+04  0.12501357484E+03 0.  0.
          2    1    1    2  501    0 -0.63124048806E+02 -0.80343962659E+02 -0.35646148193E+03  0.37081610803E+03  0.00000000000E+00 0. -1.
          1    1    1    2  502    0 -0.86030856459E+02 -0.13012580835E+02  0.52288625910E+03  0.53007610348E+03  0.00000000000E+00 0. -1.
         22    1    3    3    0    0  0.46961403220E+02 -0.26677194529E+02 -0.72962450588E+03  0.73162077997E+03  0.00000000000E+00 0. -1.
         22    1    3    3    0    0  0.10219350205E+03  0.12003373802E+03 -0.13483179949E+04  0.13575024956E+04  0.00000000000E+00 0. -1.
</event>
<event>
 7    1  0.5018917E-005  0.5990933E+03  0.7818608E-02  0.1130244E+00
          2   -1    0    0  502    0  0.00000000000E+00  0.00000000000E+00  0.20667447765E+04  0.20667447765E+04  0.00000000000E+00 0. -1.
          1   -1    0    0  501    0 -0.00000000000E+00 -0.00000000000E+00 -0.11465848268E+04  0.11465848268E+04  0.00000000000E+00 0. -1.
         25    2    1    2    0    0  0.35897803212E+03 -0.47275748374E+03 -0.22602041192E+03  0.64736019712E+03  0.12500052890E+03 0.  0.
          2    1    1    2  501    0 -0.42924569459E+03  0.42588458806E+03 -0.57991227394E+03  0.83781131178E+03  0.00000000000E+00 0. -1.
          1    1    1    2  502    0  0.70267662465E+02  0.46872895684E+02  0.17260926355E+04  0.17281580944E+04  0.00000000000E+00 0. -1.
         22    1    3    3    0    0  0.29269526371E+03 -0.36074398293E+03 -0.22734787233E+03  0.51719802172E+03  0.00000000000E+00 0.  1.
         22    1    3    3    0    0  0.66282768412E+02 -0.11201350081E+03  0.13274604084E+01  0.13016217540E+03  0.00000000000E+00 0.  1.
</event>
<event>
 7    1  0.5018917E-005  0.6497771E+03  0.7818608E-02  0.1134106E+00
          2   -1    0    0  502    0  0.00000000000E+00  0.00000000000E+00  0.13135209669E+04  0.13135209669E+04  0.00000000000E+00 0. -1.
          1   -1    0    0  501    0 -0.00000000000E+00 -0.00000000000E+00 -0.43009591988E+03  0.43009591988E+03  0.00000000000E+00 0. -1.
         25    2    1    2    0    0  0.19223787346E+03 -0.63383260781E+03  0.48394933062E+03  0.82977725780E+03  0.12499667292E+03 0.  0.
          2    1    1    2  501    0 -0.11796456617E+03  0.63252801162E+03  0.15989058300E+03  0.66300250594E+03  0.00000000000E+00 0. -1.
          1    1    1    2  502    0 -0.74273307292E+02  0.13045961858E+01  0.23958513340E+03  0.25083712303E+03  0.00000000000E+00 0. -1.
         22    1    3    3    0    0  0.14002259574E+03 -0.25951686884E+03  0.18751970728E+03  0.34945525200E+03  0.00000000000E+00 0.  1.
         22    1    3    3    0    0  0.52215277727E+02 -0.37431573896E+03  0.29642962334E+03  0.48032200580E+03  0.00000000000E+00 0.  1.
</event>
<event>
 7    1  0.5018917E-005  0.3773740E+03  0.7818608E-02  0.1256370E+00
          2   -1    0    0  502    0  0.00000000000E+00  0.00000000000E+00  0.69103493614E+03  0.69103493614E+03  0.00000000000E+00 0. -1.
          1   -1    0    0  501    0 -0.00000000000E+00 -0.00000000000E+00 -0.20953419383E+04  0.20953419383E+04  0.00000000000E+00 0. -1.
         25    2    1    2    0    0  0.87245086405E+02 -0.39939723450E+03 -0.10048131564E+04  0.10919733458E+04  0.12500581045E+03 0.  0.
          2    1    1    2  501    0 -0.25920499533E+01  0.33317563651E+02 -0.99213002743E+03  0.99269268663E+03  0.00000000000E+00 0. -1.
          1    1    1    2  502    0 -0.84653036452E+02  0.36607967085E+03  0.59263618166E+03  0.70171084201E+03  0.00000000000E+00 0. -1.
         22    1    3    3    0    0 -0.15287533995E+02 -0.49804775656E+01 -0.17002945584E+02  0.23401154052E+02  0.00000000000E+00 0.  1.
         22    1    3    3    0    0  0.10253262040E+03 -0.39441675694E+03 -0.98781021077E+03  0.10685721917E+04  0.00000000000E+00 0.  1.
</event>
<event>
 7    1  0.5018917E-005  0.3021524E+03  0.7818608E-02  0.1112262E+00
          2   -1    0    0  502    0  0.00000000000E+00  0.00000000000E+00  0.80974698970E+03  0.80974698970E+03  0.00000000000E+00 0. -1.
          1   -1    0    0  501    0 -0.00000000000E+00 -0.00000000000E+00 -0.15673818846E+04  0.15673818846E+04  0.00000000000E+00 0. -1.
         25    2    1    2    0    0 -0.31724029453E+03  0.21439524443E+03  0.22476627215E+03  0.46125084482E+03  0.12500295775E+03 0.  0.
          2    1    1    2  501    0  0.11731288725E+03 -0.27733669563E+03 -0.14088665037E+04  0.14406883013E+04  0.00000000000E+00 0. -1.
          1    1    1    2  502    0  0.19992740728E+03  0.62941451199E+02  0.42646533661E+03  0.47518972821E+03  0.00000000000E+00 0. -1.
         22    1    3    3    0    0 -0.98577372566E+02  0.67082170728E+01  0.77868287398E+02  0.12580130659E+03  0.00000000000E+00 0. -1.
         22    1    3    3    0    0 -0.21866292196E+03  0.20768702735E+03  0.14689798475E+03  0.33544953823E+03  0.00000000000E+00 0. -1.
</event>
<event>
 7    1  0.5018917E-005  0.2915714E+03  0.7818608E-02  0.1213449E+00
          2   -1    0    0  502    0  0.00000000000E+00  0.00000000000E+00  0.61840253909E+03  0.61840253909E+03  0.00000000000E+00 0. -1.
          1   -1    0    0  501    0 -0.00000000000E+00 -0.00000000000E+00 -0.30727138812E+03  0.30727138812E+03  0.00000000000E+00 0. -1.
         25    2    1    2    0    0  0.27797354766E+03  0.13191848258E+03  0.26886962236E+03  0.42730398070E+03  0.12500415536E+03 0.  0.
          2    1    1    2  501    0 -0.55660487386E+02  0.37539211289E+02 -0.14644642935E+03  0.16110195191E+03  0.00000000000E+00 0. -1.
          1    1    1    2  502    0 -0.22231306027E+03 -0.16945769387E+03  0.18870795796E+03  0.33726799459E+03  0.00000000000E+00 0. -1.
         22    1    3    3    0    0  0.10992554265E+03  0.29622595762E+02  0.17633616994E+03  0.20989418271E+03  0.00000000000E+00 0.  1.
         22    1    3    3    0    0  0.16804800501E+03  0.10229588682E+03  0.92533452415E+02  0.21740979799E+03  0.00000000000E+00 0.  1.
</event>
<event>
 7    1  0.5018917E-005  0.7122674E+03  0.7818608E-02  0.1179404E+00
          2   -1    0    0  502    0  0.00000000000E+00  0.00000000000E+00  0.96371225969E+03  0.96371225969E+03  0.00000000000E+00 0. -1.
          1   -1    0    0  501    0 -0.00000000000E+00 -0.00000000000E+00 -0.11062798874E+04  0.11062798874E+04  0.00000000000E+00 0. -1.
         25    2    1    2    0    0 -0.70252368958E+03  0.21001389970E+03  0.20269640108E+03  0.77094483728E+03  0.12499895452E+03 0.  0.
          2    1    1    2  501    0  0.36719909678E+02 -0.15531582225E+02 -0.56887281674E+03  0.57026823815E+03  0.00000000000E+00 0. -1.
          1    1    1    2  502    0  0.66580377991E+03 -0.19448231747E+03  0.22360878800E+03  0.72877907161E+03  0.00000000000E+00 0. -1.
         22    1    3    3    0    0 -0.30004692862E+02  0.25458066059E+02 -0.12209329754E+02  0.41200272502E+02  0.00000000000E+00 0.  1.
         22    1    3    3    0    0 -0.67251899672E+03  0.18455583364E+03  0.21490573084E+03  0.72974456478E+03  0.00000000000E+00 0.  1.
</event>
<event>
 7    1  0.5018917E-005  0.4670296E+02  0.7818608E-02  0.1528838E+00
          2   -1    0    0  502    0  0.00000000000E+00  0.00000000000E+00  0.18785367378E+04  0.18785367378E+04  0.00000000000E+00 0. -1.
          1   -1    0    0  501    0 -0.00000000000E+00 -0.00000000000E+00 -0.24838071908E+02  0.24838071908E+02  0.00000000000E+00 0. -1.
         25    2    1    2    0    0  0.16299803579E+01 -0.43042680410E+02  0.13785986714E+04  0.13849239853E+04  0.12499927652E+03 0.  0.
          2    1    1    2  501    0  0.27753718218E+02  0.37861029508E+02  0.47813907439E+01  0.47186736778E+02  0.00000000000E+00 0. -1.
          1    1    1    2  502    0 -0.29383698576E+02  0.51816509020E+01  0.47031860382E+03  0.47126408769E+03  0.00000000000E+00 0. -1.
         22    1    3    3    0    0 -0.50102383414E+02  0.16284597663E+02  0.62971264074E+03  0.63191253101E+03  0.00000000000E+00 0.  1.
         22    1    3    3    0    0  0.51732363772E+02 -0.59327278073E+02  0.74888603063E+03  0.75301145427E+03  0.00000000000E+00 0.  1.
</event>
<event>
 7    1  0.5018917E-005  0.1176237E+04  0.7818608E-02  0.1101403E+00
          2   -1    0    0  502    0  0.00000000000E+00  0.00000000000E+00  0.96416040510E+03  0.96416040510E+03  0.00000000000E+00 0. -1.
          1   -1    0    0  501    0 -0.00000000000E+00 -0.00000000000E+00 -0.30448366697E+04  0.30448366697E+04  0.00000000000E+00 0. -1.
         25    2    1    2    0    0  0.88742282489E+03  0.81809013612E+03 -0.46212599207E+03  0.12984506638E+04  0.12499181108E+03 0.  0.
          2    1    1    2  501    0 -0.16161036014E+02 -0.59730806584E+02 -0.15523391625E+04  0.15535719564E+04  0.00000000000E+00 0. -1.
          1    1    1    2  502    0 -0.87126178887E+03 -0.75835932954E+03 -0.66211110037E+02  0.11569744546E+04  0.00000000000E+00 0. -1.
         22    1    3    3    0    0  0.66921485783E+03  0.63895023407E+03 -0.29890851454E+03  0.97234367773E+03  0.00000000000E+00 0.  1.
         22    1    3    3    0    0  0.21820796706E+03  0.17913990205E+03 -0.16321747753E+03  0.32610698607E+03  0.00000000000E+00 0.  1.
</event>
<event>
 7    1  0.5018917E-005  0.2183395E+03  0.7818608E-02  0.1211741E+00
          2   -1    0    0  502    0  0.00000000000E+00  0.00000000000E+00  0.86680324245E+03  0.86680324245E+03  0.00000000000E+00 0. -1.
          1   -1    0    0  501    0 -0.00000000000E+00 -0.00000000000E+00 -0.23565920488E+03  0.23565920488E+03  0.00000000000E+00 0. -1.
         25    2    1    2    0    0 -0.29206615317E+03  0.24596265321E+02  0.34032232342E+03  0.46620923660E+03  0.12499661747E+03 0.  0.
          2    1    1    2  501    0  0.20245857273E+03 -0.42077146255E+02 -0.10368279764E+03  0.23132246419E+03  0.00000000000E+00 0. -1.
          1    1    1    2  502    0  0.89607580434E+02  0.17480880934E+02  0.39450451180E+03  0.40493074655E+03  0.00000000000E+00 0. -1.
         22    1    3    3    0    0 -0.38237733737E+02  0.14504899601E+01 -0.32653183675E+01  0.38404303229E+02  0.00000000000E+00 0.  1.
         22    1    3    3    0    0 -0.25382841943E+03  0.23145775361E+02  0.34358764178E+03  0.42780493337E+03  0.00000000000E+00 0.  1.
</event>
<event>
 7    1  0.5018917E-005  0.2538819E+03  0.7818608E-02  0.1120457E+00
          2   -1    0    0  502    0  0.00000000000E+00  0.00000000000E+00  0.37436555490E+04  0.37436555490E+04  0.00000000000E+00 0. -1.
          1   -1    0    0  501    0 -0.00000000000E+00 -0.00000000000E+00 -0.15378551234E+04  0.15378551234E+04  0.00000000000E+00 0. -1.
         25    2    1    2    0    0 -0.44008092699E+03 -0.13218430428E+03  0.31164811170E+03  0.56911573654E+03  0.12499705377E+03 0.  0.
          2    1    1    2  501    0  0.21518246222E+03  0.12535875439E+03 -0.13942438642E+04  0.14163100868E+04  0.00000000000E+00 0. -1.
          1    1    1    2  502    0  0.22489846477E+03  0.68255498933E+01  0.32883961781E+04  0.32960848490E+04  0.00000000000E+00 0. -1.
         22    1    3    3    0    0 -0.15265391345E+03  0.14661085869E+02  0.10525923761E+03  0.18600449412E+03  0.00000000000E+00 0.  1.
         22    1    3    3    0    0 -0.28742701354E+03 -0.14684539015E+03  0.20638887409E+03  0.38311124242E+03  0.00000000000E+00 0.  1.
</event>
<event>
 7    1  0.5018917E-005  0.5140193E+03  0.7818608E-02  0.1123192E+00
          2   -1    0    0  502    0  0.00000000000E+00  0.00000000000E+00  0.10382709750E+04  0.10382709750E+04  0.00000000000E+00 0. -1.
          1   -1    0    0  501    0 -0.00000000000E+00 -0.00000000000E+00 -0.43819972115E+03  0.43819972115E+03  0.00000000000E+00 0. -1.
         25    2    1    2    0    0  0.12815986677E+03  0.52890211875E+03  0.20683335080E+02  0.55875906311E+03  0.12498594958E+03 0.  0.
          2    1    1    2  501    0 -0.19053649238E+03 -0.44146353879E+03  0.19544948537E+03  0.51903247715E+03  0.00000000000E+00 0. -1.
          1    1    1    2  502    0  0.62376625603E+02 -0.87438579962E+02  0.38393843341E+03  0.39867915588E+03  0.00000000000E+00 0. -1.
         22    1    3    3    0    0  0.65160574997E+02  0.46008100520E+03  0.25127765341E+02  0.46535130436E+03  0.00000000000E+00 0.  1.
         22    1    3    3    0    0  0.62999291778E+02  0.68821113551E+02 -0.44444302609E+01  0.93407758753E+02  0.00000000000E+00 0.  1.
</event>
<event>
 7    1  0.5018917E-005  0.4124792E+03  0.7818608E-02  0.1116595E+00
          2   -1    0    0  502    0  0.00000000000E+00  0.00000000000E+00  0.15499425087E+04  0.15499425087E+04  0.00000000000E+00 0. -1.
          1   -1    0    0  501    0 -0.00000000000E+00 -0.00000000000E+00 -0.16947700279E+04  0.16947700279E+04  0.00000000000E+00 0. -1.
         25    2    1    2    0    0  0.37071267583E+03  0.15672166093E+03 -0.10152707738E+04  0.10992674606E+04  0.12499855445E+03 0.  0.
          2    1    1    2  501    0 -0.44512436323E+03 -0.31851906290E+02 -0.55525196624E+03  0.71235874999E+03  0.00000000000E+00 0. -1.
          1    1    1    2  502    0  0.74411687400E+02 -0.12486975464E+03  0.14256952209E+04  0.14330863260E+04  0.00000000000E+00 0. -1.
         22    1    3    3    0    0  0.31730163593E+03  0.10500213361E+03 -0.70498224037E+03  0.78019595965E+03  0.00000000000E+00 0. -1.
         22    1    3    3    0    0  0.53411039906E+02  0.51719527317E+02 -0.31028853348E+03  0.31907150091E+03  0.00000000000E+00 0. -1.
</event>
<event>
 7    1  0.5018917E-005  0.1156651E+04  0.7818608E-02  0.1189374E+00
          2   -1    0    0  502    0  0.00000000000E+00  0.00000000000E+00  0.43795220763E+04  0.43795220763E+04  0.00000000000E+00 0. -1.
          1   -1    0    0  501    0 -0.00000000000E+00 -0.00000000000E+00 -0.98580248784E+03  0.98580248784E+03  0.00000000000E+00 0. -1.
         25    2    1    2    0    0 -0.18258098812E+03  0.11481845151E+04  0.23807507148E+04  0.26524065347E+04  0.12499184607E+03 0.  0.
          2    1    1    2  501    0  0.16092676327E+03 -0.11444877122E+04 -0.45697530748E+03  0.12428097111E+04  0.00000000000E+00 0. -1.
          1    1    1    2  502    0  0.21654224853E+02 -0.36968028944E+01  0.14699441811E+04  0.14701083183E+04  0.00000000000E+00 0. -1.
         22    1    3    3    0    0 -0.11690026508E+03  0.93238082197E+03  0.18274714121E+04  0.20549091054E+04  0.00000000000E+00 0. -1.
         22    1    3    3    0    0 -0.65680723043E+02  0.21580369310E+03  0.55327930269E+03  0.59749742939E+03  0.00000000000E+00 0. -1.
</event>
<event>
 7    1  0.5018917E-005  0.5844252E+03  0.7818608E-02  0.1059788E+00
          2   -1    0    0  502    0  0.00000000000E+00  0.00000000000E+00  0.17414866354E+04  0.17414866354E+04  0.00000000000E+00 0. -1.
          1   -1    0    0  501    0 -0.00000000000E+00 -0.00000000000E+00 -0.15869376953E+04  0.15869376953E+04  0.00000000000E+00 0. -1.
         25    2    1    2    0    0  0.62505178065E+03 -0.47935185772E+03  0.62781290996E+03  0.10150077189E+04  0.12499474996E+03 0.  0.
          2    1    1    2  501    0 -0.44715202837E+03  0.35327510345E+03 -0.13206882663E+04  0.14383899790E+04  0.00000000000E+00 0. -1.
          1    1    1    2  502    0 -0.17789975228E+03  0.12607675427E+03  0.84742429646E+03  0.87502663277E+03  0.00000000000E+00 0. -1.
         22    1    3    3    0    0  0.50756945994E+03 -0.42311520656E+03  0.56932709798E+03  0.87223080614E+03  0.00000000000E+00 0.  1.
         22    1    3    3    0    0  0.11748232071E+03 -0.56236651160E+02  0.58485811974E+02  0.14277691275E+03  0.00000000000E+00 0.  1.
</event>
<event>
 7    1  0.5018917E-005  0.1667477E+04  0.7818608E-02  0.1032710E+00
          2   -1    0    0  502    0  0.00000000000E+00  0.00000000000E+00  0.19469300598E+04  0.19469300598E+04  0.00000000000E+00 0. -1.
          1   -1    0    0  501    0 -0.00000000000E+00 -0.00000000000E+00 -0.51049091948E+04  0.51049091948E+04  0.00000000000E+00 0. -1.
         25    2    1    2    0    0 -0.10458362565E+03  0.16907045090E+04  0.67182658215E+03  0.18265802558E+04  0.12500001041E+03 0.  0.
          2    1    1    2  501    0 -0.83271941263E+02 -0.76063604178E+02 -0.35786639883E+04  0.35804407311E+04  0.00000000000E+00 0. -1.
          1    1    1    2  502    0  0.18785556692E+03 -0.16146409049E+04 -0.25114172885E+03  0.16448182677E+04  0.00000000000E+00 0. -1.
         22    1    3    3    0    0 -0.10653620115E+03  0.10422025317E+04  0.46194293943E+03  0.11449573610E+04  0.00000000000E+00 0.  1.
         22    1    3    3    0    0  0.19525754956E+01  0.64850197739E+03  0.20988364272E+03  0.68162289480E+03  0.00000000000E+00 0.  1.
</event>
<event>
 7    1  0.5018917E-005  0.8510132E+03  0.7818608E-02  0.1177486E+00
          2   -1    0    0  502    0  0.00000000000E+00  0.00000000000E+00  0.50783786574E+03  0.50783786574E+03  0.00000000000E+00 0. -1.
          1   -1    0    0  501    0 -0.00000000000E+00 -0.00000000000E+00 -0.44168395130E+04  0.44168395130E+04  0.00000000000E+00 0. -1.
         25    2    1    2    0    0 -0.35090921863E+02  0.87233456681E+03 -0.97377438575E+03  0.13137963824E+04  0.12500164298E+03 0.  0.
          2    1    1    2  501    0  0.51484627410E+02 -0.84243535173E+03 -0.32176013498E+04  0.33264555363E+04  0.00000000000E+00 0. -1.
          1    1    1    2  502    0 -0.16393705546E+02 -0.29899215077E+02  0.28237408825E+03  0.28442546011E+03  0.00000000000E+00 0. -1.
         22    1    3    3    0    0  0.19035875363E+02  0.32573289503E+03 -0.44098252213E+03  0.54857075048E+03  0.00000000000E+00 0. -1.
         22    1    3    3    0    0 -0.54126797227E+02  0.54660167178E+03 -0.53279186361E+03  0.76522563189E+03  0.00000000000E+00 0. -1.
</event>
<event>
 7    1  0.5018917E-005  0.4266434E+03  0.7818608E-02  0.1113163E+00
          2   -1    0    0  502    0  0.00000000000E+00  0.00000000000E+00  0.37294200590E+03  0.37294200590E+03  0.00000000000E+00 0. -1.
          1   -1    0    0  501    0 -0.00000000000E+00 -0.00000000000E+00 -0.16982108691E+04  0.16982108691E+04  0.00000000000E+00 0. -1.
         25    2    1    2    0    0 -0.51453013147E+03  0.60810381325E+01 -0.27190040035E+03  0.59525700499E+03  0.12499135594E+03 0.  0.
          2    1    1    2  501    0  0.13028080043E+03  0.67557077251E+02 -0.10741248615E+04  0.10841038990E+04  0.00000000000E+00 0. -1.
          1    1    1    2  502    0  0.38424933104E+03 -0.73638115383E+02  0.20756398706E+02  0.39179197099E+03  0.00000000000E+00 0. -1.
         22    1    3    3    0    0 -0.39070274560E+03  0.51343002521E+02 -0.23302336653E+03  0.45780413790E+03  0.00000000000E+00 0. -1.
         22    1    3    3    0    0 -0.12382738588E+03 -0.45261964389E+02 -0.38877033814E+02  0.13745286709E+03  0.00000000000E+00 0. -1.
</event>
<event>
 7    1  0.5018917E-005  0.1068626E+04  0.7818608E-02  0.1045811E+00
          2   -1    0    0  502    0  0.00000000000E+00  0.00000000000E+00  0.23191289700E+04  0.23191289700E+04  0.00000000000E+00 0. -1.
          1   -1    0    0  501    0 -0.00000000000E+00 -0.00000000000E+00 -0.10271304723E+04  0.10271304723E+04  0.00000000000E+00 0. -1.
         25    2    1    2    0    0  0.92663597370E+03  0.61544333749E+03  0.47601477240E+03  0.12164046230E+04  0.12500165510E+03 0.  0.
          2    1    1    2  501    0 -0.79746332472E+03 -0.68220685217E+03 -0.22954383691E+03  0.10742645468E+04  0.00000000000E+00 0. -1.
          1    1    1    2  502    0 -0.12917264898E+03  0.66763514676E+02  0.10455275622E+04  0.10555902725E+04  0.00000000000E+00 0. -1.
         22    1    3    3    0    0  0.34945189063E+03  0.25472523380E+03  0.12255751181E+03  0.44946847754E+03  0.00000000000E+00 0.  1.
         22    1    3    3    0    0  0.57718408308E+03  0.36071810370E+03  0.35345726059E+03  0.76693614542E+03  0.00000000000E+00 0.  1.
</event>
<event>
 7    1  0.5018917E-005  0.3359964E+03  0.7818608E-02  0.1277692E+00
          2   -1    0    0  502    0  0.00000000000E+00  0.00000000000E+00  0.15188000675E+04  0.15188000675E+04  0.00000000000E+00 0. -1.
          1   -1    0    0  501    0 -0.00000000000E+00 -0.00000000000E+00 -0.15831739040E+04  0.15831739040E+04  0.00000000000E+00 0. -1.
         25    2    1    2    0    0 -0.83649590761E+02 -0.34310344230E+03 -0.49527455667E+03  0.62099881361E+03  0.12500165548E+03 0.  0.
          2    1    1    2  501    0  0.95203984485E+02  0.31486588199E+03 -0.99847989679E+03  0.10512689602E+04  0.00000000000E+00 0. -1.
          1    1    1    2  502    0 -0.11554393724E+02  0.28237560308E+02  0.14293806169E+04  0.14297061977E+04  0.00000000000E+00 0. -1.
         22    1    3    3    0    0 -0.46569803117E+02 -0.14536951513E+03 -0.11618260680E+03  0.19183180293E+03  0.00000000000E+00 0.  1.
         22    1    3    3    0    0 -0.37079787644E+02 -0.19773392717E+03 -0.37909194987E+03  0.42916701068E+03  0.00000000000E+00 0.  1.
</event>
<event>
 7    1  0.5018917E-005  0.3760057E+03  0.7818608E-02  0.1306338E+00
          2   -1    0    0  502    0  0.00000000000E+00  0.00000000000E+00  0.27597629712E+04  0.27597629712E+04  0.00000000000E+00 0. -1.
          1   -1    0    0  501    0 -0.00000000000E+00 -0.00000000000E+00 -0.10236857752E+03  0.10236857752E+03  0.00000000000E+00 0. -1.
         25    2    1    2    0    0 -0.14454384550E+03 -0.34789771867E+03  0.13998869144E+04  0.14550719790E+04  0.12500138019E+03 0.  0.
          2    1    1    2  501    0 -0.18545964389E+02  0.95619232350E+01 -0.46004388634E+02  0.50515214982E+02  0.00000000000E+00 0. -1.
          1    1    1    2  502    0  0.16308980989E+03  0.33833579544E+03  0.13035118679E+04  0.13565443548E+04  0.00000000000E+00 0. -1.
         22    1    3    3    0    0  0.11064660017E+02  0.20829872241E+01  0.19339745881E+02  0.22378366960E+02  0.00000000000E+00 0. -1.
         22    1    3    3    0    0 -0.15560850552E+03 -0.34998070589E+03  0.13805471685E+04  0.14326936120E+04  0.00000000000E+00 0. -1.
</event>
<event>
 7    1  0.5018917E-005  0.7712250E+03  0.7818608E-02  0.1111799E+00
          2   -1    0    0  502    0  0.00000000000E+00  0.00000000000E+00  0.31351560147E+04  0.31351560147E+04  0.00000000000E+00 0. -1.
          1   -1    0    0  501    0 -0.00000000000E+00 -0.00000000000E+00 -0.29382609286E+03  0.29382609286E+03  0.00000000000E+00 0. -1.
         25    2    1    2    0    0  0.71855772774E+03 -0.40923829714E+03  0.16879880483E+04  0.18838076478E+04  0.12500564309E+03 0.  0.
          2    1    1    2  501    0 -0.66277961075E+03  0.34831384347E+03  0.53230003883E+03  0.91866352781E+03  0.00000000000E+00 0. -1.
          1    1    1    2  502    0 -0.55778116982E+02  0.60924453676E+02  0.62104183464E+03  0.62651093188E+03  0.00000000000E+00 0. -1.
         22    1    3    3    0    0  0.40873339637E+03 -0.16478402263E+03  0.93562783253E+03  0.10342225120E+04  0.00000000000E+00 0. -1.
         22    1    3    3    0    0  0.30982433136E+03 -0.24445427451E+03  0.75236021581E+03  0.84958513580E+03  0.00000000000E+00 0. -1.
</event>
<event>
 7    1  0.5018917E-005  0.1994961E+03  0.7818608E-02  0.1274500E+00
          2   -1    0    0  502    0  0.00000000000E+00  0.00000000000E+00  0.34538055294E+03  0.34538055294E+03  0.00000000000E+00 0. -1.
          1   -1    0    0  501    0 -0.00000000000E+00 -0.00000000000E+00 -0.69281834081E+03  0.69281834081E+03  0.00000000000E+00 0. -1.
         25    2    1    2    0    0  0.17700067720E+03 -0.65011388617E+02  0.21102257406E+03  0.30936937704E+03  0.12499265701E+03 0.  0.
          2    1    1    2  501    0  0.37680766173E+02 -0.37243998432E+02 -0.47329026717E+03  0.47624639900E+03  0.00000000000E+00 0. -1.
          1    1    1    2  502    0 -0.21468144338E+03  0.10225538705E+03 -0.85170094763E+02  0.25258311771E+03  0.00000000000E+00 0. -1.
         22    1    3    3    0    0 -0.98067980078E+01  0.17006401636E+02  0.33980964055E+02  0.39244068366E+02  0.00000000000E+00 0. -1.
         22    1    3    3    0    0  0.18680747521E+03 -0.82017790254E+02  0.17704161001E+03  0.27012530868E+03  0.00000000000E+00 0. -1.
</event>
<event>
 7    1  0.5018917E-005  0.6373540E+03  0.7818608E-02  0.1090702E+00
          2   -1    0    0  502    0  0.00000000000E+00  0.00000000000E+00  0.16835448372E+04  0.16835448372E+04  0.00000000000E+00 0. -1.
          1   -1    0    0  501    0 -0.00000000000E+00 -0.00000000000E+00 -0.13560783346E+04  0.13560783346E+04  0.00000000000E+00 0. -1.
         25    2    1    2    0    0 -0.64314978393E+03  0.19255473825E+03 -0.54415945861E+03  0.87318407302E+03  0.12498774815E+03 0.  0.
          2    1    1    2  501    0  0.10922939064E+02 -0.13088280587E+03 -0.57324396153E+03  0.58809715091E+03  0.00000000000E+00 0. -1.
          1    1    1    2  502    0  0.63222684487E+03 -0.61671932379E+02  0.14448699227E+04  0.15783419478E+04  0.00000000000E+00 0. -1.
         22    1    3    3    0    0 -0.56426994986E+03  0.14223607302E+03 -0.50937087851E+03  0.77336302514E+03  0.00000000000E+00 0. -1.
         22    1    3    3    0    0 -0.78879834072E+02  0.50318665234E+02 -0.34788580097E+02  0.99821047877E+02  0.00000000000E+00 0. -1.
</event>
<event>
 7    1  0.5018917E-005  0.3479776E+03  0.7818608E-02  0.1125059E+00
          2   -1    0    0  502    0  0.00000000000E+00  0.00000000000E+00  0.28249515760E+03  0.28249515760E+03  0.00000000000E+00 0. -1.
          1   -1    0    0  501    0 -0.00000000000E+00 -0.00000000000E+00 -0.18656439496E+04  0.18656439496E+04  0.00000000000E+00 0. -1.
         25    2    1    2    0    0 -0.22140965297E+03  0.36104781037E+03 -0.38164774684E+03  0.58365927923E+03  0.12500158302E+03 0.  0.
          2    1    1    2  501    0 -0.32520071355E+02 -0.15157496417E+03 -0.12247105491E+04  0.12344830716E+04  0.00000000000E+00 0. -1.
          1    1    1    2  502    0  0.25392972433E+03 -0.20947284620E+03  0.23209503948E+02  0.32999675645E+03  0.00000000000E+00 0. -1.
         22    1    3    3    0    0 -0.23637333766E+03  0.33203170393E+03 -0.34020556705E+03  0.53090228388E+03  0.00000000000E+00 0. -1.
         22    1    3    3    0    0  0.14963684692E+02  0.29016106434E+02 -0.41442179797E+02  0.52756995351E+02  0.00000000000E+00 0. -1.
</event>
<event>
 7    1  0.5018917E-005  0.5069500E+03  0.7818608E-02  0.1202215E+00
          2   -1    0    0  502    0  0.00000000000E+00  0.00000000000E+00  0.69809812313E+03  0.69809812313E+03  0.00000000000E+00 0. -1.
          1   -1    0    0  501    0 -0.00000000000E+00 -0.00000000000E+00 -0.97181987784E+03  0.97181987784E+03  0.00000000000E+00 0. -1.
         25    2    1    2    0    0  0.42889833842E+02 -0.48655164343E+03 -0.31622253908E+03  0.59514162871E+03  0.12499929771E+03 0.  0.
          2    1    1    2  501    0 -0.70515969981E+02  0.52022175036E+03 -0.38123926990E+03  0.64880393994E+03  0.00000000000E+00 0. -1.
          1    1    1    2  502    0  0.27626136139E+02 -0.33670106931E+02  0.42374005427E+03  0.42597243231E+03  0.00000000000E+00 0. -1.
         22    1    3    3    0    0  0.89903969418E+01 -0.33604445788E+03 -0.14925369402E+03  0.36780887712E+03  0.00000000000E+00 0.  1.
         22    1    3    3    0    0  0.33899436900E+02 -0.15050718554E+03 -0.16696884506E+03  0.22733275158E+03  0.00000000000E+00 0.  1.
</event>
<event>
 7    1  0.5018917E-005  0.7253517E+02  0.7818608E-02  0.1381029E+00
          2   -1    0    0  502    0  0.00000000000E+00  0.00000000000E+00  0.66582477071E+02  0.66582477071E+02  0.00000000000E+00 0. -1.
          1   -1    0    0  501    0 -0.00000000000E+00 -0.00000000000E+00 -0.11985286316E+04  0.11985286316E+04  0.00000000000E+00 0. -1.
         25    2    1    2    0    0  0.12780016059E+02 -0.23120680072E+02 -0.40707473351E+03  0.42665464209E+03  0.12500580106E+03 0.  0.
          2    1    1    2  501    0 -0.44341246627E+02  0.70359718509E+02 -0.76461366587E+03  0.76912332833E+03  0.00000000000E+00 0. -1.
          1    1    1    2  502    0  0.31561230567E+02 -0.47239038437E+02  0.39742244882E+02  0.69333138221E+02  0.00000000000E+00 0. -1.
         22    1    3    3    0    0 -0.12392248167E+02  0.49077645236E+02 -0.14093848548E+03  0.14975259519E+03  0.00000000000E+00 0.  1.
         22    1    3    3    0    0  0.25172264227E+02 -0.72198325308E+02 -0.26613624802E+03  0.27690204690E+03  0.00000000000E+00 0.  1.
</event>
<event>
 7    1  0.5018917E-005  0.7195909E+03  0.7818608E-02  0.1150226E+00
          2   -1    0    0  502    0  0.00000000000E+00  0.00000000000E+00  0.14129304260E+04  0.14129304260E+04  0.00000000000E+00 0. -1.
          1   -1    0    0  501    0 -0.00000000000E+00 -0.00000000000E+00 -0.13091818241E+04  0.13091818241E+04  0.00000000000E+00 0. -1.
         25    2    1    2    0    0  0.44799281065E+03  0.51708286746E+03  0.14381986985E+03  0.71019843572E+03  0.12500165169E+03 0.  0.
          2    1    1    2  501    0 -0.45446170252E+03 -0.57197014047E+03 -0.89494580965E+03  0.11552546398E+04  0.00000000000E+00 0. -1.
          1    1    1    2  502    0  0.64688918705E+01  0.54887273010E+02  0.85487454170E+03  0.85665917455E+03  0.00000000000E+00 0. -1.
         22    1    3    3    0    0  0.34134759777E+03  0.33050949505E+03  0.57479152304E+02  0.47860062868E+03  0.00000000000E+00 0. -1.
         22    1    3    3    0    0  0.10664521288E+03  0.18657337241E+03  0.86340717542E+02  0.23159780704E+03  0.00000000000E+00 0. -1.
</event>
<event>
 7    1  0.5018917E-005  0.1899219E+03  0.7818608E-02  0.1184720E+00
          2   -1    0    0  502    0  0.00000000000E+00  0.00000000000E+00  0.43728018515E+03  0.43728018515E+03  0.00000000000E+00 0. -1.
          1   -1    0    0  501    0 -0.00000000000E+00 -0.00000000000E+00 -0.31250512543E+03  0.31250512543E+03  0.00000000000E+00 0. -1.
         25    2    1    2    0    0  0.13941369444E+03 -0.25779300910E+03  0.15554671636E+03  0.35456076287E+03  0.12500055945E+03 0.  0.
          2    1    1    2  501    0 -0.12953575329E+03  0.11725863983E+03 -0.13431524868E+03  0.22038531263E+03  0.00000000000E+00 0. -1.
          1    1    1    2  502    0 -0.98779411437E+01  0.14053436927E+03  0.10354359204E+03  0.17483923507E+03  0.00000000000E+00 0. -1.
         22    1    3    3    0    0  0.42690947027E+02  0.39366355365E+00  0.25402405997E+02  0.49678508024E+02  0.00000000000E+00 0.  1.
         22    1    3    3    0    0  0.96722747410E+02 -0.25818667265E+03  0.13014431037E+03  0.30488225485E+03  0.00000000000E+00 0.  1.
</event>
<event>
 7    1  0.5018917E-005  0.1070923E+04  0.7818608E-02  0.1144780E+00
          2   -1    0    0  502    0  0.00000000000E+00  0.00000000000E+00  0.10196865223E+04  0.10196865223E+04  0.00000000000E+00 0. -1.
          1   -1    0    0  501    0 -0.00000000000E+00 -0.00000000000E+00 -0.18956431057E+04  0.18956431057E+04  0.00000000000E+00 0. -1.
         25    2    1    2    0    0 -0.10392716790E+04 -0.14333749534E+03 -0.11400480901E+03  0.10626638161E+04  0.12500411656E+03 0.  0.
          2    1    1    2  501    0  0.10676976250E+04  0.17093990901E+03 -0.10822904388E+04  0.15298860300E+04  0.00000000000E+00 0. -1.
          1    1    1    2  502    0 -0.28425945974E+02 -0.27602413671E+02  0.32033866447E+03  0.32277978190E+03  0.00000000000E+00 0. -1.
         22    1    3    3    0    0 -0.53980336489E+03 -0.97276312301E+02 -0.11805790688E+03  0.56105973216E+03  0.00000000000E+00 0.  1.
         22    1    3    3    0    0 -0.49946831414E+03 -0.46061183036E+02  0.40530978673E+01  0.50160408393E+03  0.00000000000E+00 0.  1.
</event>
<event>
 7    1  0.5018917E-005  0.1120079E+04  0.7818608E-02  0.1110371E+00
          2   -1    0    0  502    0  0.00000000000E+00  0.00000000000E+00  0.11117732547E+04  0.11117732547E+04  0.00000000000E+00 0. -1.
          1   -1    0    0  501    0 -0.00000000000E+00 -0.00000000000E+00 -0.20039912320E+04  0.20039912320E+04  0.00000000000E+00 0. -1.
         25    2    1    2    0    0 -0.53223886639E+03  0.97211786471E+03 -0.30139351951E+03  0.11553156493E+04  0.12499936827E+03 0.  0.
          2    1    1    2  501    0  0.58913624861E+03 -0.96129795464E+03 -0.10242077628E+04  0.15232126636E+04  0.00000000000E+00 0. -1.
          1    1    1    2  502    0 -0.56897382225E+02 -0.10819910075E+02  0.43338330505E+03  0.43723617377E+03  0.00000000000E+00 0. -1.
         22    1    3    3    0    0 -0.49706329824E+03  0.82112093273E+03 -0.24842206183E+03  0.99147618702E+03  0.00000000000E+00 0. -1.
         22    1    3    3    0    0 -0.35175568145E+02  0.15099693198E+03 -0.52971457676E+02  0.16383946225E+03  0.00000000000E+00 0. -1.
</event>
<event>
 7    1  0.5018917E-005  0.5793921E+03  0.7818608E-02  0.1251667E+00
          2   -1    0    0  502    0  0.00000000000E+00  0.00000000000E+00  0.10841261321E+04  0.10841261321E+04  0.00000000000E+00 0. -1.
          1   -1    0    0  501    0 -0.00000000000E+00 -0.00000000000E+00 -0.53904834748E+03  0.53904834748E+03  0.00000000000E+00 0. -1.
         25    2    1    2    0    0 -0.41813006536E+03 -0.40832588928E+03 -0.60132599790E+02  0.60067036390E+03  0.12500469232E+03 0.  0.
          2    1    1    2  501    0  0.42251450941E+03  0.38594526492E+03  0.18462009695E+03  0.60129596571E+03  0.00000000000E+00 0. -1.
          1    1    1    2  502    0 -0.43844440514E+01  0.22380624353E+02  0.42059028744E+03  0.42120814995E+03  0.00000000000E+00 0. -1.
         22    1    3    3    0    0 -0.41823104792E+03 -0.37488291617E+03 -0.43542946061E+02  0.56333861791E+03  0.00000000000E+00 0.  1.
         22    1    3    3    0    0  0.10098256157E+00 -0.33442973109E+02 -0.16589653729E+02  0.37331745991E+02  0.00000000000E+00 0.  1.
</event>
<event>
 7    1  0.5018917E-005  0.7402215E+02  0.7818608E-02  0.1400624E+00
          2   -1    0    0  502    0  0.00000000000E+00  0.00000000000E+00  0.30388335359E+03  0.30388335359E+03  0.00000000000E+00 0. -1.
          1   -1    0    0  501    0 -0.00000000000E+00 -0.00000000000E+00 -0.38046240116E+03  0.38046240116E+03  0.00000000000E+00 0. -1.
         25    2    1    2    0    0 -0.92405371565E+02 -0.36879410553E+02  0.22389526158E+03  0.27505142354E+03  0.12500141524E+03 0.  0.
          2    1    1    2  501    0  0.48629422338E+02  0.55494669654E+02 -0.33971028307E+03  0.34763135000E+03  0.00000000000E+00 0. -1.
          1    1    1    2  502    0  0.43775949227E+02 -0.18615259101E+02  0.39235973920E+02  0.61662981209E+02  0.00000000000E+00 0. -1.
         22    1    3    3    0    0 -0.10020690294E+03 -0.38823872359E+01  0.83123088915E+02  0.13025338475E+03  0.00000000000E+00 0. -1.
         22    1    3    3    0    0  0.78015313732E+01 -0.32997023318E+02  0.14077217267E+03  0.14479803879E+03  0.00000000000E+00 0. -1.
</event>
<event>
 7    1  0.5018917E-005  0.6886184E+03  0.7818608E-02  0.1177521E+00
          2   -1    0    0  502    0  0.00000000000E+00  0.00000000000E+00  0.94671920802E+03  0.94671920802E+03  0.00000000000E+00 0. -1.
          1   -1    0    0  501    0 -0.00000000000E+00 -0.00000000000E+00 -0.16474279656E+04  0.16474279656E+04  0.00000000000E+00 0. -1.
         25    2    1    2    0    0  0.45797706644E+03 -0.49276874227E+03 -0.37971809182E+03  0.78254315137E+03  0.12499571100E+03 0.  0.
          2    1    1    2  501    0 -0.49973267656E+03  0.48721498862E+03 -0.95131280018E+03  0.11798759413E+04  0.00000000000E+00 0. -1.
          1    1    1    2  502    0  0.41755610123E+02  0.55537536411E+01  0.63032213438E+03  0.63172808094E+03  0.00000000000E+00 0. -1.
         22    1    3    3    0    0  0.35670743227E+02 -0.94728567258E+01 -0.46569751847E+02  0.59421197599E+02  0.00000000000E+00 0.  1.
         22    1    3    3    0    0  0.42230632321E+03 -0.48329588554E+03 -0.33314833997E+03  0.72312195377E+03  0.00000000000E+00 0.  1.
</event>
<event>
 7    1  0.5018917E-005  0.2776286E+03  0.7818608E-02  0.1221693E+00
          2   -1    0    0  502    0  0.00000000000E+00  0.00000000000E+00  0.16937768871E+04  0.16937768871E+04  0.00000000000E+00 0. -1.
          1   -1    0    0  501    0 -0.00000000000E+00 -0.00000000000E+00 -0.69891371247E+03  0.69891371247E+03  0.00000000000E+00 0. -1.
         25    2    1    2    0    0 -0.24218877788E+03 -0.15532902348E+03 -0.24820910931E+03  0.40001861292E+03  0.12499847629E+03 0.  0.
          2    1    1    2  501    0  0.25768837377E+03  0.92575811729E+02 -0.32403545344E+03  0.42423172204E+03  0.00000000000E+00 0. -1.
          1    1    1    2  502    0 -0.15499595890E+02  0.62753211754E+02  0.15671077374E+04  0.15684402646E+04  0.00000000000E+00 0. -1.
         22    1    3    3    0    0 -0.44353170780E+00 -0.33836183421E+02 -0.15077037913E+01  0.33872661537E+02  0.00000000000E+00 0. -1.
         22    1    3    3    0    0 -0.24174524617E+03 -0.12149284006E+03 -0.24670140552E+03  0.36614595139E+03  0.00000000000E+00 0. -1.
</event>
<event>
 7    1  0.5018917E-005  0.4105475E+03  0.7818608E-02  0.1274130E+00
          2   -1    0    0  502    0  0.00000000000E+00  0.00000000000E+00  0.91802343395E+03  0.91802343395E+03  0.00000000000E+00 0. -1.
          1   -1    0    0  501    0 -0.00000000000E+00 -0.00000000000E+00 -0.85683760688E+03  0.85683760688E+03  0.00000000000E+00 0. -1.
         25    2    1    2    0    0 -0.39036346085E+03 -0.12948815115E+03 -0.59967277857E+01  0.42989712169E+03  0.12499904656E+03 0.  0.
          2    1    1    2  501    0 -0.66304875411E+01  0.24971060234E+02 -0.57890733010E+03  0.57948357531E+03  0.00000000000E+00 0. -1.
          1    1    1    2  502    0  0.39699394839E+03  0.10451709091E+03  0.64608988495E+03  0.76548034383E+03  0.00000000000E+00 0. -1.
         22    1    3    3    0    0 -0.18961962184E+03 -0.84310902427E+02 -0.62118360405E+02  0.21661629660E+03  0.00000000000E+00 0.  1.
         22    1    3    3    0    0 -0.20074383901E+03 -0.45177248720E+02  0.56121632619E+02  0.21328082509E+03  0.00000000000E+00 0.  1.
</event>
<event>
 7    1  0.5018917E-005  0.2204453E+03  0.7818608E-02  0.1194798E+00
          2   -1    0    0  502    0  0.00000000000E+00  0.00000000000E+00  0.46243184317E+03  0.46243184317E+03  0.00000000000E+00 0. -1.
          1   -1    0    0  501    0 -0.00000000000E+00 -0.00000000000E+00 -0.99369868148E+03  0.99369868148E+03  0.00000000000E+00 0. -1.
         25    2    1    2    0    0  0.15954341660E+03 -0.27780011773E+03  0.22941151103E+03  0.41338144320E+03  0.12501027556E+03 0.  0.
          2    1    1    2  501    0 -0.84714156588E+02  0.19912081899E+03 -0.86531133677E+03  0.89195812594E+03  0.00000000000E+00 0. -1.
          1    1    1    2  502    0 -0.74829260009E+02  0.78679298740E+02  0.10463298744E+03  0.15079095552E+03  0.00000000000E+00 0. -1.
         22    1    3    3    0    0  0.56500781934E+02 -0.15254527699E+03  0.47076852610E+02  0.16934765999E+03  0.00000000000E+00 0. -1.
         22    1    3    3    0    0  0.10304263466E+03 -0.12525484074E+03  0.18233465842E+03  0.24403378321E+03  0.00000000000E+00 0. -1.
</event>
<event>
 7    1  0.5018917E-005  0.3052118E+03  0.7818608E-02  0.1170150E+00
          2   -1    0    0  502    0  0.00000000000E+00  0.00000000000E+00  0.35085636967E+04  0.35085636967E+04  0.00000000000E+00 0. -1.
          1   -1    0    0  501    0 -0.00000000000E+00 -0.00000000000E+00 -0.68644774645E+03  0.68644774645E+03  0.00000000000E+00 0. -1.
         25    2    1    2    0    0 -0.33496080990E+03  0.17504364924E+03  0.15741792721E+04  0.16237295299E+04  0.12497272582E+03 0.  0.
          2    1    1    2  501    0  0.83957427270E+02 -0.60250239270E+02 -0.64758119224E+03  0.65577461179E+03  0.00000000000E+00 0. -1.
          1    1    1    2  502    0  0.25100338263E+03 -0.11479340997E+03  0.18955178704E+04  0.19155073015E+04  0.00000000000E+00 0. -1.
         22    1    3    3    0    0 -0.46368672566E+02  0.55809184437E+02  0.16305379110E+03  0.17846920646E+03  0.00000000000E+00 0. -1.
         22    1    3    3    0    0 -0.28859213733E+03  0.11923446480E+03  0.14111254810E+04  0.14452603234E+04  0.00000000000E+00 0. -1.
</event>
<event>
 7    1  0.5018917E-005  0.4881058E+03  0.7818608E-02  0.1237070E+00
          2   -1    0    0  502    0  0.00000000000E+00  0.00000000000E+00  0.10374298440E+04  0.10374298440E+04  0.00000000000E+00 0. -1.
          1   -1    0    0  501    0 -0.00000000000E+00 -0.00000000000E+00 -0.10723755326E+04  0.10723755326E+04  0.00000000000E+00 0. -1.
         25    2    1    2    0    0  0.47092285429E+03  0.11618645501E+03 -0.27781708079E+03  0.57277774419E+03  0.12499754733E+03 0.  0.
          2    1    1    2  501    0 -0.48827427784E+01  0.30981029445E+02 -0.57952513709E+03  0.58037319880E+03  0.00000000000E+00 0. -1.
          1    1    1    2  502    0 -0.46604011151E+03 -0.14716748446E+03  0.82239652932E+03  0.95665443367E+03  0.00000000000E+00 0. -1.
         22    1    3    3    0    0  0.32863277694E+03  0.11661058101E+03 -0.14341946309E+03  0.37704995966E+03  0.00000000000E+00 0.  1.
         22    1    3    3    0    0  0.14229007735E+03 -0.42412599932E+00 -0.13439761770E+03  0.19572778453E+03  0.00000000000E+00 0.  1.
</event>
<event>
 7    1  0.5018917E-005  0.2771562E+03  0.7818608E-02  0.1174252E+00
          2   -1    0    0  502    0  0.00000000000E+00  0.00000000000E+00  0.50054897770E+03  0.50054897770E+03  0.00000000000E+00 0. -1.
          1   -1    0    0  501    0 -0.00000000000E+00 -0.00000000000E+00 -0.89985269838E+03  0.89985269838E+03  0.00000000000E+00 0. -1.
         25    2    1    2    0    0  0.43657991634E+02  0.30771273895E+03  0.29705224081E+03  0.44772538931E+03  0.12499936206E+03 0.  0.
          2    1    1    2  501    0 -0.77541760149E+02 -0.76039819377E+02 -0.70988842920E+03  0.71814786820E+03  0.00000000000E+00 0. -1.
          1    1    1    2  502    0  0.33883768515E+02 -0.23167291958E+03  0.13532467712E+02  0.23452841857E+03  0.00000000000E+00 0. -1.
         22    1    3    3    0    0  0.76097549255E+02  0.24336262767E+03  0.18710830593E+03  0.31626843614E+03  0.00000000000E+00 0. -1.
         22    1    3    3    0    0 -0.32439557620E+02  0.64350111285E+02  0.10994393488E+03  0.13145695317E+03  0.00000000000E+00 0. -1.
</event>
<event>
 7    1  0.5018917E-005  0.4357062E+03  0.7818608E-02  0.1129135E+00
          2   -1    0    0  502    0  0.00000000000E+00  0.00000000000E+00  0.11938439258E+04  0.11938439258E+04  0.00000000000E+00 0. -1.
          1   -1    0    0  501    0 -0.00000000000E+00 -0.00000000000E+00 -0.82312017336E+03  0.82312017336E+03  0.00000000000E+00 0. -1.
         25    2    1    2    0    0 -0.27174498691E+03 -0.42947068006E+03 -0.35187373294E+02  0.52454999695E+03  0.12499658043E+03 0.  0.
          2    1    1    2  501    0  0.27178964243E+03  0.31173613604E+03 -0.45997080571E+03  0.61856460484E+03  0.00000000000E+00 0. -1.
          1    1    1    2  502    0 -0.44655519101E-01  0.11773454402E+03  0.86588193143E+03  0.87384949735E+03  0.00000000000E+00 0. -1.
         22    1    3    3    0    0 -0.37545145238E+02 -0.63471897879E+02  0.39505931161E+02  0.83660255488E+02  0.00000000000E+00 0.  1.
         22    1    3    3    0    0 -0.23419984168E+03 -0.36599878218E+03 -0.74693304455E+02  0.44088974147E+03  0.00000000000E+00 0.  1.
</event>
<event>
 7    1  0.5018917E-005  0.1800528E+03  0.7818608E-02  0.1186555E+00
          2   -1    0    0  502    0  0.00000000000E+00  0.00000000000E+00  0.19307106957E+04  0.19307106957E+04  0.00000000000E+00 0. -1.
          1   -1    0    0  501    0 -0.00000000000E+00 -0.00000000000E+00 -0.24461768230E+04  0.24461768230E+04  0.00000000000E+00 0. -1.
         25    2    1    2    0    0  0.21141932815E+03 -0.24329316888E+03  0.16464001444E+03  0.38291285433E+03  0.12500488517E+03 0.  0.
          2    1    1    2  501    0 -0.12847692516E+03  0.12362900720E+03 -0.23304299080E+04  0.23372406824E+04  0.00000000000E+00 0. -1.
          1    1    1    2  502    0 -0.82942402995E+02  0.11966416169E+03  0.16503237662E+04  0.16567339820E+04  0.00000000000E+00 0. -1.
         22    1    3    3    0    0  0.18590524039E+03 -0.25658862570E+03  0.14858152609E+03  0.34996421408E+03  0.00000000000E+00 0. -1.
         22    1    3    3    0    0  0.25514087764E+02  0.13295456815E+02  0.16058488354E+02  0.32948640254E+02  0.00000000000E+00 0. -1.
</event>
<event>
 7    1  0.5018917E-005  0.2087380E+03  0.7818608E-02  0.1194276E+00
          2   -1    0    0  502    0  0.00000000000E+00  0.00000000000E+00  0.21575060929E+03  0.21575060929E+03  0.00000000000E+00 0. -1.
          1   -1    0    0  501    0 -0.00000000000E+00 -0.00000000000E+00 -0.71865307650E+03  0.71865307650E+03  0.00000000000E+00 0. -1.
         25    2    1    2    0    0  0.30594720743E+03  0.21803756682E+02 -0.11559303478E+03  0.35080781393E+03  0.12500110034E+03 0.  0.
          2    1    1    2  501    0 -0.19122613163E+03 -0.99805030016E+01 -0.42179154725E+03  0.46322257413E+03  0.00000000000E+00 0. -1.
          1    1    1    2  502    0 -0.11472107580E+03 -0.11823253681E+02  0.34482114820E+02  0.12037329772E+03  0.00000000000E+00 0. -1.
         22    1    3    3    0    0  0.10670787849E+03 -0.52053728514E+02 -0.41014353556E+02  0.12561185924E+03  0.00000000000E+00 0.  1.
         22    1    3    3    0    0  0.19923932894E+03  0.73857485196E+02 -0.74578681228E+02  0.22519595469E+03  0.00000000000E+00 0.  1.
</event>
<event>
 7    1  0.5018917E-005  0.7961127E+03  0.7818608E-02  0.1128222E+00
          2   -1    0    0  502    0  0.00000000000E+00  0.00000000000E+00  0.15618910859E+04  0.15618910859E+04  0.00000000000E+00 0. -1.
          1   -1    0    0  501    0 -0.00000000000E+00 -0.00000000000E+00 -0.65051219916E+03  0.65051219916E+03  0.00000000000E+00 0. -1.
         25    2    1    2    0    0 -0.67777260712E+03  0.44317728399E+03  0.59982841784E+03  0.10154804497E+04  0.12499840342E+03 0.  0.
          2    1    1    2  501    0  0.55793795198E+02  0.33664880450E+02 -0.23341647200E+03  0.24234174456E+03  0.00000000000E+00 0. -1.
          1    1    1    2  502    0  0.62197881193E+03 -0.47684216444E+03  0.54496694092E+03  0.95458109083E+03  0.00000000000E+00 0. -1.
         22    1    3    3    0    0 -0.25354092024E+03  0.95639604638E+02  0.19967123472E+03  0.33659847621E+03  0.00000000000E+00 0.  1.
         22    1    3    3    0    0 -0.42423168688E+03  0.34753767935E+03  0.40015718312E+03  0.67888197349E+03  0.00000000000E+00 0.  1.
</event>
<event>
 7    1  0.5018917E-005  0.2395731E+03  0.7818608E-02  0.1288982E+00
          2   -1    0    0  502    0  0.00000000000E+00  0.00000000000E+00  0.54238652217E+03  0.54238652217E+03  0.00000000000E+00 0. -1.
          1   -1    0    0  501    0 -0.00000000000E+00 -0.00000000000E+00 -0.55460054379E+03  0.55460054379E+03  0.00000000000E+00 0. -1.
         25    2    1    2    0    0  0.15348578333E+03 -0.21626615699E+03  0.26274156870E+03  0.39368373524E+03  0.12499926051E+03 0.  0.
          2    1    1    2  501    0 -0.11614405267E+03  0.20708811035E+03 -0.45820196060E+03  0.51606585153E+03  0.00000000000E+00 0. -1.
          1    1    1    2  502    0 -0.37341730654E+02  0.91780466405E+01  0.18324637028E+03  0.18723747918E+03  0.00000000000E+00 0. -1.
         22    1    3    3    0    0  0.10440449082E+03 -0.20637918626E+03  0.16579157607E+03  0.28456899502E+03  0.00000000000E+00 0.  1.
         22    1    3    3    0    0  0.49081292502E+02 -0.98869707230E+01  0.96949992627E+02  0.10911474022E+03  0.00000000000E+00 0.  1.
</event>
<event>
 7    1  0.5018917E-005  0.3111415E+03  0.7818608E-02  0.1097543E+00
          2   -1    0    0  502    0  0.00000000000E+00  0.00000000000E+00  0.45093350603E+04  0.45093350603E+04  0.00000000000E+00 0. -1.
          1   -1    0    0  501    0 -0.00000000000E+00 -0.00000000000E+00 -0.13508277006E+04  0.13508277006E+04  0.00000000000E+00 0. -1.
         25    2    1    2    0    0  0.43890280661E+03 -0.26302411050E+03 -0.18363582978E+03  0.55782079777E+03  0.12499827234E+03 0.  0.
          2    1    1    2  501    0 -0.24486865945E+03  0.23049265235E+02 -0.95905340891E+03  0.99008856682E+03  0.00000000000E+00 0. -1.
          1    1    1    2  502    0 -0.19403414716E+03  0.23997484526E+03  0.43011965984E+04  0.43122533964E+04  0.00000000000E+00 0. -1.
         22    1    3    3    0    0  0.26534060346E+03 -0.16854271722E+03 -0.17555331524E+03  0.36004339998E+03  0.00000000000E+00 0. -1.
         22    1    3    3    0    0  0.17356220314E+03 -0.94481393275E+02 -0.80825145458E+01  0.19777739779E+03  0.00000000000E+00 0. -1.
</event>
<event>
 7    1  0.5018917E-005  0.1594864E+03  0.7818608E-02  0.1333382E+00
          2   -1    0    0  502    0  0.00000000000E+00  0.00000000000E+00  0.27790244285E+04  0.27790244285E+04  0.00000000000E+00 0. -1.
          1   -1    0    0  501    0 -0.00000000000E+00 -0.00000000000E+00 -0.16768068931E+03  0.16768068931E+03  0.00000000000E+00 0. -1.
         25    2    1    2    0    0 -0.16315716560E+03  0.58774264424E+02  0.89290044539E+02  0.23167081741E+03  0.12499592289E+03 0.  0.
          2    1    1    2  501    0  0.13192841214E+03 -0.81515674595E+02 -0.33938205787E+02  0.15875047385E+03  0.00000000000E+00 0. -1.
          1    1    1    2  502    0  0.31228753460E+02  0.22741410171E+02  0.25559919004E+04  0.25562838265E+04  0.00000000000E+00 0. -1.
         22    1    3    3    0    0 -0.15075317561E+03  0.17717743402E+02  0.24180824510E+02  0.15370475159E+03  0.00000000000E+00 0. -1.
         22    1    3    3    0    0 -0.12403989992E+02  0.41056521022E+02  0.65109220028E+02  0.77966065816E+02  0.00000000000E+00 0. -1.
</event>
<event>
 7    1  0.5018917E-005  0.6735592E+03  0.7818608E-02  0.1097333E+00
          2   -1    0    0  502    0  0.00000000000E+00  0.00000000000E+00  0.93618188340E+03  0.93618188340E+03  0.00000000000E+00 0. -1.
          1   -1    0    0  501    0 -0.00000000000E+00 -0.00000000000E+00 -0.12443477369E+04  0.12443477369E+04  0.00000000000E+00 0. -1.
         25    2    1    2    0    0 -0.40371229051E+03  0.45935003419E+03  0.80349262820E+02  0.62933865001E+03  0.12500025975E+03 0.  0.
          2    1    1    2  501    0 -0.66939999924E+02  0.92184010497E+02 -0.73769240051E+03  0.74643749447E+03  0.00000000000E+00 0. -1.
          1    1    1    2  502    0  0.47065229043E+03 -0.55153404469E+03  0.34917728424E+03  0.80475347577E+03  0.00000000000E+00 0. -1.
         22    1    3    3    0    0 -0.13272388394E+03  0.10968220504E+03  0.72676690262E+02  0.18688958446E+03  0.00000000000E+00 0. -1.
         22    1    3    3    0    0 -0.27098840656E+03  0.34966782915E+03  0.76725725577E+01  0.44244906555E+03  0.00000000000E+00 0. -1.
</event>
<event>
 7    1  0.5018917E-005  0.8275814E+03  0.7818608E-02  0.1059481E+00
          2   -1    0    0  502    0  0.00000000000E+00  0.00000000000E+00  0.16513583035E+04  0.16513583035E+04  0.00000000000E+00 0. -1.
          1   -1    0    0  501    0 -0.00000000000E+00 -0.00000000000E+00 -0.10612532437E+04  0.10612532437E+04  0.00000000000E+00 0. -1.
         25    2    1    2    0    0 -0.52038047135E+01  0.85572364374E+03 -0.36571777971E+03  0.93896975516E+03  0.12499869064E+03 0.  0.
          2    1    1    2  501    0  0.14184123866E+03 -0.78330047006E+03 -0.94143820697E+01  0.79609496542E+03  0.00000000000E+00 0. -1.
          1    1    1    2  502    0 -0.13663743395E+03 -0.72423173686E+02  0.96523722154E+03  0.97754682665E+03  0.00000000000E+00 0. -1.
         22    1    3    3    0    0 -0.55570932634E+02  0.32531080734E+03 -0.17109357608E+03  0.37173681779E+03  0.00000000000E+00 0.  1.
         22    1    3    3    0    0  0.50367127921E+02  0.53041283640E+03 -0.19462420364E+03  0.56723293737E+03  0.00000000000E+00 0.  1.
</event>
<event>
 7    1  0.5018917E-005  0.9599647E+03  0.7818608E-02  0.1103047E+00
          2   -1    0    0  502    0  0.00000000000E+00  0.00000000000E+00  0.17172403755E+04  0.17172403755E+04  0.00000000000E+00 0. -1.
          1   -1    0    0  501    0 -0.00000000000E+00 -0.00000000000E+00 -0.48317572436E+04  0.48317572436E+04  0.00000000000E+00 0. -1.
         25    2    1    2    0    0 -0.94018367212E+03  0.34848860862E+02 -0.33175148350E+04  0.34506069560E+04  0.12499561571E+03 0.  0.
          2    1    1    2  501    0  0.10090338438E+04 -0.62580916583E+02 -0.12701493506E+04  0.16233745846E+04  0.00000000000E+00 0. -1.
          1    1    1    2  502    0 -0.68850171650E+02  0.27732055721E+02  0.14731473175E+04  0.14750160786E+04  0.00000000000E+00 0. -1.
         22    1    3    3    0    0 -0.14916628486E+03  0.19233496181E+02 -0.38780818475E+03  0.41595155496E+03  0.00000000000E+00 0. -1.
         22    1    3    3    0    0 -0.79101738726E+03  0.15615364681E+02 -0.29297066503E+04  0.30346554011E+04  0.00000000000E+00 0. -1.
</event>
<event>
 7    1  0.5018917E-005  0.8317662E+02  0.7818608E-02  0.1438872E+00
          2   -1    0    0  502    0  0.00000000000E+00  0.00000000000E+00  0.18167820273E+04  0.18167820273E+04  0.00000000000E+00 0. -1.
          1   -1    0    0  501    0 -0.00000000000E+00 -0.00000000000E+00 -0.19510792539E+03  0.19510792539E+03  0.00000000000E+00 0. -1.
         25    2    1    2    0    0 -0.15377537158E+02  0.51684437815E+02  0.79458585973E+02  0.15762893406E+03  0.12500185681E+03 0.  0.
          2    1    1    2  501    0  0.31258610467E+01  0.31385477468E+02 -0.15337910966E+03  0.15658853880E+03  0.00000000000E+00 0. -1.
          1    1    1    2  502    0  0.12251676111E+02 -0.83069915283E+02  0.16955946256E+04  0.16976724798E+04  0.00000000000E+00 0. -1.
         22    1    3    3    0    0  0.43029444113E+01 -0.38711652695E+02  0.43455604279E+02  0.58356635683E+02  0.00000000000E+00 0. -1.
         22    1    3    3    0    0 -0.19680481569E+02  0.90396090510E+02  0.36002981694E+02  0.99272298377E+02  0.00000000000E+00 0. -1.
</event>
<event>
 7    1  0.5018917E-005  0.9625488E+03  0.7818608E-02  0.1012040E+00
          2   -1    0    0  502    0  0.00000000000E+00  0.00000000000E+00  0.38469115078E+04  0.38469115078E+04  0.00000000000E+00 0. -1.
          1   -1    0    0  501    0 -0.00000000000E+00 -0.00000000000E+00 -0.72820548064E+03  0.72820548064E+03  0.00000000000E+00 0. -1.
         25    2    1    2    0    0 -0.16148408137E+02 -0.10615066777E+04  0.79367401998E+03  0.13313905200E+04  0.12500027518E+03 0.  0.
          2    1    1    2  501    0 -0.19980012274E+03  0.90490293208E+03  0.23715881668E+02  0.92700153645E+03  0.00000000000E+00 0. -1.
          1    1    1    2  502    0  0.21594853088E+03  0.15660374561E+03  0.23013161255E+04  0.23167249320E+04  0.00000000000E+00 0. -1.
         22    1    3    3    0    0  0.13196781093E+02 -0.16278235043E+03  0.17823150316E+03  0.24174101299E+03  0.00000000000E+00 0. -1.
         22    1    3    3    0    0 -0.29345189230E+02 -0.89872432727E+03  0.61544251682E+03  0.10896495070E+04  0.00000000000E+00 0. -1.
</event>
<event>
 7    1  0.5018917E-005  0.5998257E+03  0.7818608E-02  0.1115458E+00
          2   -1    0    0  502    0  0.00000000000E+00  0.00000000000E+00  0.10980126043E+04  0.10980126043E+04  0.00000000000E+00 0. -1.
          1   -1    0    0  501    0 -0.00000000000E+00 -0.00000000000E+00 -0.21310503491E+04  0.21310503491E+04  0.00000000000E+00 0. -1.
         25    2    1    2    0    0 -0.10892833422E+00 -0.60004580869E+03 -0.13954399261E+03  0.62861182787E+03  0.12500127949E+03 0.  0.
          2    1    1    2  501    0  0.10124274698E+03  0.59269132541E+03 -0.16919336393E+04  0.17955981011E+04  0.00000000000E+00 0. -1.
          1    1    1    2  502    0 -0.10113381865E+03  0.73544832810E+01  0.79843988710E+03  0.80485302448E+03  0.00000000000E+00 0. -1.
         22    1    3    3    0    0 -0.33254805831E+02 -0.18851666505E+03  0.41112269773E+01  0.19147145296E+03  0.00000000000E+00 0.  1.
         22    1    3    3    0    0  0.33145877497E+02 -0.41152914364E+03 -0.14365521959E+03  0.43714037491E+03  0.00000000000E+00 0.  1.
</event>
<event>
 7    1  0.5018917E-005  0.9273647E+03  0.7818608E-02  0.1076403E+00
          2   -1    0    0  502    0  0.00000000000E+00  0.00000000000E+00  0.12528744521E+04  0.12528744521E+04  0.00000000000E+00 0. -1.
          1   -1    0    0  501    0 -0.00000000000E+00 -0.00000000000E+00 -0.12938709053E+04  0.12938709053E+04  0.00000000000E+00 0. -1.
         25    2    1    2    0    0  0.82733869408E+03 -0.51558490807E+03  0.23141936181E+03  0.10097022601E+04  0.12500648360E+03 0.  0.
          2    1    1    2  501    0 -0.81483379021E+03  0.40700625574E+03 -0.66614120082E+03  0.11284291282E+04  0.00000000000E+00 0. -1.
          1    1    1    2  502    0 -0.12504903873E+02  0.10857865233E+03  0.39372538576E+03  0.40861396911E+03  0.00000000000E+00 0. -1.
         22    1    3    3    0    0  0.72429353246E+03 -0.39899873211E+03  0.18555124630E+03  0.84748473401E+03  0.00000000000E+00 0. -1.
         22    1    3    3    0    0  0.10304516163E+03 -0.11658617596E+03  0.45868115511E+02  0.16221752612E+03  0.00000000000E+00 0. -1.
</event>
<event>
 7    1  0.5018917E-005  0.5349184E+03  0.7818608E-02  0.1159019E+00
          2   -1    0    0  502    0  0.00000000000E+00  0.00000000000E+00  0.23305492939E+04  0.23305492939E+04  0.00000000000E+00 0. -1.
          1   -1    0    0  501    0 -0.00000000000E+00 -0.00000000000E+00 -0.21065960000E+03  0.21065960000E+03  0.00000000000E+00 0. -1.
         25    2    1    2    0    0  0.16920345125E+02  0.57849209223E+03  0.15184625986E+04  0.16298135373E+04  0.12499641620E+03 0.  0.
          2    1    1    2  501    0 -0.50100332214E+02 -0.52022791426E+03  0.30003312153E+03  0.60263338779E+03  0.00000000000E+00 0. -1.
          1    1    1    2  502    0  0.33179987089E+02 -0.58264177967E+02  0.30139397374E+03  0.30876196881E+03  0.00000000000E+00 0. -1.
         22    1    3    3    0    0  0.19421071340E+01  0.11459758212E+02  0.34951302480E+01  0.12137288570E+02  0.00000000000E+00 0. -1.
         22    1    3    3    0    0  0.14978237991E+02  0.56703233402E+03  0.15149674683E+04  0.16176762487E+04  0.00000000000E+00 0. -1.
</event>
<event>
 7    1  0.5018917E-005  0.2091210E+03  0.7818608E-02  0.1177903E+00
          2   -1    0    0  502    0  0.00000000000E+00  0.00000000000E+00  0.95278813782E+03  0.95278813782E+03  0.00000000000E+00 0. -1.
          1   -1    0    0  501    0 -0.00000000000E+00 -0.00000000000E+00 -0.62455347563E+03  0.62455347563E+03  0.00000000000E+00 0. -1.
         25    2    1    2    0    0 -0.20478153347E+03 -0.23590211899E+03  0.52338540511E+02  0.34051573311E+03  0.12500542179E+03 0.  0.
          2    1    1    2  501    0  0.12871459361E+03  0.50075448982E+02 -0.45674385520E+03  0.47716867716E+03  0.00000000000E+00 0. -1.
          1    1    1    2  502    0  0.76066939863E+02  0.18582667001E+03  0.73263997688E+03  0.75965720319E+03  0.00000000000E+00 0. -1.
         22    1    3    3    0    0 -0.15520973843E+03 -0.20912065135E+03  0.86750749681E+02  0.27449444857E+03  0.00000000000E+00 0. -1.
         22    1    3    3    0    0 -0.49571795036E+02 -0.26781467642E+02 -0.34412209171E+02  0.66021284539E+02  0.00000000000E+00 0. -1.
</event>
<event>
 7    1  0.5018917E-005  0.4434432E+03  0.7818608E-02  0.1220345E+00
          2   -1    0    0  502    0  0.00000000000E+00  0.00000000000E+00  0.49568773992E+03  0.49568773992E+03  0.00000000000E+00 0. -1.
          1   -1    0    0  501    0 -0.00000000000E+00 -0.00000000000E+00 -0.24179120476E+04  0.24179120476E+04  0.00000000000E+00 0. -1.
         25    2    1    2    0    0 -0.58120644266E+02  0.42121544568E+03 -0.11361543405E+04  0.12195377257E+04  0.12500047233E+03 0.  0.
          2    1    1    2  501    0 -0.38808154196E+02  0.13363915008E+02 -0.11304320473E+04  0.11311769448E+04  0.00000000000E+00 0. -1.
          1    1    1    2  502    0  0.96928798461E+02 -0.43457936069E+03  0.34436208006E+03  0.56288511696E+03  0.00000000000E+00 0. -1.
         22    1    3    3    0    0  0.11304227365E+02  0.29525181399E+03 -0.68486325810E+03  0.74588142591E+03  0.00000000000E+00 0.  1.
         22    1    3    3    0    0 -0.69424871631E+02  0.12596363169E+03 -0.45129108240E+03  0.47365629982E+03  0.00000000000E+00 0.  1.
</event>
<event>
 7    1  0.5018917E-005  0.1430201E+04  0.7818608E-02  0.1051978E+00
          2   -1    0    0  502    0  0.00000000000E+00  0.00000000000E+00  0.27539422309E+04  0.27539422309E+04  0.00000000000E+00 0. -1.
          1   -1    0    0  501    0 -0.00000000000E+00 -0.00000000000E+00 -0.14468206413E+04  0.14468206413E+04  0.00000000000E+00 0. -1.
         25    2    1    2    0    0 -0.13516915947E+04  0.52276666798E+03 -0.39133858981E+03  0.15063621261E+04  0.12500322697E+03 0.  0.
          2    1    1    2  501    0  0.13318883518E+04 -0.42528122976E+03  0.48949427551E+03  0.14813491661E+04  0.00000000000E+00 0. -1.
          1    1    1    2  502    0  0.19803242955E+02 -0.97485438213E+02  0.12089659039E+04  0.12130515801E+04  0.00000000000E+00 0. -1.
         22    1    3    3    0    0 -0.31009888222E+03  0.11113488062E+03 -0.36050379593E+02  0.33137879883E+03  0.00000000000E+00 0.  1.
         22    1    3    3    0    0 -0.10415927125E+04  0.41163178736E+03 -0.35528821022E+03  0.11749833273E+04  0.00000000000E+00 0.  1.
</event>
<event>
 7    1  0.5018917E-005  0.5034927E+02  0.7818608E-02  0.1452790E+00
          2   -1    0    0  502    0  0.00000000000E+00  0.00000000000E+00  0.23501653094E+03  0.23501653094E+03  0.00000000000E+00 0. -1.
          1   -1    0    0  501    0 -0.00000000000E+00 -0.00000000000E+00 -0.31552474939E+03  0.31552474939E+03  0.00000000000E+00 0. -1.
         25    2    1    2    0    0 -0.58359947962E+01 -0.29573108635E+00 -0.14180550902E+02  0.12593735897E+03  0.12499993628E+03 0.  0.
          2    1    1    2  501    0  0.51573558412E+02 -0.10517413938E+02 -0.23947511159E+03  0.24519130693E+03  0.00000000000E+00 0. -1.
          1    1    1    2  502    0 -0.45737563616E+02  0.10813145025E+02  0.17314744405E+03  0.17941261442E+03  0.00000000000E+00 0. -1.
         22    1    3    3    0    0 -0.43430589218E+02  0.32666081919E+01  0.40506973136E+02  0.59478581704E+02  0.00000000000E+00 0.  1.
         22    1    3    3    0    0  0.37594594422E+02 -0.35623392782E+01 -0.54687524038E+02  0.66458777270E+02  0.00000000000E+00 0.  1.
</event>
<event>
 7    1  0.5018917E-005  0.1016601E+03  0.7818608E-02  0.1315683E+00
          2   -1    0    0  502    0  0.00000000000E+00  0.00000000000E+00  0.49446704876E+02  0.49446704876E+02  0.00000000000E+00 0. -1.
          1   -1    0    0  501    0 -0.00000000000E+00 -0.00000000000E+00 -0.60135217083E+03  0.60135217083E+03  0.00000000000E+00 0. -1.
         25    2    1    2    0    0  0.83616506748E+02  0.64263172784E+02 -0.30314495559E+03  0.34444403948E+03  0.12499342645E+03 0.  0.
          2    1    1    2  501    0 -0.58198885100E+02  0.40511593029E+02 -0.10324565742E+03  0.12525160746E+03  0.00000000000E+00 0. -1.
          1    1    1    2  502    0 -0.25417621648E+02 -0.10477476581E+03 -0.14551485295E+03  0.18110322877E+03  0.00000000000E+00 0. -1.
         22    1    3    3    0    0  0.62336725833E+02  0.43706327449E+02 -0.30542339821E+03  0.31476906237E+03  0.00000000000E+00 0. -1.
         22    1    3    3    0    0  0.21279780914E+02  0.20556845335E+02  0.22784426212E+01  0.29674977113E+02  0.00000000000E+00 0. -1.
</event>
<event>
 7    1  0.5018917E-005  0.5199459E+03  0.7818608E-02  0.1070885E+00
          2   -1    0    0  502    0  0.00000000000E+00  0.00000000000E+00  0.43396977704E+04  0.43396977704E+04  0.00000000000E+00 0. -1.
          1   -1    0    0  501    0 -0.00000000000E+00 -0.00000000000E+00 -0.31704101768E+03  0.31704101768E+03  0.00000000000E+00 0. -1.
         25    2    1    2    0    0  0.68074174131E+03  0.68554605673E+02  0.25796064694E+03  0.74180916462E+03  0.12501235544E+03 0.  0.
          2    1    1    2  501    0 -0.17431255664E+03 -0.11741326764E+03  0.13509503521E+03  0.24984277328E+03  0.00000000000E+00 0. -1.
          1    1    1    2  502    0 -0.50642918467E+03  0.48858661964E+02  0.36296010706E+04  0.36650868502E+04  0.00000000000E+00 0. -1.
         22    1    3    3    0    0  0.47392029267E+03  0.58248698218E+02  0.11794499581E+03  0.49183775444E+03  0.00000000000E+00 0.  1.
         22    1    3    3    0    0  0.20682144864E+03  0.10305907455E+02  0.14001565113E+03  0.24997141018E+03  0.00000000000E+00 0.  1.
</event>
<event>
 7    1  0.5018917E-005  0.4272806E+03  0.7818608E-02  0.1247692E+00
          2   -1    0    0  502    0  0.00000000000E+00  0.00000000000E+00  0.33937144524E+03  0.33937144524E+03  0.00000000000E+00 0. -1.
          1   -1    0    0  501    0 -0.00000000000E+00 -0.00000000000E+00 -0.92641762889E+03  0.92641762889E+03  0.00000000000E+00 0. -1.
         25    2    1    2    0    0  0.37634973135E+03  0.15880637996E+03 -0.68416058896E+02  0.43262443535E+03  0.12499823335E+03 0.  0.
          2    1    1    2  501    0 -0.40756680655E+03 -0.15099921619E+03 -0.60274183170E+03  0.74310778544E+03  0.00000000000E+00 0. -1.
          1    1    1    2  502    0  0.31217075198E+02 -0.78071637617E+01  0.84111706946E+02  0.90056853350E+02  0.00000000000E+00 0. -1.
         22    1    3    3    0    0 -0.47195836823E+00 -0.86599354009E+01 -0.14307789535E+02  0.16731110759E+02  0.00000000000E+00 0.  1.
         22    1    3    3    0    0  0.37682168972E+03  0.16746631536E+03 -0.54108269361E+02  0.41589332459E+03  0.00000000000E+00 0.  1.
</event>
<event>
 7    1  0.5018917E-005  0.1413750E+03  0.7818608E-02  0.1240305E+00
          2   -1    0    0  502    0  0.00000000000E+00  0.00000000000E+00  0.80757356839E+03  0.80757356839E+03  0.00000000000E+00 0. -1.
          1   -1    0    0  501    0 -0.00000000000E+00 -0.00000000000E+00 -0.13730594825E+03  0.13730594825E+03  0.00000000000E+00 0. -1.
         25    2    1    2    0    0 -0.83238965424E+02  0.22097991723E+03  0.49727250046E+03  0.56450454492E+03  0.12499836935E+03 0.  0.
          2    1    1    2  501    0  0.59048690606E+02 -0.11903261271E+03 -0.43536644712E+02  0.13982471235E+03  0.00000000000E+00 0. -1.
          1    1    1    2  502    0  0.24190274818E+02 -0.10194730452E+03  0.21653176438E+03  0.24055025937E+03  0.00000000000E+00 0. -1.
         22    1    3    3    0    0 -0.58970774730E+02  0.21236771985E+03  0.49070341284E+03  0.53792884295E+03  0.00000000000E+00 0.  1.
         22    1    3    3    0    0 -0.24268190694E+02  0.86121973778E+01  0.65690876268E+01  0.26575701975E+02  0.00000000000E+00 0.  1.
</event>
<event>
 7    1  0.5018917E-005  0.1288902E+03  0.7818608E-02  0.1373869E+00
          2   -1    0    0  502    0  0.00000000000E+00  0.00000000000E+00  0.12702060778E+04  0.12702060778E+04  0.00000000000E+00 0. -1.
          1   -1    0    0  501    0 -0.00000000000E+00 -0.00000000000E+00 -0.65708537119E+02  0.65708537119E+02  0.00000000000E+00 0. -1.
         25    2    1    2    0    0 -0.15405243763E+03 -0.37263422533E+02  0.55113238400E+03  0.58693494824E+03  0.12500005031E+03 0.  0.
          2    1    1    2  501    0  0.12082142144E+03  0.30551716265E+02  0.34670871634E+02  0.12935722858E+03  0.00000000000E+00 0. -1.
          1    1    1    2  502    0  0.33231016188E+02  0.67117062676E+01  0.61869428505E+03  0.61962243809E+03  0.00000000000E+00 0. -1.
         22    1    3    3    0    0 -0.14896273153E+03 -0.36298558690E+01  0.51962897928E+03  0.54057131569E+03  0.00000000000E+00 0.  1.
         22    1    3    3    0    0 -0.50897061064E+01 -0.33633566664E+02  0.31503404715E+02  0.46363632552E+02  0.00000000000E+00 0.  1.
</event>
<event>
 7    1  0.5018917E-005  0.5645977E+03  0.7818608E-02  0.1147934E+00
          2   -1    0    0  502    0  0.00000000000E+00  0.00000000000E+00  0.10395641882E+04  0.10395641882E+04  0.00000000000E+00 0. -1.
          1   -1    0    0  501    0 -0.00000000000E+00 -0.00000000000E+00 -0.86461187309E+03  0.86461187309E+03  0.00000000000E+00 0. -1.
         25    2    1    2    0    0  0.12789786528E+03  0.54187209436E+03  0.72536669834E+03  0.92291143682E+03  0.12500177020E+03 0.  0.
          2    1    1    2  501    0  0.67435157310E+02  0.26298351609E+02 -0.33542813675E+03  0.34314885788E+03  0.00000000000E+00 0. -1.
          1    1    1    2  502    0 -0.19533302259E+03 -0.56817044597E+03 -0.21498624649E+03  0.63811576659E+03  0.00000000000E+00 0. -1.
         22    1    3    3    0    0  0.11686391768E+03  0.52127347287E+03  0.72365991214E+03  0.89948144906E+03  0.00000000000E+00 0.  1.
         22    1    3    3    0    0  0.11033947602E+02  0.20598621493E+02  0.17067862053E+01  0.23429987755E+02  0.00000000000E+00 0.  1.
</event>
<event>
 7    1  0.5018917E-005  0.3328038E+03  0.7818608E-02  0.1118467E+00
          2   -1    0    0  502    0  0.00000000000E+00  0.00000000000E+00  0.62703575482E+03  0.62703575482E+03  0.00000000000E+00 0. -1.
          1   -1    0    0  501    0 -0.00000000000E+00 -0.00000000000E+00 -0.70457429628E+03  0.70457429628E+03  0.00000000000E+00 0. -1.
         25    2    1    2    0    0  0.31565580961E+03 -0.14948797746E+03 -0.39661116942E+03  0.54305665319E+03  0.12499945329E+03 0.  0.
          2    1    1    2  501    0 -0.33192440105E+03 -0.25731564375E+02 -0.88612105233E+02  0.34451128663E+03  0.00000000000E+00 0. -1.
          1    1    1    2  502    0  0.16268591445E+02  0.17521954183E+03  0.40768473319E+03  0.44404211128E+03  0.00000000000E+00 0. -1.
         22    1    3    3    0    0  0.20609886236E+03 -0.29034449382E+02 -0.22239827830E+03  0.30459930156E+03  0.00000000000E+00 0.  1.
         22    1    3    3    0    0  0.10955694725E+03 -0.12045352808E+03 -0.17421289112E+03  0.23845735163E+03  0.00000000000E+00 0.  1.
</event>
<event>
 7    1  0.5018917E-005  0.3780003E+03  0.7818608E-02  0.1250123E+00
          2   -1    0    0  502    0  0.00000000000E+00  0.00000000000E+00  0.44695565319E+03  0.44695565319E+03  0.00000000000E+00 0. -1.
          1   -1    0    0  501    0 -0.00000000000E+00 -0.00000000000E+00 -0.88672061216E+03  0.88672061216E+03  0.00000000000E+00 0. -1.
         25    2    1    2    0    0  0.35678555740E+03 -0.17510247276E+03 -0.13392122508E+03  0.43762777438E+03  0.12500545769E+03 0.  0.
          2    1    1    2  501    0 -0.15248876533E+02  0.32057547080E+02 -0.48388551203E+03  0.48518594716E+03  0.00000000000E+00 0. -1.
          1    1    1    2  502    0 -0.34153668087E+03  0.14304492568E+03  0.17804177814E+03  0.41086254380E+03  0.00000000000E+00 0. -1.
         22    1    3    3    0    0  0.37235933233E+02  0.16392102464E+02 -0.30965567302E+02  0.51128095068E+02  0.00000000000E+00 0.  1.
         22    1    3    3    0    0  0.31954962417E+03 -0.19149457522E+03 -0.10295565777E+03  0.38649967932E+03  0.00000000000E+00 0.  1.
</event>
<event>
 7    1  0.5018917E-005  0.6042046E+03  0.7818608E-02  0.1212358E+00
          2   -1    0    0  502    0  0.00000000000E+00  0.00000000000E+00  0.11259577449E+04  0.11259577449E+04  0.00000000000E+00 0. -1.
          1   -1    0    0  501    0 -0.00000000000E+00 -0.00000000000E+00 -0.27048216366E+04  0.27048216366E+04  0.00000000000E+00 0. -1.
         25    2    1    2    0    0 -0.55102583466E+03 -0.24764900269E+03 -0.24803244504E+04  0.25558938688E+04  0.12499836074E+03 0.  0.
          2    1    1    2  501    0  0.53864063019E+03  0.27799448112E+03  0.30688341654E+03  0.67940568983E+03  0.00000000000E+00 0. -1.
          1    1    1    2  502    0  0.12385204472E+02 -0.30345478429E+02  0.59457714220E+03  0.59547982281E+03  0.00000000000E+00 0. -1.
         22    1    3    3    0    0 -0.40533820827E+02 -0.22732067352E+02 -0.89436339906E+02  0.10078986265E+03  0.00000000000E+00 0.  1.
         22    1    3    3    0    0 -0.51049201384E+03 -0.22491693534E+03 -0.23908881105E+04  0.24551040062E+04  0.00000000000E+00 0.  1.
</event>
<event>
 7    1  0.5018917E-005  0.1038687E+04  0.7818608E-02  0.1174510E+00
          2   -1    0    0  502    0  0.00000000000E+00  0.00000000000E+00  0.10720163922E+04  0.10720163922E+04  0.00000000000E+00 0. -1.
          1   -1    0    0  501    0 -0.00000000000E+00 -0.00000000000E+00 -0.21918491442E+04  0.21918491442E+04  0.00000000000E+00 0. -1.
         25    2    1    2    0    0  0.88277018897E+03 -0.53583390854E+03 -0.35096370879E+03  0.10978159779E+04  0.12499284900E+03 0.  0.
          2    1    1    2  501    0  0.21950295993E+02  0.18790299949E+02 -0.10785708492E+04  0.10789578155E+04  0.00000000000E+00 0. -1.
          1    1    1    2  502    0 -0.90472048496E+03  0.51704360859E+03  0.30970180607E+03  0.10870917430E+04  0.00000000000E+00 0. -1.
         22    1    3    3    0    0  0.13039110363E+03 -0.12081140303E+03 -0.93337130627E+02  0.20077115072E+03  0.00000000000E+00 0. -1.
         22    1    3    3    0    0  0.75237908534E+03 -0.41502250550E+03 -0.25762657817E+03  0.89704482715E+03  0.00000000000E+00 0. -1.
</event>
<event>
 7    1  0.5018917E-005  0.1154874E+04  0.7818608E-02  0.1102972E+00
          2   -1    0    0  502    0  0.00000000000E+00  0.00000000000E+00  0.11580713744E+04  0.11580713744E+04  0.00000000000E+00 0. -1.
          1   -1    0    0  501    0 -0.00000000000E+00 -0.00000000000E+00 -0.20859051793E+04  0.20859051793E+04  0.00000000000E+00 0. -1.
         25    2    1    2    0    0 -0.50311995463E+03 -0.10789182493E+04  0.23442877829E+03  0.12197441589E+04  0.12499873430E+03 0.  0.
          2    1    1    2  501    0  0.44647778508E+03  0.10543054389E+04 -0.13827588150E+04  0.17952504871E+04  0.00000000000E+00 0. -1.
          1    1    1    2  502    0  0.56642169550E+02  0.24612810436E+02  0.22049623180E+03  0.22898190768E+03  0.00000000000E+00 0. -1.
         22    1    3    3    0    0 -0.24075942170E+03 -0.55720025356E+03  0.58267127793E+02  0.60978051780E+03  0.00000000000E+00 0.  1.
         22    1    3    3    0    0 -0.26236053294E+03 -0.52171799574E+03  0.17616165050E+03  0.60996364108E+03  0.00000000000E+00 0.  1.
</event>
<event>
 7    1  0.5018917E-005  0.3653327E+03  0.7818608E-02  0.1154687E+00
          2   -1    0    0  502    0  0.00000000000E+00  0.00000000000E+00  0.13010016562E+04  0.13010016562E+04  0.00000000000E+00 0. -1.
          1   -1    0    0  501    0 -0.00000000000E+00 -0.00000000000E+00 -0.46920506239E+03  0.46920506239E+03  0.00000000000E+00 0. -1.
         25    2    1    2    0    0 -0.29065862585E+02  0.38132202747E+03 -0.22589380218E+03  0.46141618561E+03  0.12500229389E+03 0.  0.
          2    1    1    2  501    0 -0.62467365624E+02 -0.33348712455E+03  0.11173250606E+03  0.35721140368E+03  0.00000000000E+00 0. -1.
          1    1    1    2  502    0  0.91533228209E+02 -0.47834902925E+02  0.94595788993E+03  0.95157912930E+03  0.00000000000E+00 0. -1.
         22    1    3    3    0    0 -0.57651257326E+02  0.84106639558E+02 -0.39062846164E+02  0.10919478119E+03  0.00000000000E+00 0. -1.
         22    1    3    3    0    0  0.28585394740E+02  0.29721538792E+03 -0.18683095601E+03  0.35222140442E+03  0.00000000000E+00 0. -1.
</event>
<event>
 7    1  0.5018917E-005  0.1210295E+04  0.7818608E-02  0.1044972E+00
          2   -1    0    0  502    0  0.00000000000E+00  0.00000000000E+00  0.16847405819E+04  0.16847405819E+04  0.00000000000E+00 0. -1.
          1   -1    0    0  501    0 -0.00000000000E+00 -0.00000000000E+00 -0.14381148055E+04  0.14381148055E+04  0.00000000000E+00 0. -1.
         25    2    1    2    0    0  0.70916391245E+02 -0.12691913299E+04 -0.60482685183E+03  0.14132645134E+04  0.12500119103E+03 0.  0.
          2    1    1    2  501    0 -0.10569275095E+03  0.75594708673E+02 -0.11489643256E+03  0.17345520401E+03  0.00000000000E+00 0. -1.
          1    1    1    2  502    0  0.34776359710E+02  0.11935966212E+04  0.96634906072E+03  0.15361356700E+04  0.00000000000E+00 0. -1.
         22    1    3    3    0    0  0.33924095065E+02 -0.10925201236E+03 -0.30476893670E+02  0.11838786880E+03  0.00000000000E+00 0.  1.
         22    1    3    3    0    0  0.36992296180E+02 -0.11599393175E+04 -0.57434995816E+03  0.12948766446E+04  0.00000000000E+00 0.  1.
</event>
<event>
 7    1  0.5018917E-005  0.6116857E+03  0.7818608E-02  0.1081427E+00
          2   -1    0    0  502    0  0.00000000000E+00  0.00000000000E+00  0.85481537542E+03  0.85481537542E+03  0.00000000000E+00 0. -1.
          1   -1    0    0  501    0 -0.00000000000E+00 -0.00000000000E+00 -0.21095690687E+04  0.21095690687E+04  0.00000000000E+00 0. -1.
         25    2    1    2    0    0  0.21239331685E+02 -0.57144831439E+03 -0.10919935105E+04  0.12389835007E+04  0.12500401116E+03 0.  0.
          2    1    1    2  501    0 -0.15143708135E+03 -0.32277246819E+02 -0.81357909351E+03  0.82818231789E+03  0.00000000000E+00 0. -1.
          1    1    1    2  502    0  0.13019774967E+03  0.60372556121E+03  0.65081891078E+03  0.89721862548E+03  0.00000000000E+00 0. -1.
         22    1    3    3    0    0  0.71415540785E+02 -0.27286802312E+03 -0.55280234612E+03  0.62060258732E+03  0.00000000000E+00 0. -1.
         22    1    3    3    0    0 -0.50176209101E+02 -0.29858029127E+03 -0.53919116441E+03  0.61838091341E+03  0.00000000000E+00 0. -1.
</event>
<event>
 7    1  0.5018917E-005  0.2573518E+03  0.7818608E-02  0.1135266E+00
          2   -1    0    0  502    0  0.00000000000E+00  0.00000000000E+00  0.20302508971E+04  0.20302508971E+04  0.00000000000E+00 0. -1.
          1   -1    0    0  501    0 -0.00000000000E+00 -0.00000000000E+00 -0.10998021064E+04  0.10998021064E+04  0.00000000000E+00 0. -1.
         25    2    1    2    0    0 -0.33715598485E+03  0.18599390695E+03  0.10610144567E+04  0.11356253302E+04  0.12500128670E+03 0.  0.
          2    1    1    2  501    0  0.12655753763E+03 -0.13483873668E+03 -0.10416416823E+04  0.10579299077E+04  0.00000000000E+00 0. -1.
          1    1    1    2  502    0  0.21059844722E+03 -0.51155170263E+02  0.91107601629E+03  0.93649776555E+03  0.00000000000E+00 0. -1.
         22    1    3    3    0    0 -0.33966186285E+03  0.15542497689E+03  0.96222742829E+03  0.10321863825E+04  0.00000000000E+00 0. -1.
         22    1    3    3    0    0  0.25058780024E+01  0.30568930059E+02  0.98787028445E+02  0.10343894769E+03  0.00000000000E+00 0. -1.
</event>
<event>
 7    1  0.5018917E-005  0.2992966E+03  0.7818608E-02  0.1227422E+00
          2   -1    0    0  502    0  0.00000000000E+00  0.00000000000E+00  0.36692821165E+04  0.36692821165E+04  0.00000000000E+00 0. -1.
          1   -1    0    0  501    0 -0.00000000000E+00 -0.00000000000E+00 -0.20357517869E+03  0.20357517869E+03  0.00000000000E+00 0. -1.
         25    2    1    2    0    0  0.32552796041E+03  0.39152961274E+02  0.62150030189E+03  0.71370496189E+03  0.12494294695E+03 0.  0.
          2    1    1    2  501    0 -0.40803428496E+02  0.39059688851E+02 -0.14488800394E+03  0.15550920473E+03  0.00000000000E+00 0. -1.
          1    1    1    2  502    0 -0.28472453191E+03 -0.78212650125E+02  0.29890946398E+04  0.30036431285E+04  0.00000000000E+00 0. -1.
         22    1    3    3    0    0  0.16713543982E+03  0.77835902065E+02  0.37930941370E+03  0.42174437070E+03  0.00000000000E+00 0. -1.
         22    1    3    3    0    0  0.15839252059E+03 -0.38682940791E+02  0.24219088819E+03  0.29196059119E+03  0.00000000000E+00 0. -1.
</event>
<event>
 7    1  0.5471074E-005  0.5446377E+03  0.7818608E-02  0.1151925E+00
          2   -1    0    0  502    0  0.00000000000E+00  0.00000000000E+00  0.17219694577E+04  0.17219694577E+04  0.00000000000E+00 0. -1.
          1   -1    0    0  501    0 -0.00000000000E+00 -0.00000000000E+00 -0.13422924479E+04  0.13422924479E+04  0.00000000000E+00 0. -1.
         25    2    1    2    0    0  0.57631847334E+03  0.24656851599E+01 -0.69337768007E+03  0.91024524300E+03  0.12499893144E+03 0.  0.
          2    1    1    2  501    0 -0.37039834269E+02  0.61237741123E+02 -0.49213081627E+03  0.49730750104E+03  0.00000000000E+00 0. -1.
          1    1    1    2  502    0 -0.53927863907E+03 -0.63703426283E+02  0.15651855062E+04  0.16567091615E+04  0.00000000000E+00 0. -1.
         22    1    3    3    0    0  0.12276109164E+03  0.19156286850E+02 -0.82203660493E+02  0.14897882650E+03  0.00000000000E+00 0. -1.
         22    1    3    3    0    0  0.45355738170E+03 -0.16690601690E+02 -0.61117401958E+03  0.76126641650E+03  0.00000000000E+00 0. -1.
</event>
<event>
 7    1  0.5018917E-005  0.4798558E+03  0.7818608E-02  0.1205799E+00
          2   -1    0    0  502    0  0.00000000000E+00  0.00000000000E+00  0.25540485452E+04  0.25540485452E+04  0.00000000000E+00 0. -1.
          1   -1    0    0  501    0 -0.00000000000E+00 -0.00000000000E+00 -0.34762581439E+03  0.34762581439E+03  0.00000000000E+00 0. -1.
         25    2    1    2    0    0  0.10548045560E+02 -0.48460973633E+03  0.60202320666E+03  0.78295304509E+03  0.12500268653E+03 0.  0.
          2    1    1    2  501    0  0.33165018917E+02  0.47762547643E+03 -0.33759497327E+02  0.47996428812E+03  0.00000000000E+00 0. -1.
          1    1    1    2  502    0 -0.43713064477E+02  0.69842598963E+01  0.16381590214E+04  0.16387570264E+04  0.00000000000E+00 0. -1.
         22    1    3    3    0    0  0.12674941168E+02 -0.22861947371E+03  0.38213495157E+03  0.44548247901E+03  0.00000000000E+00 0.  1.
         22    1    3    3    0    0 -0.21268956075E+01 -0.25599026262E+03  0.21988825509E+03  0.33747056607E+03  0.00000000000E+00 0.  1.
</event>
<event>
 7    1  0.5018917E-005  0.3957800E+03  0.7818608E-02  0.1075064E+00
          2   -1    0    0  502    0  0.00000000000E+00  0.00000000000E+00  0.58008332385E+03  0.58008332385E+03  0.00000000000E+00 0. -1.
          1   -1    0    0  501    0 -0.00000000000E+00 -0.00000000000E+00 -0.92817013748E+03  0.92817013748E+03  0.00000000000E+00 0. -1.
         25    2    1    2    0    0  0.41928579351E+03 -0.26494363286E+03 -0.31353988571E+03  0.59994059665E+03  0.12500301733E+03 0.  0.
          2    1    1    2  501    0 -0.16518239055E+03  0.32363663335E+03 -0.34624156952E+03  0.50190548618E+03  0.00000000000E+00 0. -1.
          1    1    1    2  502    0 -0.25410340297E+03 -0.58693000488E+02  0.31169464160E+03  0.40640737851E+03  0.00000000000E+00 0. -1.
         22    1    3    3    0    0  0.76172260182E+02 -0.55244905187E+02 -0.70971570169E+01  0.94364094910E+02  0.00000000000E+00 0. -1.
         22    1    3    3    0    0  0.34311353333E+03 -0.20969872767E+03 -0.30644272869E+03  0.50557650174E+03  0.00000000000E+00 0. -1.
</event>
<event>
 7    1  0.5018917E-005  0.3491284E+03  0.7818608E-02  0.1124500E+00
          2   -1    0    0  502    0  0.00000000000E+00  0.00000000000E+00  0.25864996662E+04  0.25864996662E+04  0.00000000000E+00 0. -1.
          1   -1    0    0  501    0 -0.00000000000E+00 -0.00000000000E+00 -0.56573068669E+03  0.56573068669E+03  0.00000000000E+00 0. -1.
         25    2    1    2    0    0 -0.23366533549E+03  0.35369455530E+03  0.18149216179E+04  0.18679568315E+04  0.12499167138E+03 0.  0.
          2    1    1    2  501    0  0.47837175109E+02 -0.14805079271E+03 -0.50122496580E+03  0.52481796738E+03  0.00000000000E+00 0. -1.
          1    1    1    2  502    0  0.18582816038E+03 -0.20564376258E+03  0.70707232740E+03  0.75945555397E+03  0.00000000000E+00 0. -1.
         22    1    3    3    0    0  0.24952597602E+00  0.90279191994E+01  0.19918882585E+03  0.19939346512E+03  0.00000000000E+00 0.  1.
         22    1    3    3    0    0 -0.23391486147E+03  0.34466663610E+03  0.16157327920E+04  0.16685633664E+04  0.00000000000E+00 0.  1.
</event>
<event>
 7    1  0.5018917E-005  0.8270508E+02  0.7818608E-02  0.1384554E+00
          2   -1    0    0  502    0  0.00000000000E+00  0.00000000000E+00  0.10647874241E+04  0.10647874241E+04  0.00000000000E+00 0. -1.
          1   -1    0    0  501    0 -0.00000000000E+00 -0.00000000000E+00 -0.12444756521E+03  0.12444756521E+03  0.00000000000E+00 0. -1.
         25    2    1    2    0    0 -0.35876273663E+02  0.41340675792E+02  0.16190463152E+03  0.21174113596E+03  0.12500016185E+03 0.  0.
          2    1    1    2  501    0  0.21829016580E+02  0.43220340706E+02 -0.91406241499E+02  0.10343889404E+03  0.00000000000E+00 0. -1.
          1    1    1    2  502    0  0.14047257083E+02 -0.84561016498E+02  0.86984146881E+03  0.87405495926E+03  0.00000000000E+00 0. -1.
         22    1    3    3    0    0  0.43448353783E+02 -0.52981503613E+01  0.42669142211E+02  0.61126798875E+02  0.00000000000E+00 0. -1.
         22    1    3    3    0    0 -0.79324627446E+02  0.46638826154E+02  0.11923548931E+03  0.15061433709E+03  0.00000000000E+00 0. -1.
</event>
<event>
 7    1  0.5018917E-005  0.2150516E+03  0.7818608E-02  0.1324642E+00
          2   -1    0    0  502    0  0.00000000000E+00  0.00000000000E+00  0.20657991180E+03  0.20657991180E+03  0.00000000000E+00 0. -1.
          1   -1    0    0  501    0 -0.00000000000E+00 -0.00000000000E+00 -0.67871240499E+03  0.67871240499E+03  0.00000000000E+00 0. -1.
         25    2    1    2    0    0 -0.51982014014E+02 -0.20356072227E+03 -0.45861526573E+03  0.51970411258E+03  0.12500122093E+03 0.  0.
          2    1    1    2  501    0  0.29985882718E+02  0.22532443101E+03 -0.11835623004E+03  0.25627807078E+03  0.00000000000E+00 0. -1.
          1    1    1    2  502    0  0.21996131296E+02 -0.21763708740E+02  0.10483900258E+03  0.10931013344E+03  0.00000000000E+00 0. -1.
         22    1    3    3    0    0  0.18472057591E+02 -0.15594825547E+03 -0.26150740890E+03  0.30503639161E+03  0.00000000000E+00 0. -1.
         22    1    3    3    0    0 -0.70454071604E+02 -0.47612466795E+02 -0.19710785683E+03  0.21466772096E+03  0.00000000000E+00 0. -1.
</event>
<event>
 7    1  0.5018917E-005  0.4703519E+03  0.7818608E-02  0.1136856E+00
          2   -1    0    0  502    0  0.00000000000E+00  0.00000000000E+00  0.37046754888E+04  0.37046754888E+04  0.00000000000E+00 0. -1.
          1   -1    0    0  501    0 -0.00000000000E+00 -0.00000000000E+00 -0.23708437373E+04  0.23708437373E+04  0.00000000000E+00 0. -1.
         25    2    1    2    0    0  0.53301806993E+03  0.17634692597E+03 -0.40674102681E+03  0.70446516263E+03  0.12500560506E+03 0.  0.
          2    1    1    2  501    0 -0.99241857845E+02 -0.10453836834E+01 -0.17984767818E+04  0.18012131395E+04  0.00000000000E+00 0. -1.
          1    1    1    2  502    0 -0.43377621209E+03 -0.17530154228E+03  0.35390495602E+04  0.35698409239E+04  0.00000000000E+00 0. -1.
         22    1    3    3    0    0  0.33546767072E+03  0.10001126399E+03 -0.17792787969E+03  0.39268198506E+03  0.00000000000E+00 0. -1.
         22    1    3    3    0    0  0.19755039921E+03  0.76335661979E+02 -0.22881314712E+03  0.31178317757E+03  0.00000000000E+00 0. -1.
</event>
<event>
 7    1  0.5018917E-005  0.1517594E+04  0.7818608E-02  0.1122088E+00
          2   -1    0    0  502    0  0.00000000000E+00  0.00000000000E+00  0.17669734935E+04  0.17669734935E+04  0.00000000000E+00 0. -1.
          1   -1    0    0  501    0 -0.00000000000E+00 -0.00000000000E+00 -0.29987079834E+04  0.29987079834E+04  0.00000000000E+00 0. -1.
         25    2    1    2    0    0 -0.11893713952E+03  0.15393445458E+04 -0.20667806132E+03  0.15627122926E+04  0.12500485797E+03 0.  0.
          2    1    1    2  501    0  0.11333842998E+03 -0.15028892337E+04 -0.18449187565E+04  0.23822776636E+04  0.00000000000E+00 0. -1.
          1    1    1    2  502    0  0.55987095433E+01 -0.36455312097E+02  0.81986232794E+03  0.82069152067E+03  0.00000000000E+00 0. -1.
         22    1    3    3    0    0 -0.10834734679E+03  0.14942865422E+04 -0.17920935998E+03  0.15088894633E+04  0.00000000000E+00 0.  1.
         22    1    3    3    0    0 -0.10589792736E+02  0.45058003587E+02 -0.27468701334E+02  0.53822829268E+02  0.00000000000E+00 0.  1.
</event>
<event>
 7    1  0.5018917E-005  0.7061467E+02  0.7818608E-02  0.1502833E+00
          2   -1    0    0  502    0  0.00000000000E+00  0.00000000000E+00  0.32311943609E+02  0.32311943609E+02  0.00000000000E+00 0. -1.
          1   -1    0    0  501    0 -0.00000000000E+00 -0.00000000000E+00 -0.91312646821E+03  0.91312646821E+03  0.00000000000E+00 0. -1.
         25    2    1    2    0    0 -0.72864052831E+02  0.14890817024E+02 -0.15955904574E+03  0.21590384238E+03  0.12499789377E+03 0.  0.
          2    1    1    2  501    0  0.64235564096E+01 -0.22609967737E+02 -0.43230156240E+03  0.43294008081E+03  0.00000000000E+00 0. -1.
          1    1    1    2  502    0  0.66440496421E+02  0.77191507135E+01 -0.28895391646E+03  0.29659448864E+03  0.00000000000E+00 0. -1.
         22    1    3    3    0    0  0.28130747722E+02  0.13463208332E+02 -0.84476383211E+02  0.90049188038E+02  0.00000000000E+00 0.  1.
         22    1    3    3    0    0 -0.10099480055E+03  0.14276086917E+01 -0.75082662534E+02  0.12585465434E+03  0.00000000000E+00 0.  1.
</event>
<event>
 7    1  0.5018917E-005  0.4469068E+03  0.7818608E-02  0.1070797E+00
          2   -1    0    0  502    0  0.00000000000E+00  0.00000000000E+00  0.72316591614E+03  0.72316591614E+03  0.00000000000E+00 0. -1.
          1   -1    0    0  501    0 -0.00000000000E+00 -0.00000000000E+00 -0.97248754632E+03  0.97248754632E+03  0.00000000000E+00 0. -1.
         25    2    1    2    0    0 -0.21887604987E+03 -0.50113267364E+03 -0.14787719969E+03  0.58011468922E+03  0.12499881864E+03 0.  0.
          2    1    1    2  501    0 -0.13357602906E+02  0.42367259179E+03 -0.49522502372E+03  0.65186249678E+03  0.00000000000E+00 0. -1.
          1    1    1    2  502    0  0.23223365278E+03  0.77460081854E+02  0.39378059323E+03  0.46367627647E+03  0.00000000000E+00 0. -1.
         22    1    3    3    0    0 -0.14142293029E+03 -0.17126038213E+03 -0.57724556992E+02  0.22948352485E+03  0.00000000000E+00 0. -1.
         22    1    3    3    0    0 -0.77453119584E+02 -0.32987229151E+03 -0.90152642693E+02  0.35063116436E+03  0.00000000000E+00 0. -1.
</event>
<event>
 7    1  0.5018917E-005  0.4468800E+03  0.7818608E-02  0.1168428E+00
          2   -1    0    0  502    0  0.00000000000E+00  0.00000000000E+00  0.14904708116E+04  0.14904708116E+04  0.00000000000E+00 0. -1.
          1   -1    0    0  501    0 -0.00000000000E+00 -0.00000000000E+00 -0.11078255334E+04  0.11078255334E+04  0.00000000000E+00 0. -1.
         25    2    1    2    0    0 -0.47892418574E+03  0.31927545819E+02  0.13024772804E+03  0.51281553363E+03  0.12501022761E+03 0.  0.
          2    1    1    2  501    0  0.43322429053E+03 -0.87545471491E+02 -0.86202894388E+03  0.96873184916E+03  0.00000000000E+00 0. -1.
          1    1    1    2  502    0  0.45699895206E+02  0.55617925671E+02  0.11144264940E+04  0.11167489623E+04  0.00000000000E+00 0. -1.
         22    1    3    3    0    0 -0.86072820629E+02  0.40677230300E+02  0.62988235274E+02  0.11415202713E+03  0.00000000000E+00 0. -1.
         22    1    3    3    0    0 -0.39285136511E+03 -0.87496844806E+01  0.67259492767E+02  0.39866350650E+03  0.00000000000E+00 0. -1.
</event>
<event>
 7    1  0.5018917E-005  0.2584423E+03  0.7818608E-02  0.1129783E+00
          2   -1    0    0  502    0  0.00000000000E+00  0.00000000000E+00  0.20946785309E+04  0.20946785309E+04  0.00000000000E+00 0. -1.
          1   -1    0    0  501    0 -0.00000000000E+00 -0.00000000000E+00 -0.59361991936E+03  0.59361991936E+03  0.00000000000E+00 0. -1.
         25    2    1    2    0    0 -0.40134629083E+03  0.34432676293E+02  0.30931141854E+03  0.52303261606E+03  0.12500043787E+03 0.  0.
          2    1    1    2  501    0  0.22147050140E+03 -0.11455457008E+03 -0.44854814825E+03  0.51319331037E+03  0.00000000000E+00 0. -1.
          1    1    1    2  502    0  0.17987578943E+03  0.80121893783E+02  0.16402953412E+04  0.16520725238E+04  0.00000000000E+00 0. -1.
         22    1    3    3    0    0 -0.38250762026E+03  0.23631603027E+00  0.28543203039E+03  0.47726678009E+03  0.00000000000E+00 0.  1.
         22    1    3    3    0    0 -0.18838670566E+02  0.34196360263E+02  0.23879388150E+02  0.45765835974E+02  0.00000000000E+00 0.  1.
</event>
<event>
 7    1  0.5018917E-005  0.3737859E+03  0.7818608E-02  0.1234805E+00
          2   -1    0    0  502    0  0.00000000000E+00  0.00000000000E+00  0.10733842403E+04  0.10733842403E+04  0.00000000000E+00 0. -1.
          1   -1    0    0  501    0 -0.00000000000E+00 -0.00000000000E+00 -0.10566777413E+04  0.10566777413E+04  0.00000000000E+00 0. -1.
         25    2    1    2    0    0  0.22537344015E+03 -0.33047300036E+03 -0.64913916487E+03  0.77266152631E+03  0.12497434689E+03 0.  0.
          2    1    1    2  501    0  0.90915364163E+01  0.40917203627E+02 -0.31001378483E+03  0.31283449358E+03  0.00000000000E+00 0. -1.
          1    1    1    2  502    0 -0.23446497656E+03  0.28955579673E+03  0.97585944868E+03  0.10445659617E+04  0.00000000000E+00 0. -1.
         22    1    3    3    0    0  0.20022446599E+03 -0.20740355138E+03 -0.50481114690E+03  0.58132638332E+03  0.00000000000E+00 0. -1.
         22    1    3    3    0    0  0.25148974157E+02 -0.12306944897E+03 -0.14432801797E+03  0.19133514299E+03  0.00000000000E+00 0. -1.
</event>
<event>
 7    1  0.5018917E-005  0.4550837E+03  0.7818608E-02  0.1161259E+00
          2   -1    0    0  502    0  0.00000000000E+00  0.00000000000E+00  0.24509547564E+04  0.24509547564E+04  0.00000000000E+00 0. -1.
          1   -1    0    0  501    0 -0.00000000000E+00 -0.00000000000E+00 -0.26966365029E+03  0.26966365029E+03  0.00000000000E+00 0. -1.
         25    2    1    2    0    0 -0.32241048082E+03  0.31264304784E+03  0.40953548779E+03  0.62051445490E+03  0.12499871788E+03 0.  0.
          2    1    1    2  501    0 -0.55119788915E+02 -0.53456571977E+02 -0.12617856262E+03  0.14770519924E+03  0.00000000000E+00 0. -1.
          1    1    1    2  502    0  0.37753026973E+03 -0.25918647586E+03  0.18979341810E+04  0.19523987526E+04  0.00000000000E+00 0. -1.
         22    1    3    3    0    0 -0.11234138183E+03  0.18418475767E+03  0.15003092845E+03  0.26278106956E+03  0.00000000000E+00 0. -1.
         22    1    3    3    0    0 -0.21006909899E+03  0.12845829017E+03  0.25950455935E+03  0.35773338534E+03  0.00000000000E+00 0. -1.
</event>
<event>
 7    1  0.5018917E-005  0.1336923E+04  0.7818608E-02  0.1150020E+00
          2   -1    0    0  502    0  0.00000000000E+00  0.00000000000E+00  0.18322623308E+04  0.18322623308E+04  0.00000000000E+00 0. -1.
          1   -1    0    0  501    0 -0.00000000000E+00 -0.00000000000E+00 -0.25890350554E+04  0.25890350554E+04  0.00000000000E+00 0. -1.
         25    2    1    2    0    0 -0.12718043237E+04  0.46437655152E+03 -0.81977898716E+03  0.15877010547E+04  0.12500092738E+03 0.  0.
          2    1    1    2  501    0  0.27264744416E+02  0.12077560407E+02 -0.10784987313E+04  0.10789109079E+04  0.00000000000E+00 0. -1.
          1    1    1    2  502    0  0.12445395793E+04 -0.47645411192E+03  0.11415049939E+04  0.17546854237E+04  0.00000000000E+00 0. -1.
         22    1    3    3    0    0 -0.10656929449E+04  0.36164693944E+03 -0.72479622088E+03  0.13385886311E+04  0.00000000000E+00 0.  1.
         22    1    3    3    0    0 -0.20611137881E+03  0.10272961208E+03 -0.94982766271E+02  0.24911242354E+03  0.00000000000E+00 0.  1.
</event>
<event>
 7    1  0.5018917E-005  0.6450524E+03  0.7818608E-02  0.1151799E+00
          2   -1    0    0  502    0  0.00000000000E+00  0.00000000000E+00  0.14485495026E+04  0.14485495026E+04  0.00000000000E+00 0. -1.
          1   -1    0    0  501    0 -0.00000000000E+00 -0.00000000000E+00 -0.14259412868E+04  0.14259412868E+04  0.00000000000E+00 0. -1.
         25    2    1    2    0    0  0.55938809409E+03 -0.41612339506E+03  0.33095692109E+03  0.78181424924E+03  0.12500926754E+03 0.  0.
          2    1    1    2  501    0 -0.50693123578E+03  0.38594591806E+03 -0.11147655381E+04  0.12839921084E+04  0.00000000000E+00 0. -1.
          1    1    1    2  502    0 -0.52456858305E+02  0.30177477005E+02  0.80641683280E+03  0.80868443186E+03  0.00000000000E+00 0. -1.
         22    1    3    3    0    0  0.28649869486E+02 -0.16041100391E+02  0.50915179050E+02  0.60584547378E+02  0.00000000000E+00 0. -1.
         22    1    3    3    0    0  0.53073822460E+03 -0.40008229467E+03  0.28004174204E+03  0.72122970186E+03  0.00000000000E+00 0. -1.
</event>
<event>
 7    1  0.5018917E-005  0.4948829E+03  0.7818608E-02  0.1136358E+00
          2   -1    0    0  502    0  0.00000000000E+00  0.00000000000E+00  0.19134529537E+03  0.19134529537E+03  0.00000000000E+00 0. -1.
          1   -1    0    0  501    0 -0.00000000000E+00 -0.00000000000E+00 -0.38089745650E+04  0.38089745650E+04  0.00000000000E+00 0. -1.
         25    2    1    2    0    0 -0.38937390253E+03  0.38726418135E+03 -0.10003951498E+04  0.11480428733E+04  0.12500560388E+03 0.  0.
          2    1    1    2  501    0  0.38063982152E+03 -0.29276712061E+03 -0.26901033455E+04  0.27326279055E+04  0.00000000000E+00 0. -1.
          1    1    1    2  502    0  0.87340810173E+01 -0.94497060745E+02  0.72869225689E+02  0.11964908154E+03  0.00000000000E+00 0. -1.
         22    1    3    3    0    0 -0.34914487505E+02 -0.36715751285E+01 -0.52490878166E+02  0.63148984095E+02  0.00000000000E+00 0.  1.
         22    1    3    3    0    0 -0.35445941503E+03  0.39093575648E+03 -0.94790427164E+03  0.10848938892E+04  0.00000000000E+00 0.  1.
</event>
<event>
 7    1  0.5018917E-005  0.5440056E+03  0.7818608E-02  0.1202684E+00
          2   -1    0    0  502    0  0.00000000000E+00  0.00000000000E+00  0.36273299821E+04  0.36273299821E+04  0.00000000000E+00 0. -1.
          1   -1    0    0  501    0 -0.00000000000E+00 -0.00000000000E+00 -0.90188899678E+02  0.90188899678E+02  0.00000000000E+00 0. -1.
         25    2    1    2    0    0 -0.21332551188E+03 -0.52069989531E+03  0.17694671371E+04  0.18609874192E+04  0.12499628002E+03 0.  0.
          2    1    1    2  501    0  0.21578618457E+03  0.48039357738E+03  0.16600046733E+04  0.17415387397E+04  0.00000000000E+00 0. -1.
          1    1    1    2  502    0 -0.24606726974E+01  0.40306317935E+02  0.10766927199E+03  0.11499272285E+03  0.00000000000E+00 0. -1.
         22    1    3    3    0    0 -0.11335487854E+03 -0.41792979552E+03  0.13355861455E+04  0.14040316928E+04  0.00000000000E+00 0.  1.
         22    1    3    3    0    0 -0.99970633340E+02 -0.10277009979E+03  0.43388099166E+03  0.45695572638E+03  0.00000000000E+00 0.  1.
</event>
<event>
 7    1  0.5018917E-005  0.9574340E+03  0.7818608E-02  0.1138921E+00
          2   -1    0    0  502    0  0.00000000000E+00  0.00000000000E+00  0.33573481657E+04  0.33573481657E+04  0.00000000000E+00 0. -1.
          1   -1    0    0  501    0 -0.00000000000E+00 -0.00000000000E+00 -0.39131750029E+03  0.39131750029E+03  0.00000000000E+00 0. -1.
         25    2    1    2    0    0 -0.59521445482E+03 -0.75029052857E+03  0.77168303745E+03  0.12362586839E+04  0.12499879464E+03 0.  0.
          2    1    1    2  501    0 -0.36477965171E+02  0.30506690812E+02 -0.51985110902E+02  0.70453898989E+02  0.00000000000E+00 0. -1.
          1    1    1    2  502    0  0.63169241999E+03  0.71978383775E+03  0.22463327388E+04  0.24419530831E+04  0.00000000000E+00 0. -1.
         22    1    3    3    0    0 -0.22682182524E+03 -0.26664947586E+03  0.20809504514E+03  0.40725131208E+03  0.00000000000E+00 0. -1.
         22    1    3    3    0    0 -0.36839262958E+03 -0.48364105270E+03  0.56358799231E+03  0.82900737178E+03  0.00000000000E+00 0. -1.
</event>
<event>
 7    1  0.5018917E-005  0.5612474E+03  0.7818608E-02  0.1004855E+00
          2   -1    0    0  502    0  0.00000000000E+00  0.00000000000E+00  0.35259282719E+04  0.35259282719E+04  0.00000000000E+00 0. -1.
          1   -1    0    0  501    0 -0.00000000000E+00 -0.00000000000E+00 -0.12562256093E+04  0.12562256093E+04  0.00000000000E+00 0. -1.
         25    2    1    2    0    0 -0.85716742616E+03 -0.12310854327E+03  0.82011287294E+03  0.11992085662E+04  0.12499740357E+03 0.  0.
          2    1    1    2  501    0  0.40789809287E+03  0.36731653460E+03 -0.96749536622E+03  0.11123621597E+04  0.00000000000E+00 0. -1.
          1    1    1    2  502    0  0.44926933329E+03 -0.24420799133E+03  0.24170851558E+04  0.24705831553E+04  0.00000000000E+00 0. -1.
         22    1    3    3    0    0 -0.80450285743E+03 -0.14297838737E+03  0.74844161559E+03  0.11080760438E+04  0.00000000000E+00 0. -1.
         22    1    3    3    0    0 -0.52664568728E+02  0.19869844102E+02  0.71671257351E+02  0.91132522374E+02  0.00000000000E+00 0. -1.
</event>
<event>
 7    1  0.5018917E-005  0.1480031E+03  0.7818608E-02  0.1275637E+00
          2   -1    0    0  502    0  0.00000000000E+00  0.00000000000E+00  0.31765205029E+04  0.31765205029E+04  0.00000000000E+00 0. -1.
          1   -1    0    0  501    0 -0.00000000000E+00 -0.00000000000E+00 -0.13360332706E+03  0.13360332706E+03  0.00000000000E+00 0. -1.
         25    2    1    2    0    0  0.18863029407E+03 -0.31798447846E+02  0.18414095653E+04  0.18555334127E+04  0.12499011678E+03 0.  0.
          2    1    1    2  501    0 -0.59115075873E+02  0.38669387352E+02 -0.11323726301E+03  0.13346382074E+03  0.00000000000E+00 0. -1.
          1    1    1    2  502    0 -0.12951521820E+03 -0.68709395059E+01  0.13147448736E+04  0.13211265965E+04  0.00000000000E+00 0. -1.
         22    1    3    3    0    0  0.10635382250E+03 -0.22206367994E+02  0.50480393181E+03  0.51636350365E+03  0.00000000000E+00 0. -1.
         22    1    3    3    0    0  0.82276471571E+02 -0.95920798520E+01  0.13366056335E+04  0.13391699091E+04  0.00000000000E+00 0. -1.
</event>
<event>
 7    1  0.5018917E-005  0.1535224E+03  0.7818608E-02  0.1307309E+00
          2   -1    0    0  502    0  0.00000000000E+00  0.00000000000E+00  0.78794515749E+03  0.78794515749E+03  0.00000000000E+00 0. -1.
          1   -1    0    0  501    0 -0.00000000000E+00 -0.00000000000E+00 -0.17752360623E+03  0.17752360623E+03  0.00000000000E+00 0. -1.
         25    2    1    2    0    0  0.18098551474E+03 -0.72139116860E+02 -0.67494999026E+02  0.24112248741E+03  0.12499868125E+03 0.  0.
          2    1    1    2  501    0 -0.33602991430E+02  0.37903303006E+02  0.29729890251E+02  0.58734042821E+02  0.00000000000E+00 0. -1.
          1    1    1    2  502    0 -0.14738252331E+03  0.34235813854E+02  0.64818666003E+03  0.66561223349E+03  0.00000000000E+00 0. -1.
         22    1    3    3    0    0  0.10368035289E+03 -0.10460077270E+03 -0.49450299081E+02  0.15535851861E+03  0.00000000000E+00 0. -1.
         22    1    3    3    0    0  0.77305161846E+02  0.32461655840E+02 -0.18044699945E+02  0.85763968798E+02  0.00000000000E+00 0. -1.
</event>
<event>
 7    1  0.5018917E-005  0.4564265E+03  0.7818608E-02  0.1228404E+00
          2   -1    0    0  502    0  0.00000000000E+00  0.00000000000E+00  0.53316823010E+03  0.53316823010E+03  0.00000000000E+00 0. -1.
          1   -1    0    0  501    0 -0.00000000000E+00 -0.00000000000E+00 -0.30804865537E+04  0.30804865537E+04  0.00000000000E+00 0. -1.
         25    2    1    2    0    0  0.46729549230E+03  0.37381715095E+02 -0.19120940402E+04  0.19726863753E+04  0.12500178711E+03 0.  0.
          2    1    1    2  501    0 -0.43919925878E+03 -0.13825082640E+02 -0.10949247098E+04  0.11798081378E+04  0.00000000000E+00 0. -1.
          1    1    1    2  502    0 -0.28096233519E+02 -0.23556632454E+02  0.45970042642E+03  0.46116027076E+03  0.00000000000E+00 0. -1.
         22    1    3    3    0    0  0.14066502407E+03  0.69615673778E+02 -0.61605727465E+03  0.63573544552E+03  0.00000000000E+00 0.  1.
         22    1    3    3    0    0  0.32663046823E+03 -0.32233958683E+02 -0.12960367656E+04  0.13369509298E+04  0.00000000000E+00 0.  1.
</event>
<event>
 7    1  0.5018917E-005  0.5041957E+03  0.7818608E-02  0.1183978E+00
          2   -1    0    0  502    0  0.00000000000E+00  0.00000000000E+00  0.21330750836E+04  0.21330750836E+04  0.00000000000E+00 0. -1.
          1   -1    0    0  501    0 -0.00000000000E+00 -0.00000000000E+00 -0.25784848421E+04  0.25784848421E+04  0.00000000000E+00 0. -1.
         25    2    1    2    0    0  0.31972022616E+03  0.32898107683E+03 -0.11150239551E+03  0.48837223558E+03  0.12500033742E+03 0.  0.
          2    1    1    2  501    0 -0.34785212639E+03 -0.37449779910E+03 -0.22495051715E+04  0.23068426951E+04  0.00000000000E+00 0. -1.
          1    1    1    2  502    0  0.28131900234E+02  0.45516722268E+02  0.19155978085E+04  0.19163449950E+04  0.00000000000E+00 0. -1.
         22    1    3    3    0    0  0.18873522984E+03  0.26994031401E+03 -0.54761267853E+02  0.33389752405E+03  0.00000000000E+00 0. -1.
         22    1    3    3    0    0  0.13098499631E+03  0.59040762820E+02 -0.56741127655E+02  0.15447471153E+03  0.00000000000E+00 0. -1.
</event>
<event>
 7    1  0.5018917E-005  0.3906829E+03  0.7818608E-02  0.1155801E+00
          2   -1    0    0  502    0  0.00000000000E+00  0.00000000000E+00  0.18059124541E+04  0.18059124541E+04  0.00000000000E+00 0. -1.
          1   -1    0    0  501    0 -0.00000000000E+00 -0.00000000000E+00 -0.35048073374E+03  0.35048073374E+03  0.00000000000E+00 0. -1.
         25    2    1    2    0    0 -0.35920827429E+03  0.15721928446E+03  0.19464900437E+03  0.45526244982E+03  0.12500870206E+03 0.  0.
          2    1    1    2  501    0  0.38835332372E+03 -0.66460639625E+02 -0.40760110307E+02  0.39610188999E+03  0.00000000000E+00 0. -1.
          1    1    1    2  502    0 -0.29145049432E+02 -0.90758644839E+02  0.13015428263E+04  0.13050288480E+04  0.00000000000E+00 0. -1.
         22    1    3    3    0    0 -0.68934189809E+02  0.94360170606E+01 -0.10425893851E+02  0.70353821540E+02  0.00000000000E+00 0.  1.
         22    1    3    3    0    0 -0.29027408448E+03  0.14778326740E+03  0.20507489822E+03  0.38490862828E+03  0.00000000000E+00 0.  1.
</event>
<event>
 7    1  0.5018917E-005  0.1064479E+04  0.7818608E-02  0.1045368E+00
          2   -1    0    0  502    0  0.00000000000E+00  0.00000000000E+00  0.24203615844E+04  0.24203615844E+04  0.00000000000E+00 0. -1.
          1   -1    0    0  501    0 -0.00000000000E+00 -0.00000000000E+00 -0.18672498235E+04  0.18672498235E+04  0.00000000000E+00 0. -1.
         25    2    1    2    0    0 -0.12777947669E+03  0.10365090786E+04  0.87325360059E+03  0.13670682564E+04  0.12500040885E+03 0.  0.
          2    1    1    2  501    0 -0.14603589550E+03  0.15966983553E+02 -0.13883839392E+04  0.13961344455E+04  0.00000000000E+00 0. -1.
          1    1    1    2  502    0  0.27381537219E+03 -0.10524760621E+04  0.10682420995E+04  0.15244087059E+04  0.00000000000E+00 0. -1.
         22    1    3    3    0    0 -0.27410952962E+02  0.14237506298E+03  0.70311028749E+02  0.16113863492E+03  0.00000000000E+00 0.  1.
         22    1    3    3    0    0 -0.10036852372E+03  0.89413401560E+03  0.80294257184E+03  0.12059296215E+04  0.00000000000E+00 0.  1.
</event>
<event>
 7    1  0.5018917E-005  0.1701312E+04  0.7818608E-02  0.1091004E+00
          2   -1    0    0  502    0  0.00000000000E+00  0.00000000000E+00  0.22712582003E+04  0.22712582003E+04  0.00000000000E+00 0. -1.
          1   -1    0    0  501    0 -0.00000000000E+00 -0.00000000000E+00 -0.22018926384E+04  0.22018926384E+04  0.00000000000E+00 0. -1.
         25    2    1    2    0    0 -0.14551260593E+04  0.91865478027E+03 -0.80776025012E+03  0.19051038534E+04  0.12500246661E+03 0.  0.
          2    1    1    2  501    0  0.14129922769E+04 -0.89362665235E+03 -0.17627200924E+02  0.16719528961E+04  0.00000000000E+00 0. -1.
          1    1    1    2  502    0  0.42133782414E+02 -0.25028127917E+02  0.89475301294E+03  0.89609408935E+03  0.00000000000E+00 0. -1.
         22    1    3    3    0    0 -0.73121638947E+03  0.52696411927E+03 -0.39005468060E+03  0.98209533401E+03  0.00000000000E+00 0.  1.
         22    1    3    3    0    0 -0.72390966986E+03  0.39169066099E+03 -0.41770556951E+03  0.92300851937E+03  0.00000000000E+00 0.  1.
</event>
<event>
 7    1  0.5018917E-005  0.1189863E+04  0.7818608E-02  0.1128679E+00
          2   -1    0    0  502    0  0.00000000000E+00  0.00000000000E+00  0.17448372898E+04  0.17448372898E+04  0.00000000000E+00 0. -1.
          1   -1    0    0  501    0 -0.00000000000E+00 -0.00000000000E+00 -0.16914816184E+04  0.16914816184E+04  0.00000000000E+00 0. -1.
         25    2    1    2    0    0 -0.11740327586E+04  0.30510345426E+03 -0.46110192072E+02  0.12203215857E+04  0.12497034374E+03 0.  0.
          2    1    1    2  501    0  0.39901126724E+02  0.16957613161E+02 -0.75733377744E+03  0.75857373472E+03  0.00000000000E+00 0. -1.
          1    1    1    2  502    0  0.11341316318E+04 -0.32206106743E+03  0.85679964089E+03  0.14574235877E+04  0.00000000000E+00 0. -1.
         22    1    3    3    0    0 -0.18708531474E+03  0.47277763682E+02  0.38429816155E+02  0.19675607411E+03  0.00000000000E+00 0.  1.
         22    1    3    3    0    0 -0.98694744382E+03  0.25782569058E+03 -0.84540008227E+02  0.10235655116E+04  0.00000000000E+00 0.  1.
</event>
<event>
 7    1  0.5018917E-005  0.1000379E+04  0.7818608E-02  0.1034663E+00
          2   -1    0    0  502    0  0.00000000000E+00  0.00000000000E+00  0.18580492741E+04  0.18580492741E+04  0.00000000000E+00 0. -1.
          1   -1    0    0  501    0 -0.00000000000E+00 -0.00000000000E+00 -0.17336293384E+04  0.17336293384E+04  0.00000000000E+00 0. -1.
         25    2    1    2    0    0 -0.61320455453E+03 -0.72687878013E+03 -0.79645754500E+03  0.12467325587E+04  0.12499946125E+03 0.  0.
          2    1    1    2  501    0  0.61512246158E+03  0.90952691619E+03 -0.27766160519E+03  0.11325682412E+04  0.00000000000E+00 0. -1.
          1    1    1    2  502    0 -0.19179070557E+01 -0.18264813606E+03  0.11985390859E+04  0.12123778126E+04  0.00000000000E+00 0. -1.
         22    1    3    3    0    0 -0.36095763817E+01 -0.49776796409E+01  0.48612731276E+01  0.78382595443E+01  0.00000000000E+00 0.  1.
         22    1    3    3    0    0 -0.60959497814E+03 -0.72190110049E+03 -0.80131881812E+03  0.12388942992E+04  0.00000000000E+00 0.  1.
</event>
<event>
 7    1  0.5018917E-005  0.1552465E+04  0.7818608E-02  0.1087077E+00
          2   -1    0    0  502    0  0.00000000000E+00  0.00000000000E+00  0.35382585851E+04  0.35382585851E+04  0.00000000000E+00 0. -1.
          1   -1    0    0  501    0 -0.00000000000E+00 -0.00000000000E+00 -0.24649210149E+04  0.24649210149E+04  0.00000000000E+00 0. -1.
         25    2    1    2    0    0 -0.14535368854E+04  0.55790669166E+03  0.22037920073E+04  0.27011763857E+04  0.12500120399E+03 0.  0.
          2    1    1    2  501    0 -0.59408893419E+01 -0.56259125541E+02 -0.16671132865E+04  0.16680728681E+04  0.00000000000E+00 0. -1.
          1    1    1    2  502    0  0.14594777747E+04 -0.50164756612E+03  0.53665884937E+03  0.16339303462E+04  0.00000000000E+00 0. -1.
         22    1    3    3    0    0 -0.72608715508E+03  0.22130212589E+03  0.10163709932E+04  0.12685374191E+04  0.00000000000E+00 0. -1.
         22    1    3    3    0    0 -0.72744973031E+03  0.33660456577E+03  0.11874210141E+04  0.14326389666E+04  0.00000000000E+00 0. -1.
</event>
<event>
 7    1  0.5018917E-005  0.8136640E+03  0.7818608E-02  0.1108781E+00
          2   -1    0    0  502    0  0.00000000000E+00  0.00000000000E+00  0.15101870248E+04  0.15101870248E+04  0.00000000000E+00 0. -1.
          1   -1    0    0  501    0 -0.00000000000E+00 -0.00000000000E+00 -0.16628662569E+04  0.16628662569E+04  0.00000000000E+00 0. -1.
         25    2    1    2    0    0  0.62673807154E+03 -0.48544408744E+03 -0.76365040130E+03  0.11078112465E+04  0.12500900000E+03 0.  0.
          2    1    1    2  501    0 -0.70549211818E+03  0.46502068800E+03 -0.47963635110E+03  0.97160403374E+03  0.00000000000E+00 0. -1.
          1    1    1    2  502    0  0.78754046643E+02  0.20423399436E+02  0.10906075202E+04  0.10936380015E+04  0.00000000000E+00 0. -1.
         22    1    3    3    0    0  0.35120942096E+03 -0.25345359538E+03 -0.49961600956E+03  0.66121323292E+03  0.00000000000E+00 0. -1.
         22    1    3    3    0    0  0.27552865058E+03 -0.23199049206E+03 -0.26403439174E+03  0.44659801356E+03  0.00000000000E+00 0. -1.
</event>
<event>
 7    1  0.5018917E-005  0.8183687E+03  0.7818608E-02  0.1127282E+00
          2   -1    0    0  502    0  0.00000000000E+00  0.00000000000E+00  0.11588265822E+04  0.11588265822E+04  0.00000000000E+00 0. -1.
          1   -1    0    0  501    0 -0.00000000000E+00 -0.00000000000E+00 -0.11751750902E+04  0.11751750902E+04  0.00000000000E+00 0. -1.
         25    2    1    2    0    0 -0.21123715508E+03 -0.78225386616E+03 -0.68863038162E+03  0.10706873223E+04  0.12496916718E+03 0.  0.
          2    1    1    2  501    0  0.16721842470E+03  0.82889067219E+03  0.31821013971E+03  0.90348184322E+03  0.00000000000E+00 0. -1.
          1    1    1    2  502    0  0.44018730375E+02 -0.46636806031E+02  0.35407173394E+03  0.35983250698E+03  0.00000000000E+00 0. -1.
         22    1    3    3    0    0 -0.46426514524E+02 -0.24882743041E+03 -0.28851284976E+03  0.38381007785E+03  0.00000000000E+00 0.  1.
         22    1    3    3    0    0 -0.16481064055E+03 -0.53342643575E+03 -0.40011753186E+03  0.68687724442E+03  0.00000000000E+00 0.  1.
</event>
<event>
 7    1  0.5018917E-005  0.4596511E+03  0.7818608E-02  0.1169201E+00
          2   -1    0    0  502    0  0.00000000000E+00  0.00000000000E+00  0.12775241911E+04  0.12775241911E+04  0.00000000000E+00 0. -1.
          1   -1    0    0  501    0 -0.00000000000E+00 -0.00000000000E+00 -0.71796729656E+03  0.71796729656E+03  0.00000000000E+00 0. -1.
         25    2    1    2    0    0  0.23044272686E+03 -0.35717275978E+03  0.40498733156E+03  0.60026092455E+03  0.12498883200E+03 0.  0.
          2    1    1    2  501    0  0.60660705962E+02 -0.33647274023E+02 -0.54128081976E+03  0.54570760132E+03  0.00000000000E+00 0. -1.
          1    1    1    2  502    0 -0.29110343282E+03  0.39082003381E+03  0.69585038272E+03  0.84952296176E+03  0.00000000000E+00 0. -1.
         22    1    3    3    0    0  0.53097670258E+02 -0.31807876112E+02  0.11161745689E+03  0.12763056159E+03  0.00000000000E+00 0.  1.
         22    1    3    3    0    0  0.17734505660E+03 -0.32536488367E+03  0.29336987467E+03  0.47263036296E+03  0.00000000000E+00 0.  1.
</event>
<event>
 7    1  0.5018917E-005  0.2812837E+03  0.7818608E-02  0.1198287E+00
          2   -1    0    0  502    0  0.00000000000E+00  0.00000000000E+00  0.11332578619E+04  0.11332578619E+04  0.00000000000E+00 0. -1.
          1   -1    0    0  501    0 -0.00000000000E+00 -0.00000000000E+00 -0.19177084776E+04  0.19177084776E+04  0.00000000000E+00 0. -1.
         25    2    1    2    0    0 -0.31692020796E+03 -0.15227834949E+03 -0.11253529996E+03  0.38977619366E+03  0.12503668848E+03 0.  0.
          2    1    1    2  501    0  0.23551232389E+03  0.14318519898E+03 -0.16534389711E+04  0.16762543027E+04  0.00000000000E+00 0. -1.
          1    1    1    2  502    0  0.81407884073E+02  0.90931505047E+01  0.98152365547E+03  0.98493584320E+03  0.00000000000E+00 0. -1.
         22    1    3    3    0    0 -0.69864520457E+02  0.66678506119E+01  0.11092835900E+02  0.71053236793E+02  0.00000000000E+00 0. -1.
         22    1    3    3    0    0 -0.24705568750E+03 -0.15894620010E+03 -0.12362813586E+03  0.31872295686E+03  0.00000000000E+00 0. -1.
</event>
<event>
 7    1  0.5018917E-005  0.3286137E+03  0.7818608E-02  0.1134902E+00
          2   -1    0    0  502    0  0.00000000000E+00  0.00000000000E+00  0.18067260724E+04  0.18067260724E+04  0.00000000000E+00 0. -1.
          1   -1    0    0  501    0 -0.00000000000E+00 -0.00000000000E+00 -0.14583933917E+04  0.14583933917E+04  0.00000000000E+00 0. -1.
         25    2    1    2    0    0 -0.26067950370E+03  0.38484827539E+03 -0.95902184085E+03  0.10730372812E+04  0.12499646762E+03 0.  0.
          2    1    1    2  501    0  0.11017017477E+03 -0.94992968634E+02 -0.41462523495E+03  0.43940325096E+03  0.00000000000E+00 0. -1.
          1    1    1    2  502    0  0.15050932893E+03 -0.28985530675E+03  0.17219797564E+04  0.17526789320E+04  0.00000000000E+00 0. -1.
         22    1    3    3    0    0 -0.80455452065E+02  0.18214377931E+03 -0.52195646996E+03  0.55864836225E+03  0.00000000000E+00 0.  1.
         22    1    3    3    0    0 -0.18022405164E+03  0.20270449608E+03 -0.43706537089E+03  0.51438891896E+03  0.00000000000E+00 0.  1.
</event>
<event>
 7    1  0.5018917E-005  0.6172127E+03  0.7818608E-02  0.1210914E+00
          2   -1    0    0  502    0  0.00000000000E+00  0.00000000000E+00  0.38342106410E+04  0.38342106410E+04  0.00000000000E+00 0. -1.
          1   -1    0    0  501    0 -0.00000000000E+00 -0.00000000000E+00 -0.51430902413E+03  0.51430902413E+03  0.00000000000E+00 0. -1.
         25    2    1    2    0    0  0.13801676515E+03  0.59635564135E+03  0.12516959034E+03  0.63716656820E+03  0.12500052340E+03 0.  0.
          2    1    1    2  501    0  0.32485690678E+02 -0.25036435567E+01 -0.22951343078E+03  0.23181458806E+03  0.00000000000E+00 0. -1.
          1    1    1    2  502    0 -0.17050245583E+03 -0.59385199780E+03  0.34242454573E+04  0.34795385089E+04  0.00000000000E+00 0. -1.
         22    1    3    3    0    0  0.12373120327E+03  0.37388216753E+03  0.12835282864E+03  0.41421218533E+03  0.00000000000E+00 0.  1.
         22    1    3    3    0    0  0.14285561886E+02  0.22247347382E+03 -0.31832383035E+01  0.22295438287E+03  0.00000000000E+00 0.  1.
</event>
<event>
 7    1  0.5018917E-005  0.3361832E+03  0.7818608E-02  0.1258591E+00
          2   -1    0    0  502    0  0.00000000000E+00  0.00000000000E+00  0.15926518204E+04  0.15926518204E+04  0.00000000000E+00 0. -1.
          1   -1    0    0  501    0 -0.00000000000E+00 -0.00000000000E+00 -0.56155550231E+03  0.56155550231E+03  0.00000000000E+00 0. -1.
         25    2    1    2    0    0  0.99914522972E+02 -0.31980076401E+03  0.34209518844E+03  0.49488110468E+03  0.12499099668E+03 0.  0.
          2    1    1    2  501    0  0.35022109596E+02  0.10968751445E+02 -0.46023277151E+03  0.46169369244E+03  0.00000000000E+00 0. -1.
          1    1    1    2  502    0 -0.13493663257E+03  0.30883201257E+03  0.11492339012E+04  0.11976325256E+04  0.00000000000E+00 0. -1.
         22    1    3    3    0    0  0.54706900848E+02 -0.36427306490E+02  0.98815969197E+02  0.11867767030E+03  0.00000000000E+00 0. -1.
         22    1    3    3    0    0  0.45207622124E+02 -0.28337345752E+03  0.24327921925E+03  0.37620343438E+03  0.00000000000E+00 0. -1.
</event>
<event>
 7    1  0.5018917E-005  0.7097271E+03  0.7818608E-02  0.1141552E+00
          2   -1    0    0  502    0  0.00000000000E+00  0.00000000000E+00  0.12772180229E+04  0.12772180229E+04  0.00000000000E+00 0. -1.
          1   -1    0    0  501    0 -0.00000000000E+00 -0.00000000000E+00 -0.18725208122E+04  0.18725208122E+04  0.00000000000E+00 0. -1.
         25    2    1    2    0    0 -0.11055928449E+03  0.70933341847E+03 -0.16365220683E+03  0.74684747868E+03  0.12498743002E+03 0.  0.
          2    1    1    2  501    0  0.48490975128E+02 -0.70620231140E+03 -0.13277405974E+04  0.15046488538E+04  0.00000000000E+00 0. -1.
          1    1    1    2  502    0  0.62068309366E+02 -0.31311070689E+01  0.89609001486E+03  0.89824250266E+03  0.00000000000E+00 0. -1.
         22    1    3    3    0    0 -0.34562764968E+02  0.37901290592E+03 -0.27511826014E+02  0.38157865264E+03  0.00000000000E+00 0.  1.
         22    1    3    3    0    0 -0.75996519526E+02  0.33032051254E+03 -0.13614038081E+03  0.36526882604E+03  0.00000000000E+00 0.  1.
</event>
<event>
 7    1  0.5018917E-005  0.1747401E+03  0.7818608E-02  0.1219131E+00
          2   -1    0    0  502    0  0.00000000000E+00  0.00000000000E+00  0.26237716125E+04  0.26237716125E+04  0.00000000000E+00 0. -1.
          1   -1    0    0  501    0 -0.00000000000E+00 -0.00000000000E+00 -0.19742374232E+03  0.19742374232E+03  0.00000000000E+00 0. -1.
         25    2    1    2    0    0 -0.20266222955E+03  0.14734334203E+03 -0.12231396923E+02  0.28027884047E+03  0.12499832648E+03 0.  0.
          2    1    1    2  501    0  0.10543190069E+03 -0.37155717151E+01  0.97993258142E+01  0.10595148863E+03  0.00000000000E+00 0. -1.
          1    1    1    2  502    0  0.97230328859E+02 -0.14362777031E+03  0.24287799413E+04  0.24349650258E+04  0.00000000000E+00 0. -1.
         22    1    3    3    0    0  0.13227217857E+02  0.33006973386E+02 -0.46775590054E+01  0.35865012792E+02  0.00000000000E+00 0.  1.
         22    1    3    3    0    0 -0.21588944740E+03  0.11433636864E+03 -0.75538379174E+01  0.24441382768E+03  0.00000000000E+00 0.  1.
</event>
<event>
 7    1  0.5018917E-005  0.1758133E+03  0.7818608E-02  0.1275916E+00
          2   -1    0    0  502    0  0.00000000000E+00  0.00000000000E+00  0.72149214048E+03  0.72149214048E+03  0.00000000000E+00 0. -1.
          1   -1    0    0  501    0 -0.00000000000E+00 -0.00000000000E+00 -0.10293438910E+04  0.10293438910E+04  0.00000000000E+00 0. -1.
         25    2    1    2    0    0  0.13961148232E+03 -0.15272995861E+03 -0.12921472051E+02  0.24209552039E+03  0.12500188119E+03 0.  0.
          2    1    1    2  501    0 -0.59299027029E+02 -0.93743450366E+00 -0.88844252052E+03  0.89041976936E+03  0.00000000000E+00 0. -1.
          1    1    1    2  502    0 -0.80312455291E+02  0.15366739311E+03  0.59351224206E+03  0.61832074173E+03  0.00000000000E+00 0. -1.
         22    1    3    3    0    0  0.59055013600E+02 -0.12269683360E+03 -0.54407841607E+02  0.14663635577E+03  0.00000000000E+00 0. -1.
         22    1    3    3    0    0  0.80556468720E+02 -0.30033125011E+02  0.41486369556E+02  0.95459164618E+02  0.00000000000E+00 0. -1.
</event>
<event>
 7    1  0.5018917E-005  0.8576428E+03  0.7818608E-02  0.1179033E+00
          2   -1    0    0  502    0  0.00000000000E+00  0.00000000000E+00  0.88765376977E+03  0.88765376977E+03  0.00000000000E+00 0. -1.
          1   -1    0    0  501    0 -0.00000000000E+00 -0.00000000000E+00 -0.13141738404E+04  0.13141738404E+04  0.00000000000E+00 0. -1.
         25    2    1    2    0    0  0.30931921308E+01 -0.85136244142E+03 -0.11383854310E+03  0.86799297115E+03  0.12500003827E+03 0.  0.
          2    1    1    2  501    0 -0.31474950694E+02 -0.10718718155E+02 -0.45793586504E+03  0.45914139427E+03  0.00000000000E+00 0. -1.
          1    1    1    2  502    0  0.28381758563E+02  0.86208115958E+03  0.14525433748E+03  0.87469324479E+03  0.00000000000E+00 0. -1.
         22    1    3    3    0    0  0.24401880646E+02 -0.59157198717E+03 -0.24984350731E+02  0.59260196217E+03  0.00000000000E+00 0. -1.
         22    1    3    3    0    0 -0.21308688515E+02 -0.25979045425E+03 -0.88854192368E+02  0.27539100898E+03  0.00000000000E+00 0. -1.
</event>
<event>
 7    1  0.5018917E-005  0.3109899E+03  0.7818608E-02  0.1231539E+00
          2   -1    0    0  502    0  0.00000000000E+00  0.00000000000E+00  0.15488597579E+03  0.15488597579E+03  0.00000000000E+00 0. -1.
          1   -1    0    0  501    0 -0.00000000000E+00 -0.00000000000E+00 -0.27987642497E+04  0.27987642497E+04  0.00000000000E+00 0. -1.
         25    2    1    2    0    0 -0.12748415298E+03 -0.26769810398E+03 -0.83295159262E+03  0.89294408380E+03  0.12500518796E+03 0.  0.
          2    1    1    2  501    0 -0.51420148475E+02  0.83724254366E+01 -0.17361136844E+04  0.17368951765E+04  0.00000000000E+00 0. -1.
          1    1    1    2  502    0  0.17890430145E+03  0.25932567854E+03 -0.74812996866E+02  0.32381096511E+03  0.00000000000E+00 0. -1.
         22    1    3    3    0    0  0.23483356077E+02 -0.63357234887E+02 -0.18626410900E+03  0.19814117575E+03  0.00000000000E+00 0.  1.
         22    1    3    3    0    0 -0.15096750905E+03 -0.20434086909E+03 -0.64668748362E+03  0.69480290806E+03  0.00000000000E+00 0.  1.
</event>
<event>
 7    1  0.5018917E-005  0.7683725E+02  0.7818608E-02  0.1339526E+00
          2   -1    0    0  502    0  0.00000000000E+00  0.00000000000E+00  0.44555591162E+03  0.44555591162E+03  0.00000000000E+00 0. -1.
          1   -1    0    0  501    0 -0.00000000000E+00 -0.00000000000E+00 -0.11449085196E+03  0.11449085196E+03  0.00000000000E+00 0. -1.
         25    2    1    2    0    0  0.11946375399E+02  0.24457848990E+02  0.10111832807E+03  0.16306685712E+03  0.12499992542E+03 0.  0.
          2    1    1    2  501    0 -0.86949820154E+02 -0.77711263889E+01 -0.54115525117E+02  0.10270906332E+03  0.00000000000E+00 0. -1.
          1    1    1    2  502    0  0.75003444755E+02 -0.16686722601E+02  0.28406225671E+03  0.29427084314E+03  0.00000000000E+00 0. -1.
         22    1    3    3    0    0 -0.47511229821E+02 -0.21657114134E+02  0.34623173180E+02  0.62650711670E+02  0.00000000000E+00 0.  1.
         22    1    3    3    0    0  0.59457605220E+02  0.46114963124E+02  0.66495154890E+02  0.10041614545E+03  0.00000000000E+00 0.  1.
</event>
<event>
 7    1  0.5018917E-005  0.4470919E+03  0.7818608E-02  0.1179993E+00
          2   -1    0    0  502    0  0.00000000000E+00  0.00000000000E+00  0.97716105813E+03  0.97716105813E+03  0.00000000000E+00 0. -1.
          1   -1    0    0  501    0 -0.00000000000E+00 -0.00000000000E+00 -0.42042416337E+03  0.42042416337E+03  0.00000000000E+00 0. -1.
         25    2    1    2    0    0  0.24485135478E+03  0.42393027003E+03  0.22138065717E+03  0.55163664145E+03  0.12499811610E+03 0.  0.
          2    1    1    2  501    0 -0.22191924097E+03 -0.36514805171E+03 -0.72360030582E+02  0.43337884490E+03  0.00000000000E+00 0. -1.
          1    1    1    2  502    0 -0.22932113818E+02 -0.58782218320E+02  0.40771626817E+03  0.41256973516E+03  0.00000000000E+00 0. -1.
         22    1    3    3    0    0  0.59255994231E+01  0.30420702135E+02 -0.14662668390E+02  0.34285940139E+02  0.00000000000E+00 0. -1.
         22    1    3    3    0    0  0.23892575536E+03  0.39350956790E+03  0.23604332556E+03  0.51735070131E+03  0.00000000000E+00 0. -1.
</event>
<event>
 7    1  0.5018917E-005  0.1269917E+04  0.7818608E-02  0.1031212E+00
          2   -1    0    0  502    0  0.00000000000E+00  0.00000000000E+00  0.25415663963E+04  0.25415663963E+04  0.00000000000E+00 0. -1.
          1   -1    0    0  501    0 -0.00000000000E+00 -0.00000000000E+00 -0.94857490416E+03  0.94857490416E+03  0.00000000000E+00 0. -1.
         25    2    1    2    0    0  0.86048473760E+03 -0.84573233399E+03  0.36401430649E+03  0.12664236289E+04  0.12500091209E+03 0.  0.
          2    1    1    2  501    0  0.15040645901E+03  0.17350211322E+02 -0.22339950173E+03  0.26987121024E+03  0.00000000000E+00 0. -1.
          1    1    1    2  502    0 -0.10108911966E+04  0.82838212267E+03  0.14523766874E+04  0.19538464614E+04  0.00000000000E+00 0. -1.
         22    1    3    3    0    0  0.56854776191E+03 -0.61195252627E+03  0.20548501856E+03  0.86020726853E+03  0.00000000000E+00 0.  1.
         22    1    3    3    0    0  0.29193697569E+03 -0.23377980772E+03  0.15852928793E+03  0.40621636034E+03  0.00000000000E+00 0.  1.
</event>
<event>
 7    1  0.5018917E-005  0.9674272E+03  0.7818608E-02  0.1201272E+00
          2   -1    0    0  502    0  0.00000000000E+00  0.00000000000E+00  0.74988183873E+03  0.74988183873E+03  0.00000000000E+00 0. -1.
          1   -1    0    0  501    0 -0.00000000000E+00 -0.00000000000E+00 -0.22479343873E+04  0.22479343873E+04  0.00000000000E+00 0. -1.
         25    2    1    2    0    0  0.92889846808E+03 -0.30345630864E+03 -0.27434920620E+03  0.10226589011E+04  0.12500258282E+03 0.  0.
          2    1    1    2  501    0 -0.14069678346E+02  0.18266538241E+02 -0.98809826311E+03  0.98836723935E+03  0.00000000000E+00 0. -1.
          1    1    1    2  502    0 -0.91482878973E+03  0.28518977040E+03 -0.23560507923E+03  0.98679008559E+03  0.00000000000E+00 0. -1.
         22    1    3    3    0    0  0.75196050315E+03 -0.19376644235E+03 -0.22913981383E+03  0.80962651066E+03  0.00000000000E+00 0. -1.
         22    1    3    3    0    0  0.17693796493E+03 -0.10968986629E+03 -0.45209392366E+02  0.21303239040E+03  0.00000000000E+00 0. -1.
</event>
<event>
 7    1  0.5018917E-005  0.6643146E+03  0.7818608E-02  0.1243372E+00
          2   -1    0    0  502    0  0.00000000000E+00  0.00000000000E+00  0.43245440668E+03  0.43245440668E+03  0.00000000000E+00 0. -1.
          1   -1    0    0  501    0 -0.00000000000E+00 -0.00000000000E+00 -0.15836459122E+04  0.15836459122E+04  0.00000000000E+00 0. -1.
         25    2    1    2    0    0  0.54406653235E+03  0.39795971016E+03 -0.39398588068E+03  0.79071523977E+03  0.12500157479E+03 0.  0.
          2    1    1    2  501    0 -0.21616253880E+02  0.26288892315E-01 -0.52997671139E+03  0.53041736183E+03  0.00000000000E+00 0. -1.
          1    1    1    2  502    0 -0.52245027847E+03 -0.39798599905E+03 -0.22722891343E+03  0.69496771725E+03  0.00000000000E+00 0. -1.
         22    1    3    3    0    0  0.52113135244E+03  0.40502299432E+03 -0.38926755867E+03  0.76625762290E+03  0.00000000000E+00 0.  1.
         22    1    3    3    0    0  0.22935179909E+02 -0.70632841558E+01 -0.47183220128E+01  0.24457616873E+02  0.00000000000E+00 0.  1.
</event>
<event>
 7    1  0.5018917E-005  0.4120707E+02  0.7818608E-02  0.1577520E+00
          2   -1    0    0  502    0  0.00000000000E+00  0.00000000000E+00  0.15270964651E+03  0.15270964651E+03  0.00000000000E+00 0. -1.
          1   -1    0    0  501    0 -0.00000000000E+00 -0.00000000000E+00 -0.10292941306E+04  0.10292941306E+04  0.00000000000E+00 0. -1.
         25    2    1    2    0    0 -0.21190246181E+02 -0.59019142102E+02 -0.27849946398E+03  0.31164009856E+03  0.12500125570E+03 0.  0.
          2    1    1    2  501    0  0.16729006440E+02  0.18262910468E+02 -0.73092298381E+03  0.73134246548E+03  0.00000000000E+00 0. -1.
          1    1    1    2  502    0  0.44612397413E+01  0.40756231634E+02  0.13283796371E+03  0.13902121306E+03  0.00000000000E+00 0. -1.
         22    1    3    3    0    0 -0.29788721694E+02  0.25631187029E+02 -0.16599805206E+03  0.17058628015E+03  0.00000000000E+00 0.  1.
         22    1    3    3    0    0  0.85984755127E+01 -0.84650329132E+02 -0.11250141192E+03  0.14105381841E+03  0.00000000000E+00 0.  1.
</event>
<event>
 7    1  0.5018917E-005  0.2743343E+03  0.7818608E-02  0.1326135E+00
          2   -1    0    0  502    0  0.00000000000E+00  0.00000000000E+00  0.38719269183E+03  0.38719269183E+03  0.00000000000E+00 0. -1.
          1   -1    0    0  501    0 -0.00000000000E+00 -0.00000000000E+00 -0.10179458635E+04  0.10179458635E+04  0.00000000000E+00 0. -1.
         25    2    1    2    0    0  0.28986310096E+03 -0.40049067187E+02 -0.21856910642E+03  0.38603355372E+03  0.12499962093E+03 0.  0.
          2    1    1    2  501    0 -0.26662168282E+03  0.34317551244E+02 -0.68986676020E+03  0.74039243844E+03  0.00000000000E+00 0. -1.
          1    1    1    2  502    0 -0.23241418139E+02  0.57315159430E+01  0.27768269496E+03  0.27871256317E+03  0.00000000000E+00 0. -1.
         22    1    3    3    0    0  0.10276579004E+03 -0.60057355814E+02 -0.37240089119E+02  0.12471775265E+03  0.00000000000E+00 0. -1.
         22    1    3    3    0    0  0.18709731092E+03  0.20008288627E+02 -0.18132901731E+03  0.26131580106E+03  0.00000000000E+00 0. -1.
</event>
<event>
 7    1  0.5018917E-005  0.1468655E+03  0.7818608E-02  0.1268662E+00
          2   -1    0    0  502    0  0.00000000000E+00  0.00000000000E+00  0.28984522339E+04  0.28984522339E+04  0.00000000000E+00 0. -1.
          1   -1    0    0  501    0 -0.00000000000E+00 -0.00000000000E+00 -0.15570328433E+04  0.15570328433E+04  0.00000000000E+00 0. -1.
         25    2    1    2    0    0 -0.14994281478E+03  0.10378674137E+02 -0.14459074172E+04  0.14590620838E+04  0.12499336238E+03 0.  0.
          2    1    1    2  501    0  0.12498328963E+03  0.61548916988E+02 -0.57399687934E+02  0.15067785518E+03  0.00000000000E+00 0. -1.
          1    1    1    2  502    0  0.24959525151E+02 -0.71927591125E+02  0.28447264957E+04  0.28457451382E+04  0.00000000000E+00 0. -1.
         22    1    3    3    0    0 -0.51600441915E+01 -0.22420732345E+02 -0.47303098883E+02  0.52601316132E+02  0.00000000000E+00 0. -1.
         22    1    3    3    0    0 -0.14478277059E+03  0.32799406482E+02 -0.13986043183E+04  0.14064607677E+04  0.00000000000E+00 0. -1.
</event>
<event>
 7    1  0.5018917E-005  0.2384378E+03  0.7818608E-02  0.1260501E+00
          2   -1    0    0  502    0  0.00000000000E+00  0.00000000000E+00  0.60577362842E+03  0.60577362842E+03  0.00000000000E+00 0. -1.
          1   -1    0    0  501    0 -0.00000000000E+00 -0.00000000000E+00 -0.38553400615E+03  0.38553400615E+03  0.00000000000E+00 0. -1.
         25    2    1    2    0    0  0.21668159881E+03 -0.15038409823E+03  0.39638672101E+03  0.49225392448E+03  0.12500080523E+03 0.  0.
          2    1    1    2  501    0 -0.21433819915E+03  0.99657076758E+02 -0.29015426385E+03  0.37424843806E+03  0.00000000000E+00 0. -1.
          1    1    1    2  502    0 -0.23433996629E+01  0.50727021469E+02  0.11400716511E+03  0.12480527203E+03  0.00000000000E+00 0. -1.
         22    1    3    3    0    0  0.83627043891E+02  0.55615262267E+01  0.14916251554E+03  0.17109608145E+03  0.00000000000E+00 0. -1.
         22    1    3    3    0    0  0.13305455492E+03 -0.15594562445E+03  0.24722420547E+03  0.32115784303E+03  0.00000000000E+00 0. -1.
</event>
<event>
 7    1  0.5018917E-005  0.1729463E+04  0.7818608E-02  0.1012523E+00
          2   -1    0    0  502    0  0.00000000000E+00  0.00000000000E+00  0.40881189954E+04  0.40881189954E+04  0.00000000000E+00 0. -1.
          1   -1    0    0  501    0 -0.00000000000E+00 -0.00000000000E+00 -0.42849830898E+04  0.42849830898E+04  0.00000000000E+00 0. -1.
         25    2    1    2    0    0  0.15991111663E+04  0.77538374864E+03 -0.25148171515E+04  0.30819323239E+04  0.12500025516E+03 0.  0.
          2    1    1    2  501    0 -0.15194053747E+04 -0.65143368999E+03 -0.10248863539E+04  0.19450836958E+04  0.00000000000E+00 0. -1.
          1    1    1    2  502    0 -0.79705791562E+02 -0.12395005865E+03  0.33428394110E+04  0.33460860656E+04  0.00000000000E+00 0. -1.
         22    1    3    3    0    0  0.39319433979E+03  0.23117759376E+03 -0.57612981703E+03  0.73482680597E+03  0.00000000000E+00 0. -1.
         22    1    3    3    0    0  0.12059168265E+04  0.54420615487E+03 -0.19386873345E+04  0.23471055179E+04  0.00000000000E+00 0. -1.
</event>
<event>
 7    1  0.5018917E-005  0.4884789E+03  0.7818608E-02  0.1135844E+00
          2   -1    0    0  502    0  0.00000000000E+00  0.00000000000E+00  0.82596413498E+03  0.82596413498E+03  0.00000000000E+00 0. -1.
          1   -1    0    0  501    0 -0.00000000000E+00 -0.00000000000E+00 -0.13067270786E+04  0.13067270786E+04  0.00000000000E+00 0. -1.
         25    2    1    2    0    0 -0.38109535263E+02 -0.50757554469E+03  0.55577238025E+02  0.52706689841E+03  0.12500166305E+03 0.  0.
          2    1    1    2  501    0 -0.86993001943E+02  0.42331340741E+02 -0.95952185407E+03  0.96438680685E+03  0.00000000000E+00 0. -1.
          1    1    1    2  502    0  0.12510253721E+03  0.46524420395E+03  0.42318167246E+03  0.64123750828E+03  0.00000000000E+00 0. -1.
         22    1    3    3    0    0  0.25443088322E+02 -0.38672695402E+03  0.43354352457E+02  0.38998036820E+03  0.00000000000E+00 0.  1.
         22    1    3    3    0    0 -0.63552623584E+02 -0.12084859067E+03  0.12222885568E+02  0.13708653020E+03  0.00000000000E+00 0.  1.
</event>
<event>
 7    1  0.5018917E-005  0.1120983E+04  0.7818608E-02  0.1153248E+00
          2   -1    0    0  502    0  0.00000000000E+00  0.00000000000E+00  0.29248247989E+04  0.29248247989E+04  0.00000000000E+00 0. -1.
          1   -1    0    0  501    0 -0.00000000000E+00 -0.00000000000E+00 -0.29120810802E+04  0.29120810802E+04  0.00000000000E+00 0. -1.
         25    2    1    2    0    0 -0.11022860748E+04 -0.41675708307E+02 -0.16137752014E+04  0.19587411843E+04  0.12500068376E+03 0.  0.
          2    1    1    2  501    0 -0.17615455708E+02 -0.29353941764E+02 -0.10111436025E+04  0.10117229577E+04  0.00000000000E+00 0. -1.
          1    1    1    2  502    0  0.11199015305E+04  0.71029650071E+02  0.26376625226E+04  0.28664417371E+04  0.00000000000E+00 0. -1.
         22    1    3    3    0    0 -0.32224524982E+03 -0.63185524864E+02 -0.52395431770E+03  0.61835470292E+03  0.00000000000E+00 0. -1.
         22    1    3    3    0    0 -0.78004082497E+03  0.21509816557E+02 -0.10898208837E+04  0.13403864813E+04  0.00000000000E+00 0. -1.
</event>
<event>
 7    1  0.5018917E-005  0.2750087E+03  0.7818608E-02  0.1147517E+00
          2   -1    0    0  502    0  0.00000000000E+00  0.00000000000E+00  0.98872356919E+03  0.98872356919E+03  0.00000000000E+00 0. -1.
          1   -1    0    0  501    0 -0.00000000000E+00 -0.00000000000E+00 -0.34060660651E+03  0.34060660651E+03  0.00000000000E+00 0. -1.
         25    2    1    2    0    0  0.37220923727E+03 -0.11513191623E+03 -0.13198472456E+03  0.42993099245E+03  0.12500246523E+03 0.  0.
          2    1    1    2  501    0 -0.14714287646E+03 -0.25523416532E+02  0.13297344950E+03  0.19996101910E+03  0.00000000000E+00 0. -1.
          1    1    1    2  502    0 -0.22506636081E+03  0.14065533276E+03  0.64712823773E+03  0.69943816415E+03  0.00000000000E+00 0. -1.
         22    1    3    3    0    0  0.29551634634E+03 -0.35369900284E+02 -0.10871247857E+03  0.31685855487E+03  0.00000000000E+00 0.  1.
         22    1    3    3    0    0  0.76692890932E+02 -0.79762015947E+02 -0.23272245982E+02  0.11307243758E+03  0.00000000000E+00 0.  1.
</event>
<event>
 7    1  0.5018917E-005  0.1069457E+03  0.7818608E-02  0.1283558E+00
          2   -1    0    0  502    0  0.00000000000E+00  0.00000000000E+00  0.13436418801E+04  0.13436418801E+04  0.00000000000E+00 0. -1.
          1   -1    0    0  501    0 -0.00000000000E+00 -0.00000000000E+00 -0.14168288624E+03  0.14168288624E+03  0.00000000000E+00 0. -1.
         25    2    1    2    0    0 -0.18254856091E+03  0.56553761255E+02  0.80760148693E+01  0.22849966953E+03  0.12499828781E+03 0.  0.
          2    1    1    2  501    0  0.90479086920E+02 -0.56606397635E+01  0.41591523525E+02  0.99741480045E+02  0.00000000000E+00 0. -1.
          1    1    1    2  502    0  0.92069473994E+02 -0.50893121491E+02  0.11522914555E+04  0.11570836168E+04  0.00000000000E+00 0. -1.
         22    1    3    3    0    0 -0.10569295504E+03 -0.28603428503E+02 -0.17732443639E+02  0.11092157781E+03  0.00000000000E+00 0.  1.
         22    1    3    3    0    0 -0.76855605876E+02  0.85157189757E+02  0.25808458508E+02  0.11757809172E+03  0.00000000000E+00 0.  1.
</event>
<event>
 7    1  0.5018917E-005  0.2597646E+03  0.7818608E-02  0.1180512E+00
          2   -1    0    0  502    0  0.00000000000E+00  0.00000000000E+00  0.77589975570E+03  0.77589975570E+03  0.00000000000E+00 0. -1.
          1   -1    0    0  501    0 -0.00000000000E+00 -0.00000000000E+00 -0.28271682207E+03  0.28271682207E+03  0.00000000000E+00 0. -1.
         25    2    1    2    0    0 -0.21289177712E+03  0.22799982197E+03  0.49053147052E+03  0.59460468534E+03  0.12500712250E+03 0.  0.
          2    1    1    2  501    0  0.92289349226E+02 -0.56032563321E+02 -0.16368338142E+03  0.19608473037E+03  0.00000000000E+00 0. -1.
          1    1    1    2  502    0  0.12060242790E+03 -0.17196725865E+03  0.16633484452E+03  0.26792716205E+03  0.00000000000E+00 0. -1.
         22    1    3    3    0    0 -0.10747478546E+03  0.49058440289E+02  0.11173990549E+03  0.16261416467E+03  0.00000000000E+00 0. -1.
         22    1    3    3    0    0 -0.10541699166E+03  0.17894138168E+03  0.37879156503E+03  0.43199052067E+03  0.00000000000E+00 0. -1.
</event>
<event>
 7    1  0.5018917E-005  0.7788443E+03  0.7818608E-02  0.1206379E+00
          2   -1    0    0  502    0  0.00000000000E+00  0.00000000000E+00  0.60629215367E+03  0.60629215367E+03  0.00000000000E+00 0. -1.
          1   -1    0    0  501    0 -0.00000000000E+00 -0.00000000000E+00 -0.29522891650E+04  0.29522891650E+04  0.00000000000E+00 0. -1.
         25    2    1    2    0    0 -0.14518614398E+03  0.76360560412E+03 -0.35944067453E+03  0.86544480468E+03  0.12499830560E+03 0.  0.
          2    1    1    2  501    0  0.11890042236E+03 -0.77021661864E+03 -0.22742975631E+04  0.24041215351E+04  0.00000000000E+00 0. -1.
          1    1    1    2  502    0  0.26285721619E+02  0.66110145184E+01  0.28774122632E+03  0.28901497885E+03  0.00000000000E+00 0. -1.
         22    1    3    3    0    0 -0.76855186811E+02  0.64902641015E+03 -0.30743668124E+03  0.72225986582E+03  0.00000000000E+00 0.  1.
         22    1    3    3    0    0 -0.68330957164E+02  0.11457919398E+03 -0.52003993281E+02  0.14318493886E+03  0.00000000000E+00 0.  1.
</event>
<event>
 7    1  0.5018917E-005  0.6158704E+03  0.7818608E-02  0.1226266E+00
          2   -1    0    0  502    0  0.00000000000E+00  0.00000000000E+00  0.20564638687E+04  0.20564638687E+04  0.00000000000E+00 0. -1.
          1   -1    0    0  501    0 -0.00000000000E+00 -0.00000000000E+00 -0.32401721868E+03  0.32401721868E+03  0.00000000000E+00 0. -1.
         25    2    1    2    0    0  0.26027480562E+03  0.55967203880E+03  0.31624775157E+03  0.70470816596E+03  0.12500077339E+03 0.  0.
          2    1    1    2  501    0 -0.26062284040E+02  0.96217196818E+01 -0.65573992335E+02  0.71216350719E+02  0.00000000000E+00 0. -1.
          1    1    1    2  502    0 -0.23421252158E+03 -0.56929375848E+03  0.14817728908E+04  0.16045565707E+04  0.00000000000E+00 0. -1.
         22    1    3    3    0    0  0.13693855860E+03  0.40761460172E+03  0.17988487252E+03  0.46611200341E+03  0.00000000000E+00 0. -1.
         22    1    3    3    0    0  0.12333624702E+03  0.15205743708E+03  0.13636287905E+03  0.23859616255E+03  0.00000000000E+00 0. -1.
</event>
<event>
 7    1  0.5018917E-005  0.2661574E+03  0.7818608E-02  0.1224360E+00
          2   -1    0    0  502    0  0.00000000000E+00  0.00000000000E+00  0.18104987683E+04  0.18104987683E+04  0.00000000000E+00 0. -1.
          1   -1    0    0  501    0 -0.00000000000E+00 -0.00000000000E+00 -0.17233921891E+03  0.17233921891E+03  0.00000000000E+00 0. -1.
         25    2    1    2    0    0 -0.21977117171E+03 -0.21106157262E+03  0.17957187694E+03  0.37512444048E+03  0.12500372599E+03 0.  0.
          2    1    1    2  501    0  0.17443565024E+03  0.16368521941E+03  0.12018106646E+03  0.26770157986E+03  0.00000000000E+00 0. -1.
          1    1    1    2  502    0  0.45335521468E+02  0.47376353213E+02  0.13384066060E+04  0.13400119668E+04  0.00000000000E+00 0. -1.
         22    1    3    3    0    0 -0.14117030345E+03 -0.15176741414E+03  0.51490793840E+02  0.21357365105E+03  0.00000000000E+00 0.  1.
         22    1    3    3    0    0 -0.78600868256E+02 -0.59294158482E+02  0.12808108310E+03  0.16155078944E+03  0.00000000000E+00 0.  1.
</event>
<event>
 7    1  0.5018917E-005  0.2151699E+04  0.7818608E-02  0.1110366E+00
          2   -1    0    0  502    0  0.00000000000E+00  0.00000000000E+00  0.23102847720E+04  0.23102847720E+04  0.00000000000E+00 0. -1.
          1   -1    0    0  501    0 -0.00000000000E+00 -0.00000000000E+00 -0.26015078370E+04  0.26015078370E+04  0.00000000000E+00 0. -1.
         25    2    1    2    0    0 -0.21664576060E+04 -0.11834307895E+03  0.32749695492E+03  0.21978222106E+04  0.12499828308E+03 0.  0.
          2    1    1    2  501    0  0.21380465749E+04  0.12843651908E+03 -0.97715712628E+03  0.23542674329E+04  0.00000000000E+00 0. -1.
          1    1    1    2  502    0  0.28411031080E+02 -0.10093440125E+02  0.35843710635E+03  0.35970296556E+03  0.00000000000E+00 0. -1.
         22    1    3    3    0    0 -0.67673235117E+03  0.79550902284E+01  0.65124461310E+02  0.67990525372E+03  0.00000000000E+00 0. -1.
         22    1    3    3    0    0 -0.14897252548E+04 -0.12629816918E+03  0.26237249361E+03  0.15179169568E+04  0.00000000000E+00 0. -1.
</event>
<event>
 7    1  0.5018917E-005  0.1974183E+03  0.7818608E-02  0.1278065E+00
          2   -1    0    0  502    0  0.00000000000E+00  0.00000000000E+00  0.14664051674E+04  0.14664051674E+04  0.00000000000E+00 0. -1.
          1   -1    0    0  501    0 -0.00000000000E+00 -0.00000000000E+00 -0.11269427282E+03  0.11269427282E+03  0.00000000000E+00 0. -1.
         25    2    1    2    0    0 -0.15549488540E+03  0.18690895186E+03  0.22639697541E+03  0.35495720899E+03  0.12500165628E+03 0.  0.
          2    1    1    2  501    0  0.28521983271E+02 -0.43171270340E+02 -0.23947430083E+02  0.57015274445E+02  0.00000000000E+00 0. -1.
          1    1    1    2  502    0  0.12697290213E+03 -0.14373768152E+03  0.11512613493E+04  0.11671269568E+04  0.00000000000E+00 0. -1.
         22    1    3    3    0    0 -0.84017975054E+02  0.15621174902E+03  0.21101685281E+03  0.27566146418E+03  0.00000000000E+00 0. -1.
         22    1    3    3    0    0 -0.71476910342E+02  0.30697202840E+02  0.15380122598E+02  0.79295744813E+02  0.00000000000E+00 0. -1.
</event>
<event>
 7    1  0.5018917E-005  0.6356386E+03  0.7818608E-02  0.1044538E+00
          2   -1    0    0  502    0  0.00000000000E+00  0.00000000000E+00  0.44211967164E+03  0.44211967164E+03  0.00000000000E+00 0. -1.
          1   -1    0    0  501    0 -0.00000000000E+00 -0.00000000000E+00 -0.15622910469E+04  0.15622910469E+04  0.00000000000E+00 0. -1.
         25    2    1    2    0    0  0.46149349660E+03 -0.44842733749E+03 -0.80842331009E+03  0.10407855800E+04  0.12499220322E+03 0.  0.
          2    1    1    2  501    0 -0.26211895625E+03  0.59755382760E+03 -0.28887640230E+03  0.71360107897E+03  0.00000000000E+00 0. -1.
          1    1    1    2  502    0 -0.19937454035E+03 -0.14912649011E+03 -0.22871662876E+02  0.25002405955E+03  0.00000000000E+00 0. -1.
         22    1    3    3    0    0  0.16076084870E+03 -0.21443871560E+03 -0.26342165893E+03  0.37579114361E+03  0.00000000000E+00 0. -1.
         22    1    3    3    0    0  0.30073264790E+03 -0.23398862189E+03 -0.54500165116E+03  0.66499443641E+03  0.00000000000E+00 0. -1.
</event>
<event>
 7    1  0.5018917E-005  0.3149917E+03  0.7818608E-02  0.1180075E+00
          2   -1    0    0  502    0  0.00000000000E+00  0.00000000000E+00  0.34199549753E+03  0.34199549753E+03  0.00000000000E+00 0. -1.
          1   -1    0    0  501    0 -0.00000000000E+00 -0.00000000000E+00 -0.14549830501E+04  0.14549830501E+04  0.00000000000E+00 0. -1.
         25    2    1    2    0    0 -0.30884979301E+03 -0.56214171856E+02 -0.91359246970E+03  0.97407630091E+03  0.12500084619E+03 0.  0.
          2    1    1    2  501    0  0.29111243852E+03  0.14391446888E+03 -0.45106294123E+03  0.55580176607E+03  0.00000000000E+00 0. -1.
          1    1    1    2  502    0  0.17737354487E+02 -0.87700297028E+02  0.25166785835E+03  0.26710048066E+03  0.00000000000E+00 0. -1.
         22    1    3    3    0    0 -0.84653482814E+02 -0.74219659041E+02 -0.32731652312E+03  0.34613707725E+03  0.00000000000E+00 0. -1.
         22    1    3    3    0    0 -0.22419631019E+03  0.18005487185E+02 -0.58627594658E+03  0.62793922366E+03  0.00000000000E+00 0. -1.
</event>
<event>
 7    1  0.5018917E-005  0.5032207E+02  0.7818608E-02  0.1459645E+00
          2   -1    0    0  502    0  0.00000000000E+00  0.00000000000E+00  0.62175843352E+02  0.62175843352E+02  0.00000000000E+00 0. -1.
          1   -1    0    0  501    0 -0.00000000000E+00 -0.00000000000E+00 -0.14189859294E+04  0.14189859294E+04  0.00000000000E+00 0. -1.
         25    2    1    2    0    0 -0.27346213107E+01 -0.78071765794E+02 -0.62083666429E+02  0.15994174690E+03  0.12499720796E+03 0.  0.
          2    1    1    2  501    0 -0.25367503876E+02  0.43274591847E+02 -0.12682535784E+04  0.12692451850E+04  0.00000000000E+00 0. -1.
          1    1    1    2  502    0  0.28102125187E+02  0.34797173947E+02 -0.26472841157E+02  0.51974840775E+02  0.00000000000E+00 0. -1.
         22    1    3    3    0    0 -0.24280471283E+02  0.16425748397E+02  0.17839804626E+02  0.34316251620E+02  0.00000000000E+00 0.  1.
         22    1    3    3    0    0  0.21545849973E+02 -0.94497514191E+02 -0.79923471056E+02  0.12562549528E+03  0.00000000000E+00 0.  1.
</event>
<event>
 7    1  0.5018917E-005  0.4886522E+03  0.7818608E-02  0.1208830E+00
          2   -1    0    0  502    0  0.00000000000E+00  0.00000000000E+00  0.25694053616E+04  0.25694053616E+04  0.00000000000E+00 0. -1.
          1   -1    0    0  501    0 -0.00000000000E+00 -0.00000000000E+00 -0.13253658177E+04  0.13253658177E+04  0.00000000000E+00 0. -1.
         25    2    1    2    0    0 -0.34259007064E+03  0.37077235544E+03 -0.51765733785E+02  0.52263298842E+03  0.12500181332E+03 0.  0.
          2    1    1    2  501    0  0.30151816932E+03 -0.37992918077E+03 -0.98130883871E+03  0.10946352935E+04  0.00000000000E+00 0. -1.
          1    1    1    2  502    0  0.41071901319E+02  0.91568253358E+01  0.22771141164E+04  0.22775028974E+04  0.00000000000E+00 0. -1.
         22    1    3    3    0    0 -0.31012874088E+03  0.37327892611E+03 -0.60145903154E+02  0.48901382625E+03  0.00000000000E+00 0. -1.
         22    1    3    3    0    0 -0.32461329759E+02 -0.25065706738E+01  0.83801693691E+01  0.33619162169E+02  0.00000000000E+00 0. -1.
</event>
<event>
 7    1  0.5018917E-005  0.7472260E+02  0.7818608E-02  0.1452657E+00
          2   -1    0    0  502    0  0.00000000000E+00  0.00000000000E+00  0.21437417268E+03  0.21437417268E+03  0.00000000000E+00 0. -1.
          1   -1    0    0  501    0 -0.00000000000E+00 -0.00000000000E+00 -0.19087196075E+04  0.19087196075E+04  0.00000000000E+00 0. -1.
         25    2    1    2    0    0 -0.64339527105E+02 -0.50520088356E+02  0.84255771175E+02  0.17151021226E+03  0.12499945543E+03 0.  0.
          2    1    1    2  501    0  0.72054275319E+02  0.19773894944E+02 -0.18614130146E+04  0.18629120313E+04  0.00000000000E+00 0. -1.
          1    1    1    2  502    0 -0.77147482142E+01  0.30746193412E+02  0.82811808629E+02  0.88671536570E+02  0.00000000000E+00 0. -1.
         22    1    3    3    0    0 -0.87920792539E+02 -0.70696184185E+02  0.83689359623E+02  0.14047037101E+03  0.00000000000E+00 0. -1.
         22    1    3    3    0    0  0.23581265434E+02  0.20176095829E+02  0.56641155197E+00  0.31039841243E+02  0.00000000000E+00 0. -1.
</event>
<event>
 7    1  0.5018917E-005  0.5234138E+03  0.7818608E-02  0.1173649E+00
          2   -1    0    0  502    0  0.00000000000E+00  0.00000000000E+00  0.47346854402E+03  0.47346854402E+03  0.00000000000E+00 0. -1.
          1   -1    0    0  501    0 -0.00000000000E+00 -0.00000000000E+00 -0.11420769378E+04  0.11420769378E+04  0.00000000000E+00 0. -1.
         25    2    1    2    0    0  0.54729899389E+03  0.65972928593E+02 -0.32699304354E+03  0.65302195014E+03  0.12499840325E+03 0.  0.
          2    1    1    2  501    0 -0.45620755528E+02  0.35658368962E+02 -0.43787086670E+03  0.44168276910E+03  0.00000000000E+00 0. -1.
          1    1    1    2  502    0 -0.50167823837E+03 -0.10163129755E+03  0.96255516478E+02  0.52084076256E+03  0.00000000000E+00 0. -1.
         22    1    3    3    0    0  0.46034720568E+03  0.10238694949E+02 -0.24802764021E+03  0.52301251511E+03  0.00000000000E+00 0.  1.
         22    1    3    3    0    0  0.86951788211E+02  0.55734233644E+02 -0.78965403336E+02  0.13000943503E+03  0.00000000000E+00 0.  1.
</event>
<event>
 7    1  0.5018917E-005  0.4265789E+03  0.7818608E-02  0.1185993E+00
          2   -1    0    0  502    0  0.00000000000E+00  0.00000000000E+00  0.23157228030E+04  0.23157228030E+04  0.00000000000E+00 0. -1.
          1   -1    0    0  501    0 -0.00000000000E+00 -0.00000000000E+00 -0.15432172792E+03  0.15432172792E+03  0.00000000000E+00 0. -1.
         25    2    1    2    0    0  0.41147443593E+03 -0.83881763489E+02  0.39437933113E+03  0.58949690131E+03  0.12499671259E+03 0.  0.
          2    1    1    2  501    0 -0.41616199350E+03  0.14554393063E+03  0.81573189140E+03  0.92724989039E+03  0.00000000000E+00 0. -1.
          1    1    1    2  502    0  0.46875575614E+01 -0.61662167138E+02  0.95128985253E+03  0.95329773921E+03  0.00000000000E+00 0. -1.
         22    1    3    3    0    0  0.36734585747E+03 -0.76241639361E+02  0.39490735157E+03  0.54470871381E+03  0.00000000000E+00 0. -1.
         22    1    3    3    0    0  0.44128578463E+02 -0.76401241281E+01 -0.52802044566E+00  0.44788187499E+02  0.00000000000E+00 0. -1.
</event>
<event>
 7    1  0.5018917E-005  0.1345868E+04  0.7818608E-02  0.1144659E+00
          2   -1    0    0  502    0  0.00000000000E+00  0.00000000000E+00  0.15987538614E+04  0.15987538614E+04  0.00000000000E+00 0. -1.
          1   -1    0    0  501    0 -0.00000000000E+00 -0.00000000000E+00 -0.14664283650E+04  0.14664283650E+04  0.00000000000E+00 0. -1.
         25    2    1    2    0    0  0.75688236021E+02 -0.13369647145E+04  0.12727415915E+03  0.13509356651E+04  0.12500041116E+03 0.  0.
          2    1    1    2  501    0 -0.28252938749E+02 -0.14094998893E+02 -0.32184741413E+03  0.32339241723E+03  0.00000000000E+00 0. -1.
          1    1    1    2  502    0 -0.47435297272E+02  0.13510597134E+04  0.32689875140E+03  0.13908541441E+04  0.00000000000E+00 0. -1.
         22    1    3    3    0    0 -0.24044416356E+01 -0.77509147765E+03  0.32315206464E+02  0.77576855610E+03  0.00000000000E+00 0.  1.
         22    1    3    3    0    0  0.78092677656E+02 -0.56187323685E+03  0.94958952686E+02  0.57516710901E+03  0.00000000000E+00 0.  1.
</event>
<event>
 7    1  0.5018917E-005  0.1131455E+04  0.7818608E-02  0.1139856E+00
          2   -1    0    0  502    0  0.00000000000E+00  0.00000000000E+00  0.14349455012E+04  0.14349455012E+04  0.00000000000E+00 0. -1.
          1   -1    0    0  501    0 -0.00000000000E+00 -0.00000000000E+00 -0.18579417092E+04  0.18579417092E+04  0.00000000000E+00 0. -1.
         25    2    1    2    0    0  0.67223115639E+03  0.92368794414E+03 -0.81922245705E+02  0.11521424123E+04  0.12500695238E+03 0.  0.
          2    1    1    2  501    0  0.18535414249E+02 -0.35206369962E+02 -0.88840391718E+03  0.88929442263E+03  0.00000000000E+00 0. -1.
          1    1    1    2  502    0 -0.69076657064E+03 -0.88848157418E+03  0.54732995481E+03  0.12514503754E+04  0.00000000000E+00 0. -1.
         22    1    3    3    0    0  0.19420198309E+03  0.21732919054E+03 -0.67216927888E+02  0.29910617294E+03  0.00000000000E+00 0. -1.
         22    1    3    3    0    0  0.47802917330E+03  0.70635875360E+03 -0.14705317817E+02  0.85303623938E+03  0.00000000000E+00 0. -1.
</event>
<event>
 7    1  0.5018917E-005  0.4482036E+03  0.7818608E-02  0.1064859E+00
          2   -1    0    0  502    0  0.00000000000E+00  0.00000000000E+00  0.10367021272E+04  0.10367021272E+04  0.00000000000E+00 0. -1.
          1   -1    0    0  501    0 -0.00000000000E+00 -0.00000000000E+00 -0.17705029675E+04  0.17705029675E+04  0.00000000000E+00 0. -1.
         25    2    1    2    0    0 -0.40046782981E+03 -0.52741734003E+03  0.11289318812E+03  0.68331083701E+03  0.12500117910E+03 0.  0.
          2    1    1    2  501    0  0.18443747370E+03  0.19017864341E+03 -0.14089175012E+04  0.14336086019E+04  0.00000000000E+00 0. -1.
          1    1    1    2  502    0  0.21603035610E+03  0.33723869661E+03  0.56222347283E+03  0.69028565584E+03  0.00000000000E+00 0. -1.
         22    1    3    3    0    0 -0.30830188459E+03 -0.31137955987E+03  0.89883869043E+02  0.44731017455E+03  0.00000000000E+00 0.  1.
         22    1    3    3    0    0 -0.92165945217E+02 -0.21603778016E+03  0.23009319075E+02  0.23600066245E+03  0.00000000000E+00 0.  1.
</event>
<event>
 7    1  0.5018917E-005  0.5724698E+03  0.7818608E-02  0.1238287E+00
          2   -1    0    0  502    0  0.00000000000E+00  0.00000000000E+00  0.13902041393E+04  0.13902041393E+04  0.00000000000E+00 0. -1.
          1   -1    0    0  501    0 -0.00000000000E+00 -0.00000000000E+00 -0.13072371301E+04  0.13072371301E+04  0.00000000000E+00 0. -1.
         25    2    1    2    0    0  0.53728694484E+03  0.20812248247E+03 -0.76130375100E+03  0.96291261377E+03  0.12500028666E+03 0.  0.
          2    1    1    2  501    0 -0.51870807623E+03 -0.22689506343E+03 -0.26488196227E+03  0.62506151065E+03  0.00000000000E+00 0. -1.
          1    1    1    2  502    0 -0.18578868607E+02  0.18772580967E+02  0.11091527225E+04  0.11094671450E+04  0.00000000000E+00 0. -1.
         22    1    3    3    0    0  0.18712180169E+03  0.12149853954E+03 -0.22737237721E+03  0.31855087772E+03  0.00000000000E+00 0.  1.
         22    1    3    3    0    0  0.35016514315E+03  0.86623942927E+02 -0.53393137380E+03  0.64436173605E+03  0.00000000000E+00 0.  1.
</event>
<event>
 7    1  0.5018917E-005  0.6703945E+03  0.7818608E-02  0.1120344E+00
          2   -1    0    0  502    0  0.00000000000E+00  0.00000000000E+00  0.18307889032E+04  0.18307889032E+04  0.00000000000E+00 0. -1.
          1   -1    0    0  501    0 -0.00000000000E+00 -0.00000000000E+00 -0.42976638167E+03  0.42976638167E+03  0.00000000000E+00 0. -1.
         25    2    1    2    0    0  0.18608137546E+02 -0.72498728054E+03  0.51297729647E+03  0.89706436861E+03  0.12500382001E+03 0.  0.
          2    1    1    2  501    0 -0.26626310594E+02  0.81068599242E+02 -0.13200045390E+03  0.15717887272E+03  0.00000000000E+00 0. -1.
          1    1    1    2  502    0  0.80181730479E+01  0.64391868130E+03  0.10200456790E+04  0.12063120435E+04  0.00000000000E+00 0. -1.
         22    1    3    3    0    0  0.11243229846E+02 -0.56349236833E+03  0.45824671829E+03  0.72638840451E+03  0.00000000000E+00 0.  1.
         22    1    3    3    0    0  0.73649076998E+01 -0.16149491221E+03  0.54730578180E+02  0.17067596411E+03  0.00000000000E+00 0.  1.
</event>
<event>
 7    1  0.5018917E-005  0.2304695E+03  0.7818608E-02  0.1334645E+00
          2   -1    0    0  502    0  0.00000000000E+00  0.00000000000E+00  0.25232699543E+04  0.25232699543E+04  0.00000000000E+00 0. -1.
          1   -1    0    0  501    0 -0.00000000000E+00 -0.00000000000E+00 -0.17320489003E+03  0.17320489003E+03  0.00000000000E+00 0. -1.
         25    2    1    2    0    0 -0.68902402847E+02  0.24598172678E+03  0.10705128598E+03  0.30388131782E+03  0.12501730464E+03 0.  0.
          2    1    1    2  501    0  0.61430281699E+01 -0.25716190152E+02 -0.66597577261E+02  0.71654005667E+02  0.00000000000E+00 0. -1.
          1    1    1    2  502    0  0.62759374677E+02 -0.22026553663E+03  0.23096113556E+04  0.23209395209E+04  0.00000000000E+00 0. -1.
         22    1    3    3    0    0 -0.55134790367E+02  0.18157928357E+03  0.13443350618E+03  0.23255805494E+03  0.00000000000E+00 0. -1.
         22    1    3    3    0    0 -0.13767612479E+02  0.64402443215E+02 -0.27382220199E+02  0.71323262885E+02  0.00000000000E+00 0. -1.
</event>
<event>
 7    1  0.5018917E-005  0.6587013E+02  0.7818608E-02  0.1397487E+00
          2   -1    0    0  502    0  0.00000000000E+00  0.00000000000E+00  0.24483318743E+03  0.24483318743E+03  0.00000000000E+00 0. -1.
          1   -1    0    0  501    0 -0.00000000000E+00 -0.00000000000E+00 -0.19097133380E+03  0.19097133380E+03  0.00000000000E+00 0. -1.
         25    2    1    2    0    0 -0.41205065303E+02 -0.33043282792E+02  0.10092736551E+03  0.16910026081E+03  0.12497539419E+03 0.  0.
          2    1    1    2  501    0  0.33878657070E+02 -0.43076348615E+02 -0.13764935238E+03  0.14815761684E+03  0.00000000000E+00 0. -1.
          1    1    1    2  502    0  0.73264082326E+01  0.76119631408E+02  0.90583840506E+02  0.11854664358E+03  0.00000000000E+00 0. -1.
         22    1    3    3    0    0 -0.14549106613E+02  0.30200196538E+02 -0.13117254457E+02  0.35997093475E+02  0.00000000000E+00 0. -1.
         22    1    3    3    0    0 -0.26655958690E+02 -0.63243479330E+02  0.11404461997E+03  0.13310316733E+03  0.00000000000E+00 0. -1.
</event>
<event>
 7    1  0.5018917E-005  0.2576175E+03  0.7818608E-02  0.1270902E+00
          2   -1    0    0  502    0  0.00000000000E+00  0.00000000000E+00  0.46440566287E+03  0.46440566287E+03  0.00000000000E+00 0. -1.
          1   -1    0    0  501    0 -0.00000000000E+00 -0.00000000000E+00 -0.55743523336E+03  0.55743523336E+03  0.00000000000E+00 0. -1.
         25    2    1    2    0    0 -0.71584422758E+02  0.27143298731E+03  0.16224682001E+01  0.30729637181E+03  0.12501292551E+03 0.  0.
          2    1    1    2  501    0  0.35120818473E+02 -0.24965140861E+03 -0.36349544187E+03  0.44236662846E+03  0.00000000000E+00 0. -1.
          1    1    1    2  502    0  0.36463604286E+02 -0.21781578701E+02  0.26884340319E+03  0.27217789595E+03  0.00000000000E+00 0. -1.
         22    1    3    3    0    0  0.33671933466E+01  0.20604257881E+03  0.16471202244E+02  0.20672731503E+03  0.00000000000E+00 0. -1.
         22    1    3    3    0    0 -0.74951616105E+02  0.65390408499E+02 -0.14848734044E+02  0.10056905679E+03  0.00000000000E+00 0. -1.
</event>
<event>
 7    1  0.5018917E-005  0.3687695E+03  0.7818608E-02  0.1264496E+00
          2   -1    0    0  502    0  0.00000000000E+00  0.00000000000E+00  0.92621791097E+03  0.92621791097E+03  0.00000000000E+00 0. -1.
          1   -1    0    0  501    0 -0.00000000000E+00 -0.00000000000E+00 -0.71703103839E+03  0.71703103839E+03  0.00000000000E+00 0. -1.
         25    2    1    2    0    0  0.14538408069E+03  0.34583868682E+03  0.50275139368E+03  0.63962843417E+03  0.12499856690E+03 0.  0.
          2    1    1    2  501    0  0.19452478447E+02 -0.24871286276E+02 -0.55635245542E+03  0.55724773167E+03  0.00000000000E+00 0. -1.
          1    1    1    2  502    0 -0.16483655914E+03 -0.32096740054E+03  0.26278793433E+03  0.44637278352E+03  0.00000000000E+00 0. -1.
         22    1    3    3    0    0  0.52085919107E+02  0.26226577552E+03  0.37646486510E+03  0.46175975857E+03  0.00000000000E+00 0.  1.
         22    1    3    3    0    0  0.93298161587E+02  0.83572911299E+02  0.12628652858E+03  0.17786867560E+03  0.00000000000E+00 0.  1.
</event>
<event>
 7    1  0.5018917E-005  0.4307855E+03  0.7818608E-02  0.1236984E+00
          2   -1    0    0  502    0  0.00000000000E+00  0.00000000000E+00  0.16165132008E+04  0.16165132008E+04  0.00000000000E+00 0. -1.
          1   -1    0    0  501    0 -0.00000000000E+00 -0.00000000000E+00 -0.46737309957E+03  0.46737309957E+03  0.00000000000E+00 0. -1.
         25    2    1    2    0    0 -0.13694527730E+03 -0.39977657881E+03  0.14274482342E+03  0.46322162237E+03  0.12499145921E+03 0.  0.
          2    1    1    2  501    0 -0.35462538877E+02  0.27355991666E+01 -0.27027712150E+03  0.27260740557E+03  0.00000000000E+00 0. -1.
          1    1    1    2  502    0  0.17240781618E+03  0.39704097965E+03  0.12766723994E+04  0.13480572725E+04  0.00000000000E+00 0. -1.
         22    1    3    3    0    0 -0.15059617391E+02 -0.18987254968E+03  0.20847065643E+02  0.19160630820E+03  0.00000000000E+00 0.  1.
         22    1    3    3    0    0 -0.12188565991E+03 -0.20990402913E+03  0.12189775778E+03  0.27161531417E+03  0.00000000000E+00 0.  1.
</event>
<event>
 7    1  0.5018917E-005  0.7659816E+03  0.7818608E-02  0.1120573E+00
          2   -1    0    0  502    0  0.00000000000E+00  0.00000000000E+00  0.22768405197E+04  0.22768405197E+04  0.00000000000E+00 0. -1.
          1   -1    0    0  501    0 -0.00000000000E+00 -0.00000000000E+00 -0.10536529809E+04  0.10536529809E+04  0.00000000000E+00 0. -1.
         25    2    1    2    0    0 -0.24748404930E+01 -0.82647577093E+03  0.69545503427E+03  0.10873597203E+04  0.12500052741E+03 0.  0.
          2    1    1    2  501    0 -0.16823065661E+02  0.75455170123E+03 -0.69030867093E+03  0.10228183351E+04  0.00000000000E+00 0. -1.
          1    1    1    2  502    0  0.19297906154E+02  0.71924069702E+02  0.12180411755E+04  0.12203154453E+04  0.00000000000E+00 0. -1.
         22    1    3    3    0    0  0.19262727684E+02 -0.50287302067E+03  0.34673701182E+03  0.61112918680E+03  0.00000000000E+00 0.  1.
         22    1    3    3    0    0 -0.21737568177E+02 -0.32360275026E+03  0.34871802246E+03  0.47623053349E+03  0.00000000000E+00 0.  1.
</event>
<event>
 7    1  0.5018917E-005  0.2101507E+03  0.7818608E-02  0.1304437E+00
          2   -1    0    0  502    0  0.00000000000E+00  0.00000000000E+00  0.76908671241E+03  0.76908671241E+03  0.00000000000E+00 0. -1.
          1   -1    0    0  501    0 -0.00000000000E+00 -0.00000000000E+00 -0.58752453680E+03  0.58752453680E+03  0.00000000000E+00 0. -1.
         25    2    1    2    0    0 -0.21737209322E+03  0.10507305752E+03 -0.19766832576E+03  0.33613796901E+03  0.12499997150E+03 0.  0.
          2    1    1    2  501    0  0.22859083595E+02 -0.30340240515E+02 -0.30390208942E+03  0.30626711846E+03  0.00000000000E+00 0. -1.
          1    1    1    2  502    0  0.19451300963E+03 -0.74732817003E+02  0.68313259080E+03  0.71420616173E+03  0.00000000000E+00 0. -1.
         22    1    3    3    0    0 -0.13583220204E+03  0.12154440935E+03 -0.10020655577E+03  0.20800188551E+03  0.00000000000E+00 0.  1.
         22    1    3    3    0    0 -0.81539891180E+02 -0.16471351836E+02 -0.97461769998E+02  0.12813608351E+03  0.00000000000E+00 0.  1.
</event>
<event>
 7    1  0.5018917E-005  0.2183315E+03  0.7818608E-02  0.1256762E+00
          2   -1    0    0  502    0  0.00000000000E+00  0.00000000000E+00  0.21732403860E+04  0.21732403860E+04  0.00000000000E+00 0. -1.
          1   -1    0    0  501    0 -0.00000000000E+00 -0.00000000000E+00 -0.17503275541E+03  0.17503275541E+03  0.00000000000E+00 0. -1.
         25    2    1    2    0    0  0.66271882577E+02  0.21970652316E+03  0.63118512510E+03  0.68314170233E+03  0.12500001827E+03 0.  0.
          2    1    1    2  501    0  0.46075297597E+02 -0.34462847408E+02 -0.13542647558E+03  0.14714262192E+03  0.00000000000E+00 0. -1.
          1    1    1    2  502    0 -0.11234718017E+03 -0.18524367575E+03  0.15024489811E+04  0.15179888172E+04  0.00000000000E+00 0. -1.
         22    1    3    3    0    0 -0.22797521636E+02  0.87626536654E+02  0.33275138976E+03  0.34485014761E+03  0.00000000000E+00 0. -1.
         22    1    3    3    0    0  0.89069404213E+02  0.13207998650E+03  0.29843373534E+03  0.33829155471E+03  0.00000000000E+00 0. -1.
</event>
<event>
 7    1  0.5018917E-005  0.8106398E+03  0.7818608E-02  0.1050636E+00
          2   -1    0    0  502    0  0.00000000000E+00  0.00000000000E+00  0.13224854552E+04  0.13224854552E+04  0.00000000000E+00 0. -1.
          1   -1    0    0  501    0 -0.00000000000E+00 -0.00000000000E+00 -0.18750824273E+04  0.18750824273E+04  0.00000000000E+00 0. -1.
         25    2    1    2    0    0  0.63829872675E+03 -0.53763175316E+03  0.41598687562E+03  0.94082076527E+03  0.12500186036E+03 0.  0.
          2    1    1    2  501    0  0.66854014366E+02  0.16592745302E+03 -0.13579001621E+04  0.13696328812E+04  0.00000000000E+00 0. -1.
          1    1    1    2  502    0 -0.70515274112E+03  0.37170430014E+03  0.38931631450E+03  0.88711423604E+03  0.00000000000E+00 0. -1.
         22    1    3    3    0    0  0.40834126711E+03 -0.31362876339E+03  0.19263211806E+03  0.54973877848E+03  0.00000000000E+00 0. -1.
         22    1    3    3    0    0  0.22995745964E+03 -0.22400298977E+03  0.22335475755E+03  0.39108198679E+03  0.00000000000E+00 0. -1.
</event>
<event>
 7    1  0.5018917E-005  0.2695167E+03  0.7818608E-02  0.1210124E+00
          2   -1    0    0  502    0  0.00000000000E+00  0.00000000000E+00  0.14411200431E+03  0.14411200431E+03  0.00000000000E+00 0. -1.
          1   -1    0    0  501    0 -0.00000000000E+00 -0.00000000000E+00 -0.10618874327E+04  0.10618874327E+04  0.00000000000E+00 0. -1.
         25    2    1    2    0    0 -0.19771860490E+03  0.14690845375E+03 -0.24629974586E+03  0.37008548130E+03  0.12499983260E+03 0.  0.
          2    1    1    2  501    0  0.65147779056E+01  0.74964259923E+02 -0.48028144392E+03  0.48614025545E+03  0.00000000000E+00 0. -1.
          1    1    1    2  502    0  0.19120382700E+03 -0.22187271367E+03 -0.19119423865E+03  0.34977370030E+03  0.00000000000E+00 0. -1.
         22    1    3    3    0    0 -0.19722089152E+03  0.15948757677E+03 -0.20263845073E+03  0.32464551269E+03  0.00000000000E+00 0.  1.
         22    1    3    3    0    0 -0.49771338121E+00 -0.12579123022E+02 -0.43661295130E+02  0.45439968607E+02  0.00000000000E+00 0.  1.
</event>
<event>
 7    1  0.5018917E-005  0.2115861E+03  0.7818608E-02  0.1164698E+00
          2   -1    0    0  502    0  0.00000000000E+00  0.00000000000E+00  0.29964524860E+03  0.29964524860E+03  0.00000000000E+00 0. -1.
          1   -1    0    0  501    0 -0.00000000000E+00 -0.00000000000E+00 -0.20109319552E+04  0.20109319552E+04  0.00000000000E+00 0. -1.
         25    2    1    2    0    0  0.34612696894E+03 -0.71291872671E+02 -0.11671099852E+04  0.12258286210E+04  0.12499472338E+03 0.  0.
          2    1    1    2  501    0 -0.13915268350E+03  0.76307738392E+02 -0.76544571644E+03  0.78172468624E+03  0.00000000000E+00 0. -1.
          1    1    1    2  502    0 -0.20697428544E+03 -0.50158657216E+01  0.22126899500E+03  0.30302389656E+03  0.00000000000E+00 0. -1.
         22    1    3    3    0    0  0.14237810466E+03 -0.42400470639E+02 -0.30175274115E+03  0.33633917611E+03  0.00000000000E+00 0.  1.
         22    1    3    3    0    0  0.20374886428E+03 -0.28891402032E+02 -0.86535724404E+03  0.88948944491E+03  0.00000000000E+00 0.  1.
</event>
<event>
 7    1  0.5018917E-005  0.2329986E+03  0.7818608E-02  0.1174694E+00
          2   -1    0    0  502    0  0.00000000000E+00  0.00000000000E+00  0.59123697346E+03  0.59123697346E+03  0.00000000000E+00 0. -1.
          1   -1    0    0  501    0 -0.00000000000E+00 -0.00000000000E+00 -0.23532061079E+03  0.23532061079E+03  0.00000000000E+00 0. -1.
         25    2    1    2    0    0 -0.71058970514E+02 -0.21207065948E+03 -0.48345411214E+02  0.26073836648E+03  0.12499550017E+03 0.  0.
          2    1    1    2  501    0 -0.11728107397E+03  0.52608002685E+02  0.23078277124E+03  0.26416498587E+03  0.00000000000E+00 0. -1.
          1    1    1    2  502    0  0.18834004448E+03  0.15946265680E+03  0.17347900265E+03  0.30165423191E+03  0.00000000000E+00 0. -1.
         22    1    3    3    0    0 -0.64501982045E+02 -0.11604205912E+03 -0.85111811938E+02  0.15770315693E+03  0.00000000000E+00 0.  1.
         22    1    3    3    0    0 -0.65569884686E+01 -0.96028600359E+02  0.36766400725E+02  0.10303520955E+03  0.00000000000E+00 0.  1.
</event>
<event>
 7    1  0.5018917E-005  0.2256315E+03  0.7818608E-02  0.1184164E+00
          2   -1    0    0  502    0  0.00000000000E+00  0.00000000000E+00  0.11587164149E+04  0.11587164149E+04  0.00000000000E+00 0. -1.
          1   -1    0    0  501    0 -0.00000000000E+00 -0.00000000000E+00 -0.97440458662E+03  0.97440458662E+03  0.00000000000E+00 0. -1.
         25    2    1    2    0    0 -0.13545200243E+03 -0.13830572603E+03 -0.55482287967E+03  0.60077412345E+03  0.12500160316E+03 0.  0.
          2    1    1    2  501    0  0.20776949735E+03  0.23321650970E+03 -0.33127708456E+03  0.45530496503E+03  0.00000000000E+00 0. -1.
          1    1    1    2  502    0 -0.72317494918E+02 -0.94910783661E+02  0.10704117925E+04  0.10770419130E+04  0.00000000000E+00 0. -1.
         22    1    3    3    0    0 -0.45046275451E+02 -0.40745715337E+02 -0.49848010491E+02  0.78576105784E+02  0.00000000000E+00 0. -1.
         22    1    3    3    0    0 -0.90405726978E+02 -0.97560010698E+02 -0.50497486918E+03  0.52219801767E+03  0.00000000000E+00 0. -1.
</event>
<event>
 7    1  0.5018917E-005  0.9640462E+03  0.7818608E-02  0.1131177E+00
          2   -1    0    0  502    0  0.00000000000E+00  0.00000000000E+00  0.21983568036E+04  0.21983568036E+04  0.00000000000E+00 0. -1.
          1   -1    0    0  501    0 -0.00000000000E+00 -0.00000000000E+00 -0.18537273643E+04  0.18537273643E+04  0.00000000000E+00 0. -1.
         25    2    1    2    0    0 -0.75985152976E+03  0.59803471926E+03 -0.10717794795E+04  0.14489156321E+04  0.12500153464E+03 0.  0.
          2    1    1    2  501    0  0.72092849723E+03 -0.63235533895E+03 -0.20524730722E+03  0.98068222679E+03  0.00000000000E+00 0. -1.
          1    1    1    2  502    0  0.38923032528E+02  0.34320619692E+02  0.16216562261E+04  0.16224863090E+04  0.00000000000E+00 0. -1.
         22    1    3    3    0    0 -0.27339407655E+03  0.27146506790E+03 -0.48879455656E+03  0.62238068953E+03  0.00000000000E+00 0. -1.
         22    1    3    3    0    0 -0.48645745321E+03  0.32656965136E+03 -0.58298492295E+03  0.82653494262E+03  0.00000000000E+00 0. -1.
</event>
<event>
 7    1  0.5018917E-005  0.7894932E+03  0.7818608E-02  0.1154249E+00
          2   -1    0    0  502    0  0.00000000000E+00  0.00000000000E+00  0.19979338923E+04  0.19979338923E+04  0.00000000000E+00 0. -1.
          1   -1    0    0  501    0 -0.00000000000E+00 -0.00000000000E+00 -0.84691903481E+03  0.84691903481E+03  0.00000000000E+00 0. -1.
         25    2    1    2    0    0 -0.54545429789E+03  0.56886601710E+03  0.99616323694E+03  0.12763600183E+04  0.12499906037E+03 0.  0.
          2    1    1    2  501    0 -0.36378804192E+02 -0.31373378889E+02 -0.52345022472E+03  0.52564992539E+03  0.00000000000E+00 0. -1.
          1    1    1    2  502    0  0.58183310209E+03 -0.53749263821E+03  0.67830184523E+03  0.10428429834E+04  0.00000000000E+00 0. -1.
         22    1    3    3    0    0 -0.97567673370E+02  0.41372260306E+02  0.13204789210E+03  0.16931556519E+03  0.00000000000E+00 0.  1.
         22    1    3    3    0    0 -0.44788662452E+03  0.52749375679E+03  0.86411534484E+03  0.11070444531E+04  0.00000000000E+00 0.  1.
</event>
<event>
 7    1  0.5018917E-005  0.3668638E+03  0.7818608E-02  0.1166924E+00
          2   -1    0    0  502    0  0.00000000000E+00  0.00000000000E+00  0.13521336257E+04  0.13521336257E+04  0.00000000000E+00 0. -1.
          1   -1    0    0  501    0 -0.00000000000E+00 -0.00000000000E+00 -0.26131402666E+04  0.26131402666E+04  0.00000000000E+00 0. -1.
         25    2    1    2    0    0  0.33350855241E+03 -0.20971869694E+03 -0.56402888925E+03  0.69925847531E+03  0.12499576395E+03 0.  0.
          2    1    1    2  501    0  0.11943024095E+02  0.88409940352E+02 -0.19543682889E+04  0.19564034251E+04  0.00000000000E+00 0. -1.
          1    1    1    2  502    0 -0.34545157651E+03  0.12130875659E+03  0.12573905372E+04  0.13096119919E+04  0.00000000000E+00 0. -1.
         22    1    3    3    0    0  0.26817492881E+03 -0.21337538639E+03 -0.42790909923E+03  0.54822718389E+03  0.00000000000E+00 0.  1.
         22    1    3    3    0    0  0.65333623598E+02  0.36566894495E+01 -0.13611979003E+03  0.15103129142E+03  0.00000000000E+00 0.  1.
</event>
<event>
 7    1  0.5018917E-005  0.5397156E+02  0.7818608E-02  0.1434435E+00
          2   -1    0    0  502    0  0.00000000000E+00  0.00000000000E+00  0.17013205765E+03  0.17013205765E+03  0.00000000000E+00 0. -1.
          1   -1    0    0  501    0 -0.00000000000E+00 -0.00000000000E+00 -0.18934490823E+04  0.18934490823E+04  0.00000000000E+00 0. -1.
         25    2    1    2    0    0 -0.43522830030E+01 -0.17636480381E+01  0.77062996558E+01  0.12532669912E+03  0.12500136654E+03 0.  0.
          2    1    1    2  501    0  0.33488746268E+02  0.42709895654E+02 -0.18281188644E+04  0.18289243325E+04  0.00000000000E+00 0. -1.
          1    1    1    2  502    0 -0.29136463265E+02 -0.40946247616E+02  0.97095540130E+02  0.10933010838E+03  0.00000000000E+00 0. -1.
         22    1    3    3    0    0  0.31500503551E+02  0.17660162295E+02 -0.45628380229E+02  0.58190309662E+02  0.00000000000E+00 0. -1.
         22    1    3    3    0    0 -0.35852786554E+02 -0.19423810333E+02  0.53334679885E+02  0.67136389462E+02  0.00000000000E+00 0. -1.
</event>
<event>
 7    1  0.5018917E-005  0.9998593E+03  0.7818608E-02  0.1202489E+00
          2   -1    0    0  502    0  0.00000000000E+00  0.00000000000E+00  0.16358932178E+04  0.16358932178E+04  0.00000000000E+00 0. -1.
          1   -1    0    0  501    0 -0.00000000000E+00 -0.00000000000E+00 -0.99277999224E+03  0.99277999224E+03  0.00000000000E+00 0. -1.
         25    2    1    2    0    0 -0.97698090309E+03 -0.14556812030E+03  0.33458812481E+03  0.10503600580E+04  0.12500110178E+03 0.  0.
          2    1    1    2  501    0 -0.20096523877E+02 -0.89931646860E+01 -0.36468966903E+03  0.36535366698E+03  0.00000000000E+00 0. -1.
          1    1    1    2  502    0  0.99707742697E+03  0.15456128499E+03  0.67321476974E+03  0.12129594851E+04  0.00000000000E+00 0. -1.
         22    1    3    3    0    0 -0.35420184291E+03 -0.61123507257E+02  0.59557898388E+02  0.36433799132E+03  0.00000000000E+00 0.  1.
         22    1    3    3    0    0 -0.62277906018E+03 -0.84444613047E+02  0.27503022642E+03  0.68602206665E+03  0.00000000000E+00 0.  1.
</event>
<event>
 7    1  0.5018917E-005  0.7597510E+03  0.7818608E-02  0.1124602E+00
          2   -1    0    0  502    0  0.00000000000E+00  0.00000000000E+00  0.14729164697E+04  0.14729164697E+04  0.00000000000E+00 0. -1.
          1   -1    0    0  501    0 -0.00000000000E+00 -0.00000000000E+00 -0.20050159197E+04  0.20050159197E+04  0.00000000000E+00 0. -1.
         25    2    1    2    0    0  0.72658824774E+03  0.13637061760E+03 -0.12162173947E+04  0.14287539766E+04  0.12500298936E+03 0.  0.
          2    1    1    2  501    0 -0.78679203236E+03 -0.17476901647E+03 -0.44307296274E+03  0.91972798240E+03  0.00000000000E+00 0. -1.
          1    1    1    2  502    0  0.60203784615E+02  0.38398398874E+02  0.11271909075E+04  0.11294504304E+04  0.00000000000E+00 0. -1.
         22    1    3    3    0    0  0.16386239479E+03  0.76997316505E+02 -0.35078608016E+03  0.39475352463E+03  0.00000000000E+00 0. -1.
         22    1    3    3    0    0  0.56272585295E+03  0.59373301091E+02 -0.86543131458E+03  0.10340004520E+04  0.00000000000E+00 0. -1.
</event>
<event>
 7    1  0.5018917E-005  0.3454219E+03  0.7818608E-02  0.1077873E+00
          2   -1    0    0  502    0  0.00000000000E+00  0.00000000000E+00  0.15103919255E+04  0.15103919255E+04  0.00000000000E+00 0. -1.
          1   -1    0    0  501    0 -0.00000000000E+00 -0.00000000000E+00 -0.26792272417E+04  0.26792272417E+04  0.00000000000E+00 0. -1.
         25    2    1    2    0    0  0.13240104891E+02  0.54294130453E+03 -0.58184094234E+03  0.80568307761E+03  0.12500311520E+03 0.  0.
          2    1    1    2  501    0 -0.15070839464E+03 -0.29026487985E+03 -0.19569577957E+04  0.19840994266E+04  0.00000000000E+00 0. -1.
          1    1    1    2  502    0  0.13746828975E+03 -0.25267642469E+03  0.13699634217E+04  0.13998366630E+04  0.00000000000E+00 0. -1.
         22    1    3    3    0    0  0.25468887546E+02  0.47118903658E+03 -0.43498372289E+03  0.64177769640E+03  0.00000000000E+00 0.  1.
         22    1    3    3    0    0 -0.12228782656E+02  0.71752267959E+02 -0.14685721945E+03  0.16390538120E+03  0.00000000000E+00 0.  1.
</event>
<event>
 7    1  0.5018917E-005  0.1267027E+03  0.7818608E-02  0.1297982E+00
          2   -1    0    0  502    0  0.00000000000E+00  0.00000000000E+00  0.47482458722E+03  0.47482458722E+03  0.00000000000E+00 0. -1.
          1   -1    0    0  501    0 -0.00000000000E+00 -0.00000000000E+00 -0.59152256446E+03  0.59152256446E+03  0.00000000000E+00 0. -1.
         25    2    1    2    0    0 -0.15957506790E+03 -0.17090298748E+02  0.94987564728E+02  0.22450767313E+03  0.12499910894E+03 0.  0.
          2    1    1    2  501    0  0.12014423104E+03 -0.36907274924E+02 -0.51557907002E+03  0.53067745443E+03  0.00000000000E+00 0. -1.
          1    1    1    2  502    0  0.39430836860E+02  0.53997573672E+02  0.30389352805E+03  0.31116202411E+03  0.00000000000E+00 0. -1.
         22    1    3    3    0    0 -0.14157400808E+03 -0.50794565514E+02  0.36718076460E+02  0.15482733863E+03  0.00000000000E+00 0. -1.
         22    1    3    3    0    0 -0.18001059825E+02  0.33704266767E+02  0.58269488269E+02  0.69680334501E+02  0.00000000000E+00 0. -1.
</event>
<event>
 7    1  0.5018917E-005  0.2303935E+03  0.7818608E-02  0.1289226E+00
          2   -1    0    0  502    0  0.00000000000E+00  0.00000000000E+00  0.34011232312E+03  0.34011232312E+03  0.00000000000E+00 0. -1.
          1   -1    0    0  501    0 -0.00000000000E+00 -0.00000000000E+00 -0.96796002142E+03  0.96796002142E+03  0.00000000000E+00 0. -1.
         25    2    1    2    0    0 -0.22616181671E+03 -0.91482013131E+02  0.17412303798E+03  0.32474839393E+03  0.12499824376E+03 0.  0.
          2    1    1    2  501    0  0.26369261527E+02  0.29936399133E+02 -0.77094561151E+03  0.77197711226E+03  0.00000000000E+00 0. -1.
          1    1    1    2  502    0  0.19979255518E+03  0.61545613998E+02 -0.31025124768E+02  0.21134683834E+03  0.00000000000E+00 0. -1.
         22    1    3    3    0    0 -0.10495181486E+03 -0.10231323572E+03  0.12804572986E+03  0.19462422918E+03  0.00000000000E+00 0.  1.
         22    1    3    3    0    0 -0.12121000184E+03  0.10831222591E+02  0.46077308122E+02  0.13012416476E+03  0.00000000000E+00 0.  1.
</event>
<event>
 7    1  0.5018917E-005  0.2859994E+02  0.7818608E-02  0.1658192E+00
          2   -1    0    0  502    0  0.00000000000E+00  0.00000000000E+00  0.27845836089E+03  0.27845836089E+03  0.00000000000E+00 0. -1.
          1   -1    0    0  501    0 -0.00000000000E+00 -0.00000000000E+00 -0.35913421732E+02  0.35913421732E+02  0.00000000000E+00 0. -1.
         25    2    1    2    0    0  0.42506987021E+02 -0.12092892679E+02  0.11227093255E+03  0.17373140762E+03  0.12499903079E+03 0.  0.
          2    1    1    2  501    0 -0.21371403380E+02 -0.60031689299E+01  0.35524322357E+02  0.41889764842E+02  0.00000000000E+00 0. -1.
          1    1    1    2  502    0 -0.21135583641E+02  0.18096061609E+02  0.94749684246E+02  0.98750610157E+02  0.00000000000E+00 0. -1.
         22    1    3    3    0    0  0.67516119625E+01  0.29603002579E+02 -0.15909032769E+02  0.34278555241E+02  0.00000000000E+00 0. -1.
         22    1    3    3    0    0  0.35755375059E+02 -0.41695895258E+02  0.12817996532E+03  0.13945285238E+03  0.00000000000E+00 0. -1.
</event>
<event>
 7    1  0.5018917E-005  0.2053420E+03  0.7818608E-02  0.1231155E+00
          2   -1    0    0  502    0  0.00000000000E+00  0.00000000000E+00  0.10219798573E+04  0.10219798573E+04  0.00000000000E+00 0. -1.
          1   -1    0    0  501    0 -0.00000000000E+00 -0.00000000000E+00 -0.12152883858E+04  0.12152883858E+04  0.00000000000E+00 0. -1.
         25    2    1    2    0    0 -0.25145199272E+03 -0.11281515216E+03  0.13870456415E+03  0.33289464385E+03  0.12499809834E+03 0.  0.
          2    1    1    2  501    0  0.71141354239E+02  0.34839986770E+02 -0.11044806416E+04  0.11073176621E+04  0.00000000000E+00 0. -1.
          1    1    1    2  502    0  0.18031063848E+03  0.77975165391E+02  0.77246754897E+03  0.79705593717E+03  0.00000000000E+00 0. -1.
         22    1    3    3    0    0 -0.15254368034E+03 -0.18849734436E+02  0.25898631266E+02  0.15587054244E+03  0.00000000000E+00 0. -1.
         22    1    3    3    0    0 -0.98908312380E+02 -0.93965417725E+02  0.11280593288E+03  0.17702410141E+03  0.00000000000E+00 0. -1.
</event>
<event>
 7    1  0.5018917E-005  0.6977303E+03  0.7818608E-02  0.1205894E+00
          2   -1    0    0  502    0  0.00000000000E+00  0.00000000000E+00  0.14232165450E+04  0.14232165450E+04  0.00000000000E+00 0. -1.
          1   -1    0    0  501    0 -0.00000000000E+00 -0.00000000000E+00 -0.60919066516E+03  0.60919066516E+03  0.00000000000E+00 0. -1.
         25    2    1    2    0    0  0.65284045532E+03  0.19918904263E+03  0.25083725981E+03  0.73784886367E+03  0.12499871962E+03 0.  0.
          2    1    1    2  501    0  0.16685202117E+02  0.25428127022E+02 -0.23031410861E+03  0.23231352574E+03  0.00000000000E+00 0. -1.
          1    1    1    2  502    0 -0.66952565743E+03 -0.22461716965E+03  0.79350272867E+03  0.10622448208E+04  0.00000000000E+00 0. -1.
         22    1    3    3    0    0  0.61199940086E+03  0.15758754572E+03  0.24979888081E+03  0.67954144986E+03  0.00000000000E+00 0. -1.
         22    1    3    3    0    0  0.40841054457E+02  0.41601496914E+02  0.10383789973E+01  0.58307413813E+02  0.00000000000E+00 0. -1.
</event>
<event>
 7    1  0.5018917E-005  0.2473427E+03  0.7818608E-02  0.1149981E+00
          2   -1    0    0  502    0  0.00000000000E+00  0.00000000000E+00  0.23117509883E+04  0.23117509883E+04  0.00000000000E+00 0. -1.
          1   -1    0    0  501    0 -0.00000000000E+00 -0.00000000000E+00 -0.28352605607E+03  0.28352605607E+03  0.00000000000E+00 0. -1.
         25    2    1    2    0    0  0.21568770282E+03 -0.21897035607E+03  0.18618536853E+04  0.18911883271E+04  0.12499976379E+03 0.  0.
          2    1    1    2  501    0 -0.49724097393E+02  0.15339727973E+03 -0.22333662205E+03  0.27546770780E+03  0.00000000000E+00 0. -1.
          1    1    1    2  502    0 -0.16596360542E+03  0.65573076331E+02  0.38970786894E+03  0.42862100949E+03  0.00000000000E+00 0. -1.
         22    1    3    3    0    0  0.16209902930E+03 -0.16950891243E+03  0.16615567014E+04  0.16780286168E+04  0.00000000000E+00 0.  1.
         22    1    3    3    0    0  0.53588673512E+02 -0.49461443638E+02  0.20029698394E+03  0.21315971034E+03  0.00000000000E+00 0.  1.
</event>
<event>
 7    1  0.5018917E-005  0.8367328E+03  0.7818608E-02  0.1164036E+00
          2   -1    0    0  502    0  0.00000000000E+00  0.00000000000E+00  0.31817547324E+04  0.31817547324E+04  0.00000000000E+00 0. -1.
          1   -1    0    0  501    0 -0.00000000000E+00 -0.00000000000E+00 -0.35953425936E+03  0.35953425936E+03  0.00000000000E+00 0. -1.
         25    2    1    2    0    0 -0.23955302616E+03 -0.78673875525E+03  0.82098958137E+03  0.11687571648E+04  0.12500358482E+03 0.  0.
          2    1    1    2  501    0 -0.39302272535E+02 -0.95216337411E+01 -0.10020754177E+03  0.10805962041E+03  0.00000000000E+00 0. -1.
          1    1    1    2  502    0  0.27885529869E+03  0.79626038899E+03  0.21014384334E+04  0.22644722065E+04  0.00000000000E+00 0. -1.
         22    1    3    3    0    0 -0.17073706542E+03 -0.65210196312E+03  0.72345235245E+03  0.98882325118E+03  0.00000000000E+00 0.  1.
         22    1    3    3    0    0 -0.68815960736E+02 -0.13463679213E+03  0.97537228919E+02  0.17993391362E+03  0.00000000000E+00 0.  1.
</event>
<event>
 7    1  0.5018917E-005  0.6390629E+03  0.7818608E-02  0.1081324E+00
          2   -1    0    0  502    0  0.00000000000E+00  0.00000000000E+00  0.91190919719E+03  0.91190919719E+03  0.00000000000E+00 0. -1.
          1   -1    0    0  501    0 -0.00000000000E+00 -0.00000000000E+00 -0.30487663508E+04  0.30487663508E+04  0.00000000000E+00 0. -1.
         25    2    1    2    0    0 -0.71318685936E+03  0.30472768756E+03  0.62878141264E+03  0.10062247980E+04  0.12501127662E+03 0.  0.
          2    1    1    2  501    0  0.56640960028E+03 -0.28276928580E+03 -0.27291592706E+04  0.28016224993E+04  0.00000000000E+00 0. -1.
          1    1    1    2  502    0  0.14677725908E+03 -0.21958401763E+02 -0.36479295623E+02  0.15282825066E+03  0.00000000000E+00 0. -1.
         22    1    3    3    0    0 -0.68818462672E+03  0.27258314669E+03  0.56780381348E+03  0.93289914938E+03  0.00000000000E+00 0. -1.
         22    1    3    3    0    0 -0.25002232640E+02  0.32144540875E+02  0.60977599162E+02  0.73325648613E+02  0.00000000000E+00 0. -1.
</event>
<event>
 7    1  0.5018917E-005  0.1218688E+04  0.7818608E-02  0.1032845E+00
          2   -1    0    0  502    0  0.00000000000E+00  0.00000000000E+00  0.30942756374E+04  0.30942756374E+04  0.00000000000E+00 0. -1.
          1   -1    0    0  501    0 -0.00000000000E+00 -0.00000000000E+00 -0.13312953930E+04  0.13312953930E+04  0.00000000000E+00 0. -1.
         25    2    1    2    0    0 -0.11575019179E+04 -0.66055013234E+03 -0.47973109154E+02  0.13394267398E+04  0.12500161952E+03 0.  0.
          2    1    1    2  501    0  0.15349155401E+03  0.12589724252E+02 -0.47900921939E+03  0.50315801750E+03  0.00000000000E+00 0. -1.
          1    1    1    2  502    0  0.10040103639E+04  0.64796040809E+03  0.22899625730E+04  0.25829862731E+04  0.00000000000E+00 0. -1.
         22    1    3    3    0    0 -0.10048921899E+04 -0.59767417753E+03 -0.63926047591E+01  0.11692149508E+04  0.00000000000E+00 0.  1.
         22    1    3    3    0    0 -0.15260972800E+03 -0.62875954813E+02 -0.41580504395E+02  0.17021178902E+03  0.00000000000E+00 0.  1.
</event>
<event>
 7    1  0.5018917E-005  0.6917535E+03  0.7818608E-02  0.9894266E-01
          2   -1    0    0  502    0  0.00000000000E+00  0.00000000000E+00  0.22102936893E+04  0.22102936893E+04  0.00000000000E+00 0. -1.
          1   -1    0    0  501    0 -0.00000000000E+00 -0.00000000000E+00 -0.10378704140E+04  0.10378704140E+04  0.00000000000E+00 0. -1.
         25    2    1    2    0    0 -0.49320586208E+03 -0.32738863503E+03  0.85340971013E+03  0.10461205422E+04  0.12499885931E+03 0.  0.
          2    1    1    2  501    0  0.43044587286E+02 -0.52807428827E+03 -0.64643907282E+03  0.83582220914E+03  0.00000000000E+00 0. -1.
          1    1    1    2  502    0  0.45016127479E+03  0.85546292331E+03  0.96545263799E+03  0.13662213520E+04  0.00000000000E+00 0. -1.
         22    1    3    3    0    0 -0.24530770247E+03 -0.23545477371E+03  0.45666987917E+03  0.56935243733E+03  0.00000000000E+00 0.  1.
         22    1    3    3    0    0 -0.24789815961E+03 -0.91933861325E+02  0.39673983096E+03  0.47676810491E+03  0.00000000000E+00 0.  1.
</event>
<event>
 7    1  0.5018917E-005  0.6692406E+02  0.7818608E-02  0.1407731E+00
          2   -1    0    0  502    0  0.00000000000E+00  0.00000000000E+00  0.11943551875E+03  0.11943551875E+03  0.00000000000E+00 0. -1.
          1   -1    0    0  501    0 -0.00000000000E+00 -0.00000000000E+00 -0.26600142878E+03  0.26600142878E+03  0.00000000000E+00 0. -1.
         25    2    1    2    0    0  0.63101942853E+02 -0.36984204358E+02 -0.20707062805E+03  0.25268634267E+03  0.12498982442E+03 0.  0.
          2    1    1    2  501    0 -0.20639912675E+02  0.62913400353E+02  0.21777799466E+02  0.69702040779E+02  0.00000000000E+00 0. -1.
          1    1    1    2  502    0 -0.42462030178E+02 -0.25929195995E+02  0.38726918558E+02  0.63048564082E+02  0.00000000000E+00 0. -1.
         22    1    3    3    0    0 -0.15201041896E+02  0.17475874134E+02  0.16342814784E+01  0.23219576383E+02  0.00000000000E+00 0. -1.
         22    1    3    3    0    0  0.78302984749E+02 -0.54460078492E+02 -0.20870490953E+03  0.22946676629E+03  0.00000000000E+00 0. -1.
</event>
<event>
 7    1  0.5018917E-005  0.1722307E+03  0.7818608E-02  0.1183198E+00
          2   -1    0    0  502    0  0.00000000000E+00  0.00000000000E+00  0.12447068342E+04  0.12447068342E+04  0.00000000000E+00 0. -1.
          1   -1    0    0  501    0 -0.00000000000E+00 -0.00000000000E+00 -0.14201778536E+04  0.14201778536E+04  0.00000000000E+00 0. -1.
         25    2    1    2    0    0 -0.70230168807E+02 -0.14875719397E+03  0.11412194064E+04  0.11597699516E+04  0.12499451057E+03 0.  0.
          2    1    1    2  501    0 -0.10720103515E+03  0.13480118812E+03 -0.13159106069E+04  0.13271338093E+04  0.00000000000E+00 0. -1.
          1    1    1    2  502    0  0.17743120395E+03  0.13956005850E+02 -0.77981889497E+00  0.17798092694E+03  0.00000000000E+00 0. -1.
         22    1    3    3    0    0  0.22707253976E+02 -0.40433088061E+02  0.53364444620E+03  0.53565553199E+03  0.00000000000E+00 0.  1.
         22    1    3    3    0    0 -0.92937422783E+02 -0.10832410591E+03  0.60757496018E+03  0.62411441957E+03  0.00000000000E+00 0.  1.
</event>
<event>
 7    1  0.5018917E-005  0.1011838E+04  0.7818608E-02  0.1049516E+00
          2   -1    0    0  502    0  0.00000000000E+00  0.00000000000E+00  0.16416910478E+04  0.16416910478E+04  0.00000000000E+00 0. -1.
          1   -1    0    0  501    0 -0.00000000000E+00 -0.00000000000E+00 -0.30756450912E+04  0.30756450912E+04  0.00000000000E+00 0. -1.
         25    2    1    2    0    0 -0.10559389761E+04  0.49099317476E+02 -0.15590796947E+04  0.18877955450E+04  0.12499864416E+03 0.  0.
          2    1    1    2  501    0  0.95505059259E+03 -0.15411310344E+03 -0.11745924813E+04  0.15216898436E+04  0.00000000000E+00 0. -1.
          1    1    1    2  502    0  0.10088838347E+03  0.10501378596E+03  0.12997181325E+04  0.13078507504E+04  0.00000000000E+00 0. -1.
         22    1    3    3    0    0 -0.10178700506E+04  0.25355115734E+02 -0.15109485453E+04  0.18219955621E+04  0.00000000000E+00 0. -1.
         22    1    3    3    0    0 -0.38068925481E+02  0.23744201742E+02 -0.48131149422E+02  0.65799982890E+02  0.00000000000E+00 0. -1.
</event>
<event>
 7    1  0.5018917E-005  0.1200301E+04  0.7818608E-02  0.1168696E+00
          2   -1    0    0  502    0  0.00000000000E+00  0.00000000000E+00  0.34671347639E+04  0.34671347639E+04  0.00000000000E+00 0. -1.
          1   -1    0    0  501    0 -0.00000000000E+00 -0.00000000000E+00 -0.65421032187E+03  0.65421032187E+03  0.00000000000E+00 0. -1.
         25    2    1    2    0    0  0.11815893781E+04 -0.18160544094E+03  0.25087067231E+03  0.12278823457E+04  0.12499986429E+03 0.  0.
          2    1    1    2  501    0 -0.12035573323E+04  0.16639797259E+03  0.20667209327E+04  0.23974098421E+04  0.00000000000E+00 0. -1.
          1    1    1    2  502    0  0.21967954182E+02  0.15207468352E+02  0.49533283704E+03  0.49605289794E+03  0.00000000000E+00 0. -1.
         22    1    3    3    0    0  0.22427538449E+03  0.12752804586E+01  0.81625272092E+02  0.23867081823E+03  0.00000000000E+00 0.  1.
         22    1    3    3    0    0  0.95731399362E+03 -0.18288072140E+03  0.16924540022E+03  0.98921152750E+03  0.00000000000E+00 0.  1.
</event>
<event>
 7    1  0.5018917E-005  0.3205843E+02  0.7818608E-02  0.1618008E+00
          2   -1    0    0  502    0  0.00000000000E+00  0.00000000000E+00  0.29908881588E+02  0.29908881588E+02  0.00000000000E+00 0. -1.
          1   -1    0    0  501    0 -0.00000000000E+00 -0.00000000000E+00 -0.53005680739E+03  0.53005680739E+03  0.00000000000E+00 0. -1.
         25    2    1    2    0    0 -0.37227573541E+02 -0.26066619731E+01 -0.24578566546E+03  0.27825573364E+03  0.12499189188E+03 0.  0.
          2    1    1    2  501    0  0.22740596025E+02  0.22899957892E+02 -0.25473720717E+03  0.25677341664E+03  0.00000000000E+00 0. -1.
          1    1    1    2  502    0  0.14486977516E+02 -0.20293295919E+02  0.37494683545E+00  0.24936538692E+02  0.00000000000E+00 0. -1.
         22    1    3    3    0    0  0.16351139681E+02  0.51464626589E+02 -0.92452816212E+02  0.10706769253E+03  0.00000000000E+00 0. -1.
         22    1    3    3    0    0 -0.53578713222E+02 -0.54071288562E+02 -0.15333284925E+03  0.17118804110E+03  0.00000000000E+00 0. -1.
</event>
<event>
 7    1  0.5018917E-005  0.8627178E+03  0.7818608E-02  0.1209174E+00
          2   -1    0    0  502    0  0.00000000000E+00  0.00000000000E+00  0.14724548496E+04  0.14724548496E+04  0.00000000000E+00 0. -1.
          1   -1    0    0  501    0 -0.00000000000E+00 -0.00000000000E+00 -0.14001669965E+04  0.14001669965E+04  0.00000000000E+00 0. -1.
         25    2    1    2    0    0  0.85821522088E+03 -0.17510261295E+03 -0.76257623244E+03  0.11680504712E+04  0.12500041041E+03 0.  0.
          2    1    1    2  501    0 -0.18651353944E+02 -0.14699036068E+02 -0.28843225873E+03  0.28940819363E+03  0.00000000000E+00 0. -1.
          1    1    1    2  502    0 -0.83956386694E+03  0.18980164902E+03  0.11232963443E+04  0.14151631813E+04  0.00000000000E+00 0. -1.
         22    1    3    3    0    0  0.84780479234E+03 -0.16310052449E+03 -0.72547965331E+03  0.11276947612E+04  0.00000000000E+00 0. -1.
         22    1    3    3    0    0  0.10410428537E+02 -0.12002088462E+02 -0.37096579124E+02  0.40355710036E+02  0.00000000000E+00 0. -1.
</event>
<event>
 7    1  0.5018917E-005  0.4708516E+02  0.7818608E-02  0.1486511E+00
          2   -1    0    0  502    0  0.00000000000E+00  0.00000000000E+00  0.15233643698E+03  0.15233643698E+03  0.00000000000E+00 0. -1.
          1   -1    0    0  501    0 -0.00000000000E+00 -0.00000000000E+00 -0.77922490012E+03  0.77922490012E+03  0.00000000000E+00 0. -1.
         25    2    1    2    0    0 -0.11386952667E+02 -0.17419451812E+02  0.50224845684E+02  0.13630859833E+03  0.12499759542E+03 0.  0.
          2    1    1    2  501    0 -0.17915788570E+02  0.43857609887E+02 -0.72873454976E+03  0.73027290066E+03  0.00000000000E+00 0. -1.
          1    1    1    2  502    0  0.29302741237E+02 -0.26438158076E+02  0.51621240932E+02  0.64979838118E+02  0.00000000000E+00 0. -1.
         22    1    3    3    0    0  0.49709068776E+02  0.76046302248E+01  0.49091664850E+02  0.70276692275E+02  0.00000000000E+00 0. -1.
         22    1    3    3    0    0 -0.61096021443E+02 -0.25024082036E+02  0.11331808342E+01  0.66031906051E+02  0.00000000000E+00 0. -1.
</event>
<event>
 7    1  0.5018917E-005  0.1906991E+04  0.7818608E-02  0.1100071E+00
          2   -1    0    0  502    0  0.00000000000E+00  0.00000000000E+00  0.23141957658E+04  0.23141957658E+04  0.00000000000E+00 0. -1.
          1   -1    0    0  501    0 -0.00000000000E+00 -0.00000000000E+00 -0.24176690906E+04  0.24176690906E+04  0.00000000000E+00 0. -1.
         25    2    1    2    0    0  0.18826360556E+04 -0.33702641870E+03  0.92193050411E+02  0.19188615368E+04  0.12499885793E+03 0.  0.
          2    1    1    2  501    0 -0.32401014250E+01  0.38695591909E+02 -0.81186686253E+03  0.81279496158E+03  0.00000000000E+00 0. -1.
          1    1    1    2  502    0 -0.18793959541E+04  0.29833082679E+03  0.61620048730E+03  0.20002083579E+04  0.00000000000E+00 0. -1.
         22    1    3    3    0    0  0.14062521259E+04 -0.24397496957E+03  0.14748060072E+02  0.14273353960E+04  0.00000000000E+00 0. -1.
         22    1    3    3    0    0  0.47638392963E+03 -0.93051449127E+02  0.77444990339E+02  0.49152614084E+03  0.00000000000E+00 0. -1.
</event>
<event>
 7    1  0.5018917E-005  0.3011940E+03  0.7818608E-02  0.1150219E+00
          2   -1    0    0  502    0  0.00000000000E+00  0.00000000000E+00  0.25713962148E+04  0.25713962148E+04  0.00000000000E+00 0. -1.
          1   -1    0    0  501    0 -0.00000000000E+00 -0.00000000000E+00 -0.26964009706E+03  0.26964009706E+03  0.00000000000E+00 0. -1.
         25    2    1    2    0    0 -0.30124243208E+03 -0.25894862034E+03  0.39576650187E+03  0.57450624547E+03  0.12499964487E+03 0.  0.
          2    1    1    2  501    0  0.17541909662E+03  0.21887327962E+03 -0.67601517711E+02  0.28852614645E+03  0.00000000000E+00 0. -1.
          1    1    1    2  502    0  0.12582333547E+03  0.40075340721E+02  0.19735911336E+04  0.19780039199E+04  0.00000000000E+00 0. -1.
         22    1    3    3    0    0 -0.12675340639E+03 -0.33099482197E+02  0.12817996505E+03  0.18328149168E+03  0.00000000000E+00 0.  1.
         22    1    3    3    0    0 -0.17448902569E+03 -0.22584913815E+03  0.26758653682E+03  0.39122475379E+03  0.00000000000E+00 0.  1.
</event>
<event>
 7    1  0.5018917E-005  0.9589055E+03  0.7818608E-02  0.1159752E+00
          2   -1    0    0  502    0  0.00000000000E+00  0.00000000000E+00  0.83085472337E+03  0.83085472337E+03  0.00000000000E+00 0. -1.
          1   -1    0    0  501    0 -0.00000000000E+00 -0.00000000000E+00 -0.19097236414E+04  0.19097236414E+04  0.00000000000E+00 0. -1.
         25    2    1    2    0    0 -0.83896883495E+03  0.44006182611E+03 -0.23164857150E+03  0.98326421403E+03  0.12499734836E+03 0.  0.
          2    1    1    2  501    0  0.83829286704E+03 -0.47714036474E+03 -0.11222407075E+04  0.14798047385E+04  0.00000000000E+00 0. -1.
          1    1    1    2  502    0  0.67596791386E+00  0.37078538629E+02  0.27502036093E+03  0.27750941225E+03  0.00000000000E+00 0. -1.
         22    1    3    3    0    0 -0.36744924695E+03  0.13674845627E+03 -0.13290406133E+03  0.41398379062E+03  0.00000000000E+00 0. -1.
         22    1    3    3    0    0 -0.47151958800E+03  0.30331336984E+03 -0.98744510169E+02  0.56928042341E+03  0.00000000000E+00 0. -1.
</event>
<event>
 7    1  0.5018917E-005  0.1300599E+04  0.7818608E-02  0.9826408E-01
          2   -1    0    0  502    0  0.00000000000E+00  0.00000000000E+00  0.30628404468E+04  0.30628404468E+04  0.00000000000E+00 0. -1.
          1   -1    0    0  501    0 -0.00000000000E+00 -0.00000000000E+00 -0.16377407614E+04  0.16377407614E+04  0.00000000000E+00 0. -1.
         25    2    1    2    0    0  0.14584577681E+04  0.49365653509E+03  0.74654325426E+03  0.17157352446E+04  0.12499905328E+03 0.  0.
          2    1    1    2  501    0 -0.11452167019E+04 -0.46464791876E+03 -0.80064316495E+03  0.14725652652E+04  0.00000000000E+00 0. -1.
          1    1    1    2  502    0 -0.31324106620E+03 -0.29008616335E+02  0.14791995962E+04  0.15122806984E+04  0.00000000000E+00 0. -1.
         22    1    3    3    0    0  0.95289884668E+03  0.30259560792E+03  0.54679877780E+03  0.11395478127E+04  0.00000000000E+00 0. -1.
         22    1    3    3    0    0  0.50555892139E+03  0.19106092717E+03  0.19974447645E+03  0.57618743197E+03  0.00000000000E+00 0. -1.
</event>
<event>
 7    1  0.5018917E-005  0.8464841E+03  0.7818608E-02  0.1092914E+00
          2   -1    0    0  502    0  0.00000000000E+00  0.00000000000E+00  0.32322585425E+04  0.32322585425E+04  0.00000000000E+00 0. -1.
          1   -1    0    0  501    0 -0.00000000000E+00 -0.00000000000E+00 -0.30748601021E+04  0.30748601021E+04  0.00000000000E+00 0. -1.
         25    2    1    2    0    0 -0.65643619354E+02 -0.89938993776E+03  0.11410178324E+04  0.14597109942E+04  0.12499259080E+03 0.  0.
          2    1    1    2  501    0  0.13519349505E+03  0.83314380893E+03 -0.28531672926E+04  0.29753940054E+04  0.00000000000E+00 0. -1.
          1    1    1    2  502    0 -0.69549875694E+02  0.66246128833E+02  0.18695479006E+04  0.18720136451E+04  0.00000000000E+00 0. -1.
         22    1    3    3    0    0 -0.21997535082E+02 -0.23351899702E+03  0.38967460544E+03  0.45482008712E+03  0.00000000000E+00 0. -1.
         22    1    3    3    0    0 -0.43646084271E+02 -0.66587094074E+03  0.75134322700E+03  0.10048909071E+04  0.00000000000E+00 0. -1.
</event>
<event>
 7    1  0.5018917E-005  0.6723580E+03  0.7818608E-02  0.1191552E+00
          2   -1    0    0  502    0  0.00000000000E+00  0.00000000000E+00  0.80557564655E+03  0.80557564655E+03  0.00000000000E+00 0. -1.
          1   -1    0    0  501    0 -0.00000000000E+00 -0.00000000000E+00 -0.81697455111E+03  0.81697455111E+03  0.00000000000E+00 0. -1.
         25    2    1    2    0    0  0.25464267452E+03 -0.63750327023E+03  0.22401093847E+03  0.73284354807E+03  0.12500181656E+03 0.  0.
          2    1    1    2  501    0 -0.28327029932E+02  0.23636020326E+02 -0.23253525296E+03  0.23544367894E+03  0.00000000000E+00 0. -1.
          1    1    1    2  502    0 -0.22631564458E+03  0.61386724991E+03 -0.28745900690E+01  0.65426297065E+03  0.00000000000E+00 0. -1.
         22    1    3    3    0    0 -0.18694014020E+01 -0.58532521704E+02 -0.65481771805E+01  0.58927322891E+02  0.00000000000E+00 0. -1.
         22    1    3    3    0    0  0.25651207592E+03 -0.57897074853E+03  0.23055911565E+03  0.67391622518E+03  0.00000000000E+00 0. -1.
</event>
<event>
 7    1  0.5018917E-005  0.3772668E+03  0.7818608E-02  0.1163603E+00
          2   -1    0    0  502    0  0.00000000000E+00  0.00000000000E+00  0.42553710064E+04  0.42553710064E+04  0.00000000000E+00 0. -1.
          1   -1    0    0  501    0 -0.00000000000E+00 -0.00000000000E+00 -0.80647940185E+03  0.80647940185E+03  0.00000000000E+00 0. -1.
         25    2    1    2    0    0  0.33659862107E+03  0.31710247270E+02  0.14823139063E+04  0.15255107717E+04  0.12499770578E+03 0.  0.
          2    1    1    2  501    0  0.68935954533E+02 -0.58078033520E+02 -0.76722202795E+03  0.77249910289E+03  0.00000000000E+00 0. -1.
          1    1    1    2  502    0 -0.40553457560E+03  0.26367786250E+02  0.27337997263E+04  0.27638405337E+04  0.00000000000E+00 0. -1.
         22    1    3    3    0    0  0.34500815224E+03  0.32774914593E+02  0.13801732900E+04  0.14230190197E+04  0.00000000000E+00 0.  1.
         22    1    3    3    0    0 -0.84095311783E+01 -0.10646673224E+01  0.10214061632E+03  0.10249175202E+03  0.00000000000E+00 0.  1.
</event>
<event>
 7    1  0.5018917E-005  0.1821837E+04  0.7818608E-02  0.1132414E+00
          2   -1    0    0  502    0  0.00000000000E+00  0.00000000000E+00  0.21234728404E+04  0.21234728404E+04  0.00000000000E+00 0. -1.
          1   -1    0    0  501    0 -0.00000000000E+00 -0.00000000000E+00 -0.34523608809E+04  0.34523608809E+04  0.00000000000E+00 0. -1.
         25    2    1    2    0    0  0.18148422156E+04 -0.22919983297E+03  0.46155985570E+03  0.18907268811E+04  0.12500323057E+03 0.  0.
          2    1    1    2  501    0 -0.13669820505E+02  0.23338748742E+02 -0.18702569612E+04  0.18704525287E+04  0.00000000000E+00 0. -1.
          1    1    1    2  502    0 -0.18011723951E+04  0.20586108423E+03  0.79809065021E+02  0.18146543114E+04  0.00000000000E+00 0. -1.
         22    1    3    3    0    0  0.81673118743E+02  0.15480612839E+02  0.18288569646E+02  0.85115330457E+02  0.00000000000E+00 0. -1.
         22    1    3    3    0    0  0.17331690969E+04 -0.24468044581E+03  0.44327128605E+03  0.18056115507E+04  0.00000000000E+00 0. -1.
</event>
<event>
 7    1  0.5018917E-005  0.9108701E+03  0.7818608E-02  0.1061951E+00
          2   -1    0    0  502    0  0.00000000000E+00  0.00000000000E+00  0.17103158100E+04  0.17103158100E+04  0.00000000000E+00 0. -1.
          1   -1    0    0  501    0 -0.00000000000E+00 -0.00000000000E+00 -0.84905441133E+03  0.84905441133E+03  0.00000000000E+00 0. -1.
         25    2    1    2    0    0  0.80728763596E+03  0.13849233503E+03 -0.91607841650E+02  0.83361120119E+03  0.12498873574E+03 0.  0.
          2    1    1    2  501    0  0.13165791780E+03 -0.33027230477E+02 -0.19590659284E+03  0.23833589405E+03  0.00000000000E+00 0. -1.
          1    1    1    2  502    0 -0.93894555376E+03 -0.10546510455E+03  0.11487758331E+04  0.14874231261E+04  0.00000000000E+00 0. -1.
         22    1    3    3    0    0  0.17799427464E+03 -0.73476608646E+01  0.15504349512E+02  0.17881927966E+03  0.00000000000E+00 0. -1.
         22    1    3    3    0    0  0.62929336132E+03  0.14583999589E+03 -0.10711219116E+03  0.65479192153E+03  0.00000000000E+00 0. -1.
</event>
<event>
 7    1  0.5018917E-005  0.4434335E+03  0.7818608E-02  0.1176654E+00
          2   -1    0    0  502    0  0.00000000000E+00  0.00000000000E+00  0.15752521229E+04  0.15752521229E+04  0.00000000000E+00 0. -1.
          1   -1    0    0  501    0 -0.00000000000E+00 -0.00000000000E+00 -0.37972344503E+03  0.37972344503E+03  0.00000000000E+00 0. -1.
         25    2    1    2    0    0 -0.25809486209E+02 -0.45300100092E+03 -0.81439517446E+02  0.47763295137E+03  0.12499921928E+03 0.  0.
          2    1    1    2  501    0  0.79858492595E+02  0.41502313581E+03  0.35201293991E+03  0.55003153724E+03  0.00000000000E+00 0. -1.
          1    1    1    2  502    0 -0.54049006387E+02  0.37977865115E+02  0.92495525536E+03  0.92731107928E+03  0.00000000000E+00 0. -1.
         22    1    3    3    0    0  0.29918706970E+02 -0.35187204328E+03 -0.80317793979E+02  0.36216020198E+03  0.00000000000E+00 0.  1.
         22    1    3    3    0    0 -0.55728193178E+02 -0.10112895765E+03 -0.11217234675E+01  0.11547274940E+03  0.00000000000E+00 0.  1.
</event>
<event>
 7    1  0.5018917E-005  0.3327785E+03  0.7818608E-02  0.1240084E+00
          2   -1    0    0  502    0  0.00000000000E+00  0.00000000000E+00  0.84015909957E+03  0.84015909957E+03  0.00000000000E+00 0. -1.
          1   -1    0    0  501    0 -0.00000000000E+00 -0.00000000000E+00 -0.27247838020E+03  0.27247838020E+03  0.00000000000E+00 0. -1.
         25    2    1    2    0    0  0.29970807370E+03 -0.15126142938E+03  0.90672217418E+02  0.36953780888E+03  0.12502716393E+03 0.  0.
          2    1    1    2  501    0 -0.27350120235E+03  0.18736571244E+03  0.76659594030E+02  0.34027270129E+03  0.00000000000E+00 0. -1.
          1    1    1    2  502    0 -0.26206871351E+02 -0.36104283063E+02  0.40034890793E+03  0.40282696961E+03  0.00000000000E+00 0. -1.
         22    1    3    3    0    0  0.12140437290E+03 -0.40871543451E+02 -0.24293052835E+02  0.13038273367E+03  0.00000000000E+00 0. -1.
         22    1    3    3    0    0  0.17830370080E+03 -0.11038988592E+03  0.11496527025E+03  0.23915507521E+03  0.00000000000E+00 0. -1.
</event>
<event>
 7    1  0.5018917E-005  0.2156414E+03  0.7818608E-02  0.1315359E+00
          2   -1    0    0  502    0  0.00000000000E+00  0.00000000000E+00  0.37266468544E+03  0.37266468544E+03  0.00000000000E+00 0. -1.
          1   -1    0    0  501    0 -0.00000000000E+00 -0.00000000000E+00 -0.23513613822E+03  0.23513613822E+03  0.00000000000E+00 0. -1.
         25    2    1    2    0    0 -0.33779002146E+02  0.22423164925E+03 -0.79790018595E+02  0.27094764452E+03  0.12500130195E+03 0.  0.
          2    1    1    2  501    0  0.16248475555E+02 -0.19565306638E+03  0.11134587181E+03  0.22570343043E+03  0.00000000000E+00 0. -1.
          1    1    1    2  502    0  0.17530526590E+02 -0.28578582872E+02  0.10597269401E+03  0.11114974871E+03  0.00000000000E+00 0. -1.
         22    1    3    3    0    0 -0.78573774633E+02  0.13294106838E+03 -0.28413642120E+02  0.15701751743E+03  0.00000000000E+00 0.  1.
         22    1    3    3    0    0  0.44794772487E+02  0.91290580874E+02 -0.51376376475E+02  0.11393012709E+03  0.00000000000E+00 0.  1.
</event>
<event>
 7    1  0.5018917E-005  0.5677021E+03  0.7818608E-02  0.1053957E+00
          2   -1    0    0  502    0  0.00000000000E+00  0.00000000000E+00  0.25564810752E+04  0.25564810752E+04  0.00000000000E+00 0. -1.
          1   -1    0    0  501    0 -0.00000000000E+00 -0.00000000000E+00 -0.28464615921E+03  0.28464615921E+03  0.00000000000E+00 0. -1.
         25    2    1    2    0    0 -0.38904833006E+03  0.35260014741E+03  0.12422504086E+04  0.13544359799E+04  0.12500111629E+03 0.  0.
          2    1    1    2  501    0  0.23748152084E+03 -0.54339746221E+03  0.20595198113E+03  0.62776945865E+03  0.00000000000E+00 0. -1.
          1    1    1    2  502    0  0.15156680922E+03  0.19079731480E+03  0.82363252628E+03  0.85892179582E+03  0.00000000000E+00 0. -1.
         22    1    3    3    0    0 -0.18635859627E+03  0.25116268176E+03  0.74341843720E+03  0.80652538205E+03  0.00000000000E+00 0.  1.
         22    1    3    3    0    0 -0.20268973379E+03  0.10143746566E+03  0.49883197137E+03  0.54791059789E+03  0.00000000000E+00 0.  1.
</event>
<event>
 7    1  0.5018917E-005  0.3308649E+03  0.7818608E-02  0.1170230E+00
          2   -1    0    0  502    0  0.00000000000E+00  0.00000000000E+00  0.40713837865E+03  0.40713837865E+03  0.00000000000E+00 0. -1.
          1   -1    0    0  501    0 -0.00000000000E+00 -0.00000000000E+00 -0.14801439719E+04  0.14801439719E+04  0.00000000000E+00 0. -1.
         25    2    1    2    0    0 -0.27153587029E+03 -0.31264241576E+03 -0.86146641074E+03  0.96396380923E+03  0.12499935878E+03 0.  0.
          2    1    1    2  501    0  0.80661384560E+02  0.50640141732E+02 -0.48804484213E+03  0.49725089326E+03  0.00000000000E+00 0. -1.
          1    1    1    2  502    0  0.19087448573E+03  0.26200227402E+03  0.27650565963E+03  0.42606764804E+03  0.00000000000E+00 0. -1.
         22    1    3    3    0    0 -0.25705335708E+03 -0.22249902795E+03 -0.64731893288E+03  0.73116622371E+03  0.00000000000E+00 0. -1.
         22    1    3    3    0    0 -0.14482513217E+02 -0.90143387807E+02 -0.21414747786E+03  0.23279758553E+03  0.00000000000E+00 0. -1.
</event>
<event>
 7    1  0.5018917E-005  0.1718741E+03  0.7818608E-02  0.1181924E+00
          2   -1    0    0  502    0  0.00000000000E+00  0.00000000000E+00  0.50256792679E+03  0.50256792679E+03  0.00000000000E+00 0. -1.
          1   -1    0    0  501    0 -0.00000000000E+00 -0.00000000000E+00 -0.59391013999E+03  0.59391013999E+03  0.00000000000E+00 0. -1.
         25    2    1    2    0    0 -0.29641569017E+02  0.12318017657E+03  0.16642398263E+02  0.17875825248E+03  0.12500225958E+03 0.  0.
          2    1    1    2  501    0 -0.15424539168E+03 -0.44782039985E+02 -0.47410974995E+03  0.50057679427E+03  0.00000000000E+00 0. -1.
          1    1    1    2  502    0  0.18388696069E+03 -0.78398136581E+02  0.36612513848E+03  0.41714302003E+03  0.00000000000E+00 0. -1.
         22    1    3    3    0    0 -0.19919073679E+02  0.31760824501E+02 -0.51942587112E+02  0.64058971465E+02  0.00000000000E+00 0.  1.
         22    1    3    3    0    0 -0.97224953375E+01  0.91419352064E+02  0.68584985376E+02  0.11469928102E+03  0.00000000000E+00 0.  1.
</event>
<event>
 7    1  0.5018917E-005  0.9122203E+03  0.7818608E-02  0.1204923E+00
          2   -1    0    0  502    0  0.00000000000E+00  0.00000000000E+00  0.18073524645E+04  0.18073524645E+04  0.00000000000E+00 0. -1.
          1   -1    0    0  501    0 -0.00000000000E+00 -0.00000000000E+00 -0.13192589568E+04  0.13192589568E+04  0.00000000000E+00 0. -1.
         25    2    1    2    0    0  0.77913321194E+03  0.50484328029E+03  0.83645436235E+03  0.12558631016E+04  0.12498371930E+03 0.  0.
          2    1    1    2  501    0 -0.75564954130E+03 -0.50588543308E+03 -0.92295447982E+03  0.12956740611E+04  0.00000000000E+00 0. -1.
          1    1    1    2  502    0 -0.23483670642E+02  0.10421527936E+01  0.57459362518E+03  0.57507425865E+03  0.00000000000E+00 0. -1.
         22    1    3    3    0    0  0.54783633472E+03  0.35724064880E+03  0.50965970454E+03  0.82915532032E+03  0.00000000000E+00 0.  1.
         22    1    3    3    0    0  0.23129687722E+03  0.14760263149E+03  0.32679465782E+03  0.42670778129E+03  0.00000000000E+00 0.  1.
</event>
<event>
 7    1  0.5018917E-005  0.4517158E+02  0.7818608E-02  0.1579738E+00
          2   -1    0    0  502    0  0.00000000000E+00  0.00000000000E+00  0.29538028163E+03  0.29538028163E+03  0.00000000000E+00 0. -1.
          1   -1    0    0  501    0 -0.00000000000E+00 -0.00000000000E+00 -0.83148122533E+03  0.83148122533E+03  0.00000000000E+00 0. -1.
         25    2    1    2    0    0  0.11059477255E+02  0.40750251313E+02 -0.25317705526E+03  0.28549438485E+03  0.12500210979E+03 0.  0.
          2    1    1    2  501    0 -0.22066042987E+02  0.31181573456E+01 -0.56009095933E+03  0.56053413445E+03  0.00000000000E+00 0. -1.
          1    1    1    2  502    0  0.11006565732E+02 -0.43868408658E+02  0.27716707090E+03  0.28083298766E+03  0.00000000000E+00 0. -1.
         22    1    3    3    0    0 -0.38934229666E+02  0.65461458299E+02 -0.14777449625E+03  0.16624794286E+03  0.00000000000E+00 0.  1.
         22    1    3    3    0    0  0.49993706921E+02 -0.24711206986E+02 -0.10540255901E+03  0.11924644199E+03  0.00000000000E+00 0.  1.
</event>
<event>
 7    1  0.5018917E-005  0.2758175E+03  0.7818608E-02  0.1175837E+00
          2   -1    0    0  502    0  0.00000000000E+00  0.00000000000E+00  0.15050262028E+04  0.15050262028E+04  0.00000000000E+00 0. -1.
          1   -1    0    0  501    0 -0.00000000000E+00 -0.00000000000E+00 -0.16335858677E+04  0.16335858677E+04  0.00000000000E+00 0. -1.
         25    2    1    2    0    0 -0.33592100829E+03 -0.32906694715E+02 -0.12979917876E+03  0.38262159408E+03  0.12500273231E+03 0.  0.
          2    1    1    2  501    0  0.26615209916E+03 -0.48465294256E+02 -0.13619678453E+04  0.13885756141E+04  0.00000000000E+00 0. -1.
          1    1    1    2  502    0  0.69768909129E+02  0.81371988971E+02  0.13632073592E+04  0.13674148623E+04  0.00000000000E+00 0. -1.
         22    1    3    3    0    0  0.28086106146E+01 -0.99428801060E+01 -0.25407142829E+02  0.27427578550E+02  0.00000000000E+00 0.  1.
         22    1    3    3    0    0 -0.33872961890E+03 -0.22963814609E+02 -0.10439203593E+03  0.35519401553E+03  0.00000000000E+00 0.  1.
</event>
<event>
 7    1  0.5018917E-005  0.1537020E+03  0.7818608E-02  0.1246785E+00
          2   -1    0    0  502    0  0.00000000000E+00  0.00000000000E+00  0.37827937011E+04  0.37827937011E+04  0.00000000000E+00 0. -1.
          1   -1    0    0  501    0 -0.00000000000E+00 -0.00000000000E+00 -0.23048535668E+04  0.23048535668E+04  0.00000000000E+00 0. -1.
         25    2    1    2    0    0  0.13648403472E+03  0.14641078720E+03  0.58615567726E+02  0.24315630957E+03  0.12500078304E+03 0.  0.
          2    1    1    2  501    0 -0.14248502590E+03 -0.56338809549E+02 -0.22093686228E+04  0.22146750903E+04  0.00000000000E+00 0. -1.
          1    1    1    2  502    0  0.60009911783E+01 -0.90071977648E+02  0.36286931894E+04  0.36298158681E+04  0.00000000000E+00 0. -1.
         22    1    3    3    0    0 -0.23637242255E+02  0.29079049913E+02  0.97671208025E+01  0.38726050845E+02  0.00000000000E+00 0. -1.
         22    1    3    3    0    0  0.16012127698E+03  0.11733173728E+03  0.48848446923E+02  0.20443025872E+03  0.00000000000E+00 0. -1.
</event>
<event>
 7    1  0.5018917E-005  0.6240201E+03  0.7818608E-02  0.1135127E+00
          2   -1    0    0  502    0  0.00000000000E+00  0.00000000000E+00  0.17117419381E+04  0.17117419381E+04  0.00000000000E+00 0. -1.
          1   -1    0    0  501    0 -0.00000000000E+00 -0.00000000000E+00 -0.13539440603E+04  0.13539440603E+04  0.00000000000E+00 0. -1.
         25    2    1    2    0    0 -0.92919905129E+02  0.58544295474E+03  0.39901219468E+03  0.72540601544E+03  0.12500237483E+03 0.  0.
          2    1    1    2  501    0  0.52535290208E+02  0.55464277777E+02 -0.10996312808E+04  0.11022818136E+04  0.00000000000E+00 0. -1.
          1    1    1    2  502    0  0.40384614921E+02 -0.64090723252E+03  0.10584169640E+04  0.12379981694E+04  0.00000000000E+00 0. -1.
         22    1    3    3    0    0 -0.10368134657E+02  0.23160505909E+03  0.90922433270E+02  0.24902869410E+03  0.00000000000E+00 0. -1.
         22    1    3    3    0    0 -0.82551770472E+02  0.35383789565E+03  0.30808976141E+03  0.47637732135E+03  0.00000000000E+00 0. -1.
</event>
<event>
 7    1  0.5018917E-005  0.4284133E+03  0.7818608E-02  0.1117271E+00
          2   -1    0    0  502    0  0.00000000000E+00  0.00000000000E+00  0.69038336446E+03  0.69038336446E+03  0.00000000000E+00 0. -1.
          1   -1    0    0  501    0 -0.00000000000E+00 -0.00000000000E+00 -0.10373421130E+04  0.10373421130E+04  0.00000000000E+00 0. -1.
         25    2    1    2    0    0  0.46991485461E+02  0.44691401082E+03 -0.60688789074E+03  0.76542653018E+03  0.12499811364E+03 0.  0.
          2    1    1    2  501    0 -0.16488370658E+03 -0.37371408887E+03 -0.21913610661E+03  0.46354017100E+03  0.00000000000E+00 0. -1.
          1    1    1    2  502    0  0.11789222112E+03 -0.73199921955E+02  0.47906524876E+03  0.49875877631E+03  0.00000000000E+00 0. -1.
         22    1    3    3    0    0 -0.24227455248E+02  0.14424257434E+03 -0.12752553131E+03  0.19405064024E+03  0.00000000000E+00 0.  1.
         22    1    3    3    0    0  0.71218940709E+02  0.30267143648E+03 -0.47936235943E+03  0.57137588995E+03  0.00000000000E+00 0.  1.
</event>
<event>
 7    1  0.5018917E-005  0.9989786E+03  0.7818608E-02  0.1102027E+00
          2   -1    0    0  502    0  0.00000000000E+00  0.00000000000E+00  0.34365303662E+04  0.34365303662E+04  0.00000000000E+00 0. -1.
          1   -1    0    0  501    0 -0.00000000000E+00 -0.00000000000E+00 -0.98937278269E+03  0.98937278269E+03  0.00000000000E+00 0. -1.
         25    2    1    2    0    0 -0.27997792466E+03 -0.99251649594E+03  0.15631123077E+04  0.18768115990E+04  0.12500023548E+03 0.  0.
          2    1    1    2  501    0  0.53914444273E+02  0.48130823515E+02 -0.69316042334E+03  0.69691801237E+03  0.00000000000E+00 0. -1.
          1    1    1    2  502    0  0.22606348039E+03  0.94438567243E+03  0.15772056992E+04  0.18521735375E+04  0.00000000000E+00 0. -1.
         22    1    3    3    0    0 -0.12448733421E+03 -0.46511033204E+03  0.84255661728E+03  0.97042587078E+03  0.00000000000E+00 0. -1.
         22    1    3    3    0    0 -0.15549059045E+03 -0.52740616390E+03  0.72055569041E+03  0.90638572827E+03  0.00000000000E+00 0. -1.
</event>
<event>
 7    1  0.5018917E-005  0.5973603E+02  0.7818608E-02  0.1404433E+00
          2   -1    0    0  502    0  0.00000000000E+00  0.00000000000E+00  0.93497281868E+03  0.93497281868E+03  0.00000000000E+00 0. -1.
          1   -1    0    0  501    0 -0.00000000000E+00 -0.00000000000E+00 -0.37690030073E+02  0.37690030073E+02  0.00000000000E+00 0. -1.
         25    2    1    2    0    0 -0.85274187736E+01 -0.24131180674E+01  0.19101938082E+03  0.22845400014E+03  0.12499714527E+03 0.  0.
          2    1    1    2  501    0  0.10224957884E+02 -0.58854425743E+02  0.33163740311E+02  0.68324423632E+02  0.00000000000E+00 0. -1.
          1    1    1    2  502    0 -0.16975391107E+01  0.61267543810E+02  0.67309966748E+03  0.67588442498E+03  0.00000000000E+00 0. -1.
         22    1    3    3    0    0 -0.23563245964E+02 -0.12507099817E+02 -0.85892668640E+01  0.28025517149E+02  0.00000000000E+00 0. -1.
         22    1    3    3    0    0  0.15035827191E+02  0.10093981750E+02  0.19960864768E+03  0.20042848299E+03  0.00000000000E+00 0. -1.
</event>
<event>
 7    1  0.5018917E-005  0.3323853E+03  0.7818608E-02  0.1134914E+00
          2   -1    0    0  502    0  0.00000000000E+00  0.00000000000E+00  0.12758801731E+04  0.12758801731E+04  0.00000000000E+00 0. -1.
          1   -1    0    0  501    0 -0.00000000000E+00 -0.00000000000E+00 -0.50889758211E+03  0.50889758211E+03  0.00000000000E+00 0. -1.
         25    2    1    2    0    0  0.36937131461E+03 -0.21218475300E+03 -0.86950330848E+02  0.45237497307E+03  0.12500087505E+03 0.  0.
          2    1    1    2  501    0 -0.26429802860E+03  0.11401662699E+03 -0.14560517777E+03  0.32257418828E+03  0.00000000000E+00 0. -1.
          1    1    1    2  502    0 -0.10507328601E+03  0.98168126011E+02  0.99953809960E+03  0.10098285938E+04  0.00000000000E+00 0. -1.
         22    1    3    3    0    0  0.12054388064E+03 -0.64717239325E+01 -0.15462244587E+02  0.12170370323E+03  0.00000000000E+00 0. -1.
         22    1    3    3    0    0  0.24882743397E+03 -0.20571302906E+03 -0.71488086261E+02  0.33067126984E+03  0.00000000000E+00 0. -1.
</event>
<event>
 7    1  0.5018917E-005  0.1142628E+04  0.7818608E-02  0.1086160E+00
          2   -1    0    0  502    0  0.00000000000E+00  0.00000000000E+00  0.14594715821E+04  0.14594715821E+04  0.00000000000E+00 0. -1.
          1   -1    0    0  501    0 -0.00000000000E+00 -0.00000000000E+00 -0.17534033767E+04  0.17534033767E+04  0.00000000000E+00 0. -1.
         25    2    1    2    0    0 -0.83486482542E+03 -0.82250115355E+03 -0.55774121308E+03  0.13039195943E+04  0.12499449340E+03 0.  0.
          2    1    1    2  501    0  0.82752096899E+03  0.74504193698E+03 -0.44262667696E+03  0.11982473940E+04  0.00000000000E+00 0. -1.
          1    1    1    2  502    0  0.73438564369E+01  0.77459216568E+02  0.70643609546E+03  0.71070797057E+03  0.00000000000E+00 0. -1.
         22    1    3    3    0    0 -0.47808651478E+03 -0.43940113606E+03 -0.37257318495E+03  0.74863265500E+03  0.00000000000E+00 0.  1.
         22    1    3    3    0    0 -0.35677831064E+03 -0.38310001749E+03 -0.18516802813E+03  0.55528693933E+03  0.00000000000E+00 0.  1.
</event>
<event>
 7    1  0.5018917E-005  0.1465628E+04  0.7818608E-02  0.1131837E+00
          2   -1    0    0  502    0  0.00000000000E+00  0.00000000000E+00  0.30849918176E+04  0.30849918176E+04  0.00000000000E+00 0. -1.
          1   -1    0    0  501    0 -0.00000000000E+00 -0.00000000000E+00 -0.10274302038E+04  0.10274302038E+04  0.00000000000E+00 0. -1.
         25    2    1    2    0    0 -0.12495967577E+04 -0.72606449642E+03  0.92531462645E+03  0.17206084556E+04  0.12499835912E+03 0.  0.
          2    1    1    2  501    0  0.12797576408E+04  0.74145156902E+03  0.23934642347E+03  0.14982712568E+04  0.00000000000E+00 0. -1.
          1    1    1    2  502    0 -0.30160883165E+02 -0.15387072599E+02  0.89290056387E+03  0.89354230892E+03  0.00000000000E+00 0. -1.
         22    1    3    3    0    0 -0.98088613906E+03 -0.56540201863E+03  0.66192682420E+03  0.13114740490E+04  0.00000000000E+00 0.  1.
         22    1    3    3    0    0 -0.26871061861E+03 -0.16066247780E+03  0.26338780225E+03  0.40913440664E+03  0.00000000000E+00 0.  1.
</event>
<event>
 7    1  0.5018917E-005  0.3774114E+03  0.7818608E-02  0.1237099E+00
          2   -1    0    0  502    0  0.00000000000E+00  0.00000000000E+00  0.47564628217E+03  0.47564628217E+03  0.00000000000E+00 0. -1.
          1   -1    0    0  501    0 -0.00000000000E+00 -0.00000000000E+00 -0.16476836450E+04  0.16476836450E+04  0.00000000000E+00 0. -1.
         25    2    1    2    0    0  0.34465797181E+03  0.20063661674E+03 -0.57122378709E+03  0.70778919007E+03  0.12499901250E+03 0.  0.
          2    1    1    2  501    0 -0.32891342902E+03 -0.16326766129E+03 -0.97360450287E+03  0.10405508642E+04  0.00000000000E+00 0. -1.
          1    1    1    2  502    0 -0.15744542792E+02 -0.37368955454E+02  0.37279092710E+03  0.37498987291E+03  0.00000000000E+00 0. -1.
         22    1    3    3    0    0  0.22740161754E+03  0.18594357505E+03 -0.45816009226E+03  0.54424000120E+03  0.00000000000E+00 0. -1.
         22    1    3    3    0    0  0.11725635428E+03  0.14693041696E+02 -0.11306369483E+03  0.16354918887E+03  0.00000000000E+00 0. -1.
</event>
<event>
 7    1  0.5018917E-005  0.1785970E+03  0.7818608E-02  0.1276520E+00
          2   -1    0    0  502    0  0.00000000000E+00  0.00000000000E+00  0.18572564909E+04  0.18572564909E+04  0.00000000000E+00 0. -1.
          1   -1    0    0  501    0 -0.00000000000E+00 -0.00000000000E+00 -0.99556422258E+02  0.99556422258E+02  0.00000000000E+00 0. -1.
         25    2    1    2    0    0 -0.71348029069E+01  0.19369646489E+03  0.13340133654E+03  0.26643925099E+03  0.12499892780E+03 0.  0.
          2    1    1    2  501    0  0.52586391533E+02 -0.15759312478E+03  0.18015846831E+03  0.24506732801E+03  0.00000000000E+00 0. -1.
          1    1    1    2  502    0 -0.45451588626E+02 -0.36103340109E+02  0.14441402638E+04  0.14453063341E+04  0.00000000000E+00 0. -1.
         22    1    3    3    0    0  0.53485796550E+02  0.52422792029E+02  0.27586673825E+02  0.79811679155E+02  0.00000000000E+00 0. -1.
         22    1    3    3    0    0 -0.60620599457E+02  0.14127367286E+03  0.10581466272E+03  0.18662757183E+03  0.00000000000E+00 0. -1.
</event>
<event>
 7    1  0.5018917E-005  0.1983651E+03  0.7818608E-02  0.1259356E+00
          2   -1    0    0  502    0  0.00000000000E+00  0.00000000000E+00  0.32017709630E+04  0.32017709630E+04  0.00000000000E+00 0. -1.
          1   -1    0    0  501    0 -0.00000000000E+00 -0.00000000000E+00 -0.18509288891E+03  0.18509288891E+03  0.00000000000E+00 0. -1.
         25    2    1    2    0    0  0.69175090212E+02  0.23482201419E+03  0.27070756640E+04  0.27209940161E+04  0.12499285392E+03 0.  0.
          2    1    1    2  501    0 -0.88934454810E+02 -0.17633881361E+03 -0.12050355290E+03  0.23135647970E+03  0.00000000000E+00 0. -1.
          1    1    1    2  502    0  0.19759364598E+02 -0.58483200573E+02  0.43010596294E+03  0.43451335606E+03  0.00000000000E+00 0. -1.
         22    1    3    3    0    0 -0.47017556419E+00  0.97562237529E+02  0.56219137251E+03  0.57059420833E+03  0.00000000000E+00 0. -1.
         22    1    3    3    0    0  0.69645265776E+02  0.13725977666E+03  0.21448842915E+04  0.21503998078E+04  0.00000000000E+00 0. -1.
</event>
<event>
 7    1  0.5018917E-005  0.8975678E+03  0.7818608E-02  0.1163968E+00
          2   -1    0    0  502    0  0.00000000000E+00  0.00000000000E+00  0.15498867591E+04  0.15498867591E+04  0.00000000000E+00 0. -1.
          1   -1    0    0  501    0 -0.00000000000E+00 -0.00000000000E+00 -0.89922266346E+03  0.89922266346E+03  0.00000000000E+00 0. -1.
         25    2    1    2    0    0 -0.36329133525E+03 -0.82532612424E+03  0.20141463995E+02  0.91059006566E+03  0.12499913390E+03 0.  0.
          2    1    1    2  501    0  0.39349830212E+03  0.80272228444E+03 -0.12817449651E+02  0.89407397162E+03  0.00000000000E+00 0. -1.
          1    1    1    2  502    0 -0.30206966873E+02  0.22603839806E+02  0.64334008130E+03  0.64444538530E+03  0.00000000000E+00 0. -1.
         22    1    3    3    0    0 -0.17789408014E+03 -0.38179273320E+03 -0.52309191737E+02  0.42443874283E+03  0.00000000000E+00 0. -1.
         22    1    3    3    0    0 -0.18539725511E+03 -0.44353339104E+03  0.72450655732E+02  0.48615132283E+03  0.00000000000E+00 0. -1.
</event>
<event>
 7    1  0.5018917E-005  0.3612935E+03  0.7818608E-02  0.1202338E+00
          2   -1    0    0  502    0  0.00000000000E+00  0.00000000000E+00  0.14398054929E+04  0.14398054929E+04  0.00000000000E+00 0. -1.
          1   -1    0    0  501    0 -0.00000000000E+00 -0.00000000000E+00 -0.26520119213E+03  0.26520119213E+03  0.00000000000E+00 0. -1.
         25    2    1    2    0    0 -0.21091854705E+03 -0.28913610039E+03  0.17232108565E+03  0.41641801908E+03  0.12499236785E+03 0.  0.
          2    1    1    2  501    0  0.16361031176E+03  0.32769372572E+03  0.93839297208E+02  0.37809697922E+03  0.00000000000E+00 0. -1.
          1    1    1    2  502    0  0.47308235286E+02 -0.38557625338E+02  0.90844391789E+03  0.91049168670E+03  0.00000000000E+00 0. -1.
         22    1    3    3    0    0 -0.14537889533E+03 -0.27356979428E+03  0.15710592661E+03  0.34735821241E+03  0.00000000000E+00 0.  1.
         22    1    3    3    0    0 -0.65539651719E+02 -0.15566306103E+02  0.15215159043E+02  0.69059806674E+02  0.00000000000E+00 0.  1.
</event>
<event>
 7    1  0.5018917E-005  0.6431183E+03  0.7818608E-02  0.1038607E+00
          2   -1    0    0  502    0  0.00000000000E+00  0.00000000000E+00  0.88411639829E+03  0.88411639829E+03  0.00000000000E+00 0. -1.
          1   -1    0    0  501    0 -0.00000000000E+00 -0.00000000000E+00 -0.20064587390E+04  0.20064587390E+04  0.00000000000E+00 0. -1.
         25    2    1    2    0    0 -0.58390297887E+03 -0.36453134548E+03 -0.13304951062E+04  0.15032192241E+04  0.12500007011E+03 0.  0.
          2    1    1    2  501    0  0.58453525479E+03  0.96350167872E+02 -0.40533174302E+03  0.71781518571E+03  0.00000000000E+00 0. -1.
          1    1    1    2  502    0 -0.63227592203E+00  0.26818117760E+03  0.61348450842E+03  0.66954072756E+03  0.00000000000E+00 0. -1.
         22    1    3    3    0    0 -0.54117985648E+03 -0.34165213126E+03 -0.12901124381E+04  0.14401360765E+04  0.00000000000E+00 0.  1.
         22    1    3    3    0    0 -0.42723122388E+02 -0.22879214218E+02 -0.40382668072E+02  0.63083147595E+02  0.00000000000E+00 0.  1.
</event>
<event>
 7    1  0.5018917E-005  0.1537161E+03  0.7818608E-02  0.1268834E+00
          2   -1    0    0  502    0  0.00000000000E+00  0.00000000000E+00  0.23727273983E+04  0.23727273983E+04  0.00000000000E+00 0. -1.
          1   -1    0    0  501    0 -0.00000000000E+00 -0.00000000000E+00 -0.53560822311E+03  0.53560822311E+03  0.00000000000E+00 0. -1.
         25    2    1    2    0    0 -0.15930592647E+03 -0.18924249423E+02  0.14049725306E+04  0.14196159136E+04  0.12500010026E+03 0.  0.
          2    1    1    2  501    0  0.12719342117E+02  0.71498745284E+02 -0.51943118698E+03  0.52448318396E+03  0.00000000000E+00 0. -1.
          1    1    1    2  502    0  0.14658658436E+03 -0.52574495861E+02  0.95157783162E+03  0.96423652387E+03  0.00000000000E+00 0. -1.
         22    1    3    3    0    0 -0.14830158352E+03  0.24129290183E+02  0.87711308655E+03  0.88988929026E+03  0.00000000000E+00 0. -1.
         22    1    3    3    0    0 -0.11004342955E+02 -0.43053539605E+02  0.52785944403E+03  0.52972662335E+03  0.00000000000E+00 0. -1.
</event>
<event>
 7    1  0.5018917E-005  0.1930518E+03  0.7818608E-02  0.1247924E+00
          2   -1    0    0  502    0  0.00000000000E+00  0.00000000000E+00  0.83509517371E+02  0.83509517371E+02  0.00000000000E+00 0. -1.
          1   -1    0    0  501    0 -0.00000000000E+00 -0.00000000000E+00 -0.23799848899E+04  0.23799848899E+04  0.00000000000E+00 0. -1.
         25    2    1    2    0    0  0.24526740062E+03 -0.49312468932E+02 -0.39384706498E+03  0.48304118787E+03  0.12500184473E+03 0.  0.
          2    1    1    2  501    0 -0.17589702527E+03  0.64691265552E+02 -0.19001345475E+04  0.19093548706E+04  0.00000000000E+00 0. -1.
          1    1    1    2  502    0 -0.69370375352E+02 -0.15378796620E+02 -0.24937600585E+01  0.71098348794E+02  0.00000000000E+00 0. -1.
         22    1    3    3    0    0 -0.12914322415E+02 -0.33343478049E+01 -0.54673515945E+01  0.14414906596E+02  0.00000000000E+00 0. -1.
         22    1    3    3    0    0  0.25818172304E+03 -0.45978121127E+02 -0.38837971339E+03  0.46862628128E+03  0.00000000000E+00 0. -1.
</event>
<event>
 7    1  0.5018917E-005  0.8607669E+03  0.7818608E-02  0.9844580E-01
          2   -1    0    0  502    0  0.00000000000E+00  0.00000000000E+00  0.46789764491E+04  0.46789764491E+04  0.00000000000E+00 0. -1.
          1   -1    0    0  501    0 -0.00000000000E+00 -0.00000000000E+00 -0.15110830556E+04  0.15110830556E+04  0.00000000000E+00 0. -1.
         25    2    1    2    0    0 -0.11737514933E+04 -0.10473188625E+03  0.19072418882E+04  0.22454081283E+04  0.12499882598E+03 0.  0.
          2    1    1    2  501    0  0.77414270862E+03  0.33549438871E+03 -0.11856519604E+04  0.14552058237E+04  0.00000000000E+00 0. -1.
          1    1    1    2  502    0  0.39960878468E+03 -0.23076250246E+03  0.24463034657E+04  0.24894455526E+04  0.00000000000E+00 0. -1.
         22    1    3    3    0    0 -0.36318660271E+03 -0.81993652712E+02  0.65894565399E+03  0.75685985650E+03  0.00000000000E+00 0. -1.
         22    1    3    3    0    0 -0.81056489059E+03 -0.22738233542E+02  0.12482962343E+04  0.14885482718E+04  0.00000000000E+00 0. -1.
</event>
<event>
 7    1  0.5018917E-005  0.1523810E+03  0.7818608E-02  0.1239125E+00
          2   -1    0    0  502    0  0.00000000000E+00  0.00000000000E+00  0.13776087603E+04  0.13776087603E+04  0.00000000000E+00 0. -1.
          1   -1    0    0  501    0 -0.00000000000E+00 -0.00000000000E+00 -0.18051309765E+03  0.18051309765E+03  0.00000000000E+00 0. -1.
         25    2    1    2    0    0 -0.94436683767E+02 -0.15283483355E+03  0.83811189181E+02  0.23433894313E+03  0.12495459674E+03 0.  0.
          2    1    1    2  501    0  0.13609882052E+03  0.63709896445E+02 -0.48450126993E+02  0.15789000810E+03  0.00000000000E+00 0. -1.
          1    1    1    2  502    0 -0.41662136749E+02  0.89124937107E+02  0.11617346005E+04  0.11658929068E+04  0.00000000000E+00 0. -1.
         22    1    3    3    0    0 -0.91001235877E+02 -0.16519564005E+03  0.10016723966E+03  0.21355163386E+03  0.00000000000E+00 0.  1.
         22    1    3    3    0    0 -0.34354478895E+01  0.12360806496E+02 -0.16356050478E+02  0.20787309270E+02  0.00000000000E+00 0.  1.
</event>
<event>
 7    1  0.5018917E-005  0.1247874E+03  0.7818608E-02  0.1284361E+00
          2   -1    0    0  502    0  0.00000000000E+00  0.00000000000E+00  0.10617981335E+03  0.10617981335E+03  0.00000000000E+00 0. -1.
          1   -1    0    0  501    0 -0.00000000000E+00 -0.00000000000E+00 -0.21576328738E+04  0.21576328738E+04  0.00000000000E+00 0. -1.
         25    2    1    2    0    0  0.98354110306E+02 -0.16335106463E+03 -0.48708943819E+03  0.53781361107E+03  0.12502103071E+03 0.  0.
          2    1    1    2  501    0 -0.57687541505E+02  0.51162283633E+02 -0.15996906790E+04  0.16015479076E+04  0.00000000000E+00 0. -1.
          1    1    1    2  502    0 -0.40666568802E+02  0.11218878100E+03  0.35327056770E+02  0.12445116849E+03  0.00000000000E+00 0. -1.
         22    1    3    3    0    0  0.62812097717E+02 -0.13063398259E+02 -0.80862251821E+02  0.10322168262E+03  0.00000000000E+00 0.  1.
         22    1    3    3    0    0  0.35542012589E+02 -0.15028766637E+03 -0.40622718637E+03  0.43459192845E+03  0.00000000000E+00 0.  1.
</event>
<event>
 7    1  0.5018917E-005  0.4375107E+03  0.7818608E-02  0.1138342E+00
          2   -1    0    0  502    0  0.00000000000E+00  0.00000000000E+00  0.85023673128E+03  0.85023673128E+03  0.00000000000E+00 0. -1.
          1   -1    0    0  501    0 -0.00000000000E+00 -0.00000000000E+00 -0.83480030611E+03  0.83480030611E+03  0.00000000000E+00 0. -1.
         25    2    1    2    0    0 -0.38039029641E+03 -0.35128411831E+03  0.32560300300E+02  0.53364808996E+03  0.12499120524E+03 0.  0.
          2    1    1    2  501    0  0.80722703113E+02  0.66826051196E+02 -0.50287678906E+03  0.51367980386E+03  0.00000000000E+00 0. -1.
          1    1    1    2  502    0  0.29966759329E+03  0.28445806711E+03  0.48575291392E+03  0.63770914357E+03  0.00000000000E+00 0. -1.
         22    1    3    3    0    0 -0.30739266416E+03 -0.23729965165E+03  0.66785604613E+02  0.39403260225E+03  0.00000000000E+00 0. -1.
         22    1    3    3    0    0 -0.72997632243E+02 -0.11398446665E+03 -0.34225304313E+02  0.13961548770E+03  0.00000000000E+00 0. -1.
</event>
<event>
 7    1  0.5018917E-005  0.4563797E+03  0.7818608E-02  0.1203471E+00
          2   -1    0    0  502    0  0.00000000000E+00  0.00000000000E+00  0.15606944070E+04  0.15606944070E+04  0.00000000000E+00 0. -1.
          1   -1    0    0  501    0 -0.00000000000E+00 -0.00000000000E+00 -0.36504983893E+03  0.36504983893E+03  0.00000000000E+00 0. -1.
         25    2    1    2    0    0 -0.30766942047E+03 -0.32830980813E+03  0.12305254744E+03  0.48292240640E+03  0.12499727502E+03 0.  0.
          2    1    1    2  501    0 -0.38615788691E+02  0.28047589966E+02 -0.13924979789E+03  0.14720174134E+03  0.00000000000E+00 0. -1.
          1    1    1    2  502    0  0.34628520917E+03  0.30026221816E+03  0.12118418185E+04  0.12956200982E+04  0.00000000000E+00 0. -1.
         22    1    3    3    0    0 -0.30176046675E+03 -0.33883343922E+03  0.11397996845E+03  0.46782359072E+03  0.00000000000E+00 0. -1.
         22    1    3    3    0    0 -0.59089537258E+01  0.10523631088E+02  0.90725789946E+01  0.15098815683E+02  0.00000000000E+00 0. -1.
</event>
<event>
 7    1  0.5018917E-005  0.1245914E+03  0.7818608E-02  0.1302194E+00
          2   -1    0    0  502    0  0.00000000000E+00  0.00000000000E+00  0.70114773717E+02  0.70114773717E+02  0.00000000000E+00 0. -1.
          1   -1    0    0  501    0 -0.00000000000E+00 -0.00000000000E+00 -0.75406510698E+03  0.75406510698E+03  0.00000000000E+00 0. -1.
         25    2    1    2    0    0  0.14405867113E+03  0.71141850479E+02 -0.48821276605E+03  0.52895392174E+03  0.12500593095E+03 0.  0.
          2    1    1    2  501    0 -0.10193424233E+03 -0.21106884617E+02 -0.20427084725E+03  0.22926549975E+03  0.00000000000E+00 0. -1.
          1    1    1    2  502    0 -0.42124428797E+02 -0.50034965862E+02  0.85332800404E+01  0.65960459205E+02  0.00000000000E+00 0. -1.
         22    1    3    3    0    0  0.10398987733E+03 -0.10402215647E+02 -0.18565921820E+03  0.21305268358E+03  0.00000000000E+00 0. -1.
         22    1    3    3    0    0  0.40068793804E+02  0.81544066126E+02 -0.30255354784E+03  0.31590123816E+03  0.00000000000E+00 0. -1.
</event>
<event>
 7    1  0.5018917E-005  0.3878149E+03  0.7818608E-02  0.1252293E+00
          2   -1    0    0  502    0  0.00000000000E+00  0.00000000000E+00  0.71685682325E+03  0.71685682325E+03  0.00000000000E+00 0. -1.
          1   -1    0    0  501    0 -0.00000000000E+00 -0.00000000000E+00 -0.19600592473E+04  0.19600592473E+04  0.00000000000E+00 0. -1.
         25    2    1    2    0    0  0.17354657201E+03 -0.36038531084E+03  0.28479620750E+03  0.50668446327E+03  0.12499712230E+03 0.  0.
          2    1    1    2  501    0  0.10255408420E+02  0.32270159815E+02 -0.17387758119E+04  0.17391054771E+04  0.00000000000E+00 0. -1.
          1    1    1    2  502    0 -0.18380198043E+03  0.32811515103E+03  0.21077718034E+03  0.43112613015E+03  0.00000000000E+00 0. -1.
         22    1    3    3    0    0  0.87482037750E+02 -0.12148438255E+03  0.42303928105E+02  0.15556729883E+03  0.00000000000E+00 0. -1.
         22    1    3    3    0    0  0.86064534265E+02 -0.23890092829E+03  0.24249227939E+03  0.35111716443E+03  0.00000000000E+00 0. -1.
</event>
<event>
 7    1  0.5018917E-005  0.8406822E+03  0.7818608E-02  0.1090251E+00
          2   -1    0    0  502    0  0.00000000000E+00  0.00000000000E+00  0.17948176470E+04  0.17948176470E+04  0.00000000000E+00 0. -1.
          1   -1    0    0  501    0 -0.00000000000E+00 -0.00000000000E+00 -0.86632314536E+03  0.86632314536E+03  0.00000000000E+00 0. -1.
         25    2    1    2    0    0  0.80135313058E+03  0.19839060384E+03  0.14234332472E+03  0.84700156744E+03  0.12499744626E+03 0.  0.
          2    1    1    2  501    0 -0.84688036416E+03 -0.10916790456E+03 -0.15485599495E+03  0.86781585706E+03  0.00000000000E+00 0. -1.
          1    1    1    2  502    0  0.45527233578E+02 -0.89222699284E+02  0.94100717184E+03  0.94632336784E+03  0.00000000000E+00 0. -1.
         22    1    3    3    0    0  0.52847831892E+03  0.15151546245E+03  0.15054357146E+03  0.57000845243E+03  0.00000000000E+00 0. -1.
         22    1    3    3    0    0  0.27287481166E+03  0.46875141393E+02 -0.82002467349E+01  0.27699311502E+03  0.00000000000E+00 0. -1.
</event>
<event>
 7    1  0.5018917E-005  0.1656748E+03  0.7818608E-02  0.1236961E+00
          2   -1    0    0  502    0  0.00000000000E+00  0.00000000000E+00  0.17327373922E+04  0.17327373922E+04  0.00000000000E+00 0. -1.
          1   -1    0    0  501    0 -0.00000000000E+00 -0.00000000000E+00 -0.14986988329E+04  0.14986988329E+04  0.00000000000E+00 0. -1.
         25    2    1    2    0    0  0.13613654996E+03  0.19017984964E+03  0.16552517168E+04  0.16763606907E+04  0.12500153463E+03 0.  0.
          2    1    1    2  501    0 -0.13359624143E+03 -0.97709925011E+02 -0.14490507227E+04  0.14584728939E+04  0.00000000000E+00 0. -1.
          1    1    1    2  502    0 -0.25403085323E+01 -0.92469924628E+02  0.27837565203E+02  0.96602640567E+02  0.00000000000E+00 0. -1.
         22    1    3    3    0    0  0.86881331078E+02  0.12214753490E+03  0.62633981160E+03  0.64402635472E+03  0.00000000000E+00 0. -1.
         22    1    3    3    0    0  0.49255218883E+02  0.68032314738E+02  0.10289119052E+04  0.10323343359E+04  0.00000000000E+00 0. -1.
</event>
<event>
 7    1  0.5018917E-005  0.2731416E+03  0.7818608E-02  0.1120688E+00
          2   -1    0    0  502    0  0.00000000000E+00  0.00000000000E+00  0.21588721885E+04  0.21588721885E+04  0.00000000000E+00 0. -1.
          1   -1    0    0  501    0 -0.00000000000E+00 -0.00000000000E+00 -0.32815678866E+03  0.32815678866E+03  0.00000000000E+00 0. -1.
         25    2    1    2    0    0  0.15114841215E+03  0.32282917074E+03  0.77440460114E+03  0.86162225884E+03  0.12500365870E+03 0.  0.
          2    1    1    2  501    0  0.77206118787E+02 -0.19371521203E+03 -0.23125315929E+03  0.31139105933E+03  0.00000000000E+00 0. -1.
          1    1    1    2  502    0 -0.22835453093E+03 -0.12911395871E+03  0.12875639580E+04  0.13140156590E+04  0.00000000000E+00 0. -1.
         22    1    3    3    0    0 -0.64499451218E+01  0.12256566235E+03  0.26395975255E+03  0.29109911430E+03  0.00000000000E+00 0. -1.
         22    1    3    3    0    0  0.15759835727E+03  0.20026350839E+03  0.51044484859E+03  0.57052314454E+03  0.00000000000E+00 0. -1.
</event>
<event>
 7    1  0.5018917E-005  0.8774828E+03  0.7818608E-02  0.1040097E+00
          2   -1    0    0  502    0  0.00000000000E+00  0.00000000000E+00  0.40503823655E+04  0.40503823655E+04  0.00000000000E+00 0. -1.
          1   -1    0    0  501    0 -0.00000000000E+00 -0.00000000000E+00 -0.26566837277E+03  0.26566837277E+03  0.00000000000E+00 0. -1.
         25    2    1    2    0    0 -0.49698385123E+03 -0.83322946362E+03  0.13910860450E+04  0.17005910442E+04  0.12500091015E+03 0.  0.
          2    1    1    2  501    0  0.44738679390E+03  0.64739964065E+03  0.14243581564E+04  0.16272914293E+04  0.00000000000E+00 0. -1.
          1    1    1    2  502    0  0.49597057339E+02  0.18582982297E+03  0.96926979130E+03  0.98816826478E+03  0.00000000000E+00 0. -1.
         22    1    3    3    0    0 -0.37670799629E+02 -0.72136373352E+02  0.18672731653E+03  0.20369054039E+03  0.00000000000E+00 0.  1.
         22    1    3    3    0    0 -0.45931305161E+03 -0.76109309026E+03  0.12043587285E+04  0.14969005038E+04  0.00000000000E+00 0.  1.
</event>
<event>
 7    1  0.5018917E-005  0.9987216E+03  0.7818608E-02  0.1089041E+00
          2   -1    0    0  502    0  0.00000000000E+00  0.00000000000E+00  0.21652985044E+04  0.21652985044E+04  0.00000000000E+00 0. -1.
          1   -1    0    0  501    0 -0.00000000000E+00 -0.00000000000E+00 -0.75337630764E+03  0.75337630764E+03  0.00000000000E+00 0. -1.
         25    2    1    2    0    0  0.89242472596E+02  0.10165553972E+04  0.28178782620E+03  0.10660115123E+04  0.12500828319E+03 0.  0.
          2    1    1    2  501    0 -0.12471383869E+02 -0.97851796357E+03  0.30777808534E+03  0.10258558818E+04  0.00000000000E+00 0. -1.
          1    1    1    2  502    0 -0.76771088728E+02 -0.38037433658E+02  0.82235628520E+03  0.82680741786E+03  0.00000000000E+00 0. -1.
         22    1    3    3    0    0  0.63676522124E+02  0.72028846212E+03  0.25779457020E+03  0.76767715126E+03  0.00000000000E+00 0. -1.
         22    1    3    3    0    0  0.25565950472E+02  0.29626693511E+03  0.23993255999E+02  0.29833436107E+03  0.00000000000E+00 0. -1.
</event>
<event>
 7    1  0.5018917E-005  0.2229155E+03  0.7818608E-02  0.1150049E+00
          2   -1    0    0  502    0  0.00000000000E+00  0.00000000000E+00  0.18124108505E+04  0.18124108505E+04  0.00000000000E+00 0. -1.
          1   -1    0    0  501    0 -0.00000000000E+00 -0.00000000000E+00 -0.30912401886E+03  0.30912401886E+03  0.00000000000E+00 0. -1.
         25    2    1    2    0    0  0.37518417825E+03  0.67265893965E+02  0.16448355189E+04  0.16930435021E+04  0.12499819019E+03 0.  0.
          2    1    1    2  501    0 -0.19783191788E+03 -0.89833270200E+02 -0.12056405584E+03  0.24848174123E+03  0.00000000000E+00 0. -1.
          1    1    1    2  502    0 -0.17735226038E+03  0.22567376234E+02 -0.20984631388E+02  0.18000962609E+03  0.00000000000E+00 0. -1.
         22    1    3    3    0    0  0.16705884687E+03 -0.44543530319E+01  0.93633538727E+03  0.95113219745E+03  0.00000000000E+00 0. -1.
         22    1    3    3    0    0  0.20812533138E+03  0.71720246997E+02  0.70850013163E+03  0.74191130462E+03  0.00000000000E+00 0. -1.
</event>
<event>
 7    1  0.5018917E-005  0.3034285E+03  0.7818608E-02  0.1255018E+00
          2   -1    0    0  502    0  0.00000000000E+00  0.00000000000E+00  0.25987252658E+03  0.25987252658E+03  0.00000000000E+00 0. -1.
          1   -1    0    0  501    0 -0.00000000000E+00 -0.00000000000E+00 -0.12754875493E+04  0.12754875493E+04  0.00000000000E+00 0. -1.
         25    2    1    2    0    0 -0.17136686085E+02 -0.28598114384E+03 -0.24525087904E+02  0.31353944963E+03  0.12500650341E+03 0.  0.
          2    1    1    2  501    0  0.10416342931E+02 -0.40813885200E+02 -0.87339890664E+03  0.87441404583E+03  0.00000000000E+00 0. -1.
          1    1    1    2  502    0  0.67203431535E+01  0.32679502904E+03 -0.11769102819E+03  0.34740658044E+03  0.00000000000E+00 0. -1.
         22    1    3    3    0    0  0.51215600635E+02 -0.85789639283E+02 -0.20314579922E+02  0.10195872750E+03  0.00000000000E+00 0.  1.
         22    1    3    3    0    0 -0.68352286720E+02 -0.20019150456E+03 -0.42105079819E+01  0.21158072212E+03  0.00000000000E+00 0.  1.
</event>
<event>
 7    1  0.5018917E-005  0.9531218E+03  0.7818608E-02  0.1035637E+00
          2   -1    0    0  502    0  0.00000000000E+00  0.00000000000E+00  0.25996027880E+04  0.25996027880E+04  0.00000000000E+00 0. -1.
          1   -1    0    0  501    0 -0.00000000000E+00 -0.00000000000E+00 -0.59081015701E+03  0.59081015701E+03  0.00000000000E+00 0. -1.
         25    2    1    2    0    0  0.47640562049E+03  0.93332983792E+03  0.88209249794E+03  0.13754197696E+04  0.12500186415E+03 0.  0.
          2    1    1    2  501    0 -0.50956241665E+03 -0.74726718072E+03  0.27906024129E+03  0.94653933575E+03  0.00000000000E+00 0. -1.
          1    1    1    2  502    0  0.33156796161E+02 -0.18606265720E+03  0.84763989174E+03  0.86845383965E+03  0.00000000000E+00 0. -1.
         22    1    3    3    0    0  0.10376842176E+03  0.19995964537E+03  0.26028588698E+03  0.34423899851E+03  0.00000000000E+00 0.  1.
         22    1    3    3    0    0  0.37263719873E+03  0.73337019254E+03  0.62180661095E+03  0.10311807711E+04  0.00000000000E+00 0.  1.
</event>
<event>
 7    1  0.5018917E-005  0.1328191E+03  0.7818608E-02  0.1334702E+00
          2   -1    0    0  502    0  0.00000000000E+00  0.00000000000E+00  0.61394998856E+02  0.61394998856E+02  0.00000000000E+00 0. -1.
          1   -1    0    0  501    0 -0.00000000000E+00 -0.00000000000E+00 -0.65997778399E+03  0.65997778399E+03  0.00000000000E+00 0. -1.
         25    2    1    2    0    0 -0.32083412172E+02 -0.11993890780E+03 -0.39221658112E+03  0.42996918790E+03  0.12499987641E+03 0.  0.
          2    1    1    2  501    0  0.77605562712E+02  0.12546067423E+03 -0.19435318701E+03  0.24400033902E+03  0.00000000000E+00 0. -1.
          1    1    1    2  502    0 -0.45522150540E+02 -0.55217664270E+01 -0.12013017014E+02  0.47403255923E+02  0.00000000000E+00 0. -1.
         22    1    3    3    0    0  0.25250914818E+02  0.91692392197E+01 -0.12344235866E+03  0.12633170449E+03  0.00000000000E+00 0.  1.
         22    1    3    3    0    0 -0.57334326990E+02 -0.12910814702E+03 -0.26877422246E+03  0.30363748342E+03  0.00000000000E+00 0.  1.
</event>
<event>
 7    1  0.5018917E-005  0.1131457E+04  0.7818608E-02  0.1070705E+00
          2   -1    0    0  502    0  0.00000000000E+00  0.00000000000E+00  0.12983346999E+04  0.12983346999E+04  0.00000000000E+00 0. -1.
          1   -1    0    0  501    0 -0.00000000000E+00 -0.00000000000E+00 -0.13770295992E+04  0.13770295992E+04  0.00000000000E+00 0. -1.
         25    2    1    2    0    0 -0.30865761846E+03  0.11090925333E+04  0.53487046090E+03  0.12755656142E+04  0.12500181367E+03 0.  0.
          2    1    1    2  501    0  0.88189789984E+02 -0.39954488072E+02 -0.21830391634E+03  0.23881038517E+03  0.00000000000E+00 0. -1.
          1    1    1    2  502    0  0.22046782847E+03 -0.10691380452E+04 -0.39526144391E+03  0.11609882997E+04  0.00000000000E+00 0. -1.
         22    1    3    3    0    0  0.10373549196E+02  0.40705652070E+02  0.98910523085E+01  0.43155457930E+02  0.00000000000E+00 0.  1.
         22    1    3    3    0    0 -0.31903116765E+03  0.10683868812E+04  0.52497940859E+03  0.12324101563E+04  0.00000000000E+00 0.  1.
</event>
<event>
 7    1  0.5018917E-005  0.2827054E+03  0.7818608E-02  0.1169114E+00
          2   -1    0    0  502    0  0.00000000000E+00  0.00000000000E+00  0.41278368823E+03  0.41278368823E+03  0.00000000000E+00 0. -1.
          1   -1    0    0  501    0 -0.00000000000E+00 -0.00000000000E+00 -0.85286312064E+03  0.85286312064E+03  0.00000000000E+00 0. -1.
         25    2    1    2    0    0  0.13095085528E+03 -0.23498739821E+03  0.13029839989E+03  0.32399167585E+03  0.12500291673E+03 0.  0.
          2    1    1    2  501    0  0.10799995188E+03  0.32889112913E+02 -0.61522920530E+03  0.62550192519E+03  0.00000000000E+00 0. -1.
          1    1    1    2  502    0 -0.23895080715E+03  0.20209828530E+03  0.44851373003E+02  0.31615320783E+03  0.00000000000E+00 0. -1.
         22    1    3    3    0    0  0.13069541553E+03 -0.10772065499E+03  0.73740959270E+02  0.18472346961E+03  0.00000000000E+00 0. -1.
         22    1    3    3    0    0  0.25543974890E+00 -0.12726674323E+03  0.56557440621E+02  0.13926820624E+03  0.00000000000E+00 0. -1.
</event>
<event>
 7    1  0.5018917E-005  0.8308255E+03  0.7818608E-02  0.1169973E+00
          2   -1    0    0  502    0  0.00000000000E+00  0.00000000000E+00  0.31330238046E+04  0.31330238046E+04  0.00000000000E+00 0. -1.
          1   -1    0    0  501    0 -0.00000000000E+00 -0.00000000000E+00 -0.12051191290E+04  0.12051191290E+04  0.00000000000E+00 0. -1.
         25    2    1    2    0    0 -0.26071084217E+03  0.82474559400E+03  0.29034296065E+04  0.30321119062E+04  0.12499477652E+03 0.  0.
          2    1    1    2  501    0  0.23830960658E+03 -0.79400135868E+03 -0.91639819562E+03  0.12357245968E+04  0.00000000000E+00 0. -1.
          1    1    1    2  502    0  0.22401235588E+02 -0.30744235318E+02 -0.59126735288E+02  0.70306430623E+02  0.00000000000E+00 0. -1.
         22    1    3    3    0    0 -0.24873528564E+03  0.66903542454E+03  0.24853855723E+04  0.25858497800E+04  0.00000000000E+00 0. -1.
         22    1    3    3    0    0 -0.11975556523E+02  0.15571016946E+03  0.41804403420E+03  0.44626212629E+03  0.00000000000E+00 0. -1.
</event>
<event>
 7    1  0.5018917E-005  0.3810577E+03  0.7818608E-02  0.1068204E+00
          2   -1    0    0  502    0  0.00000000000E+00  0.00000000000E+00  0.22012335582E+04  0.22012335582E+04  0.00000000000E+00 0. -1.
          1   -1    0    0  501    0 -0.00000000000E+00 -0.00000000000E+00 -0.32314272524E+03  0.32314272524E+03  0.00000000000E+00 0. -1.
         25    2    1    2    0    0 -0.49543579162E+03  0.95316789716E+02  0.33037131420E+03  0.61588322342E+03  0.12500010247E+03 0.  0.
          2    1    1    2  501    0  0.23889790042E+03  0.17734778946E+03 -0.18544379036E+02  0.29810793220E+03  0.00000000000E+00 0. -1.
          1    1    1    2  502    0  0.25653789121E+03 -0.27266457917E+03  0.15662638978E+04  0.16103851278E+04  0.00000000000E+00 0. -1.
         22    1    3    3    0    0 -0.38845848900E+03  0.11129301562E+03  0.30079211841E+03  0.50374798412E+03  0.00000000000E+00 0.  1.
         22    1    3    3    0    0 -0.10697730262E+03 -0.15976225903E+02  0.29579195798E+02  0.11213523930E+03  0.00000000000E+00 0.  1.
</event>
<event>
 7    1  0.5018917E-005  0.5946531E+03  0.7818608E-02  0.1136915E+00
          2   -1    0    0  502    0  0.00000000000E+00  0.00000000000E+00  0.63282163622E+03  0.63282163622E+03  0.00000000000E+00 0. -1.
          1   -1    0    0  501    0 -0.00000000000E+00 -0.00000000000E+00 -0.12071891562E+04  0.12071891562E+04  0.00000000000E+00 0. -1.
         25    2    1    2    0    0 -0.15887329871E+03 -0.62036954645E+03 -0.37131249456E+03  0.75073005284E+03  0.12499417754E+03 0.  0.
          2    1    1    2  501    0  0.15918110364E+03  0.54192464177E+03 -0.51698466028E+03  0.76569842633E+03  0.00000000000E+00 0. -1.
          1    1    1    2  502    0 -0.30780492925E+00  0.78444904682E+02  0.31392963485E+03  0.32358231326E+03  0.00000000000E+00 0. -1.
         22    1    3    3    0    0 -0.14308660609E+03 -0.49219080764E+03 -0.23802792290E+03  0.56513968189E+03  0.00000000000E+00 0.  1.
         22    1    3    3    0    0 -0.15786692617E+02 -0.12817873881E+03 -0.13328457166E+03  0.18559037095E+03  0.00000000000E+00 0.  1.
</event>
<event>
 7    1  0.5018917E-005  0.7368675E+03  0.7818608E-02  0.1199752E+00
          2   -1    0    0  502    0  0.00000000000E+00  0.00000000000E+00  0.13934681418E+04  0.13934681418E+04  0.00000000000E+00 0. -1.
          1   -1    0    0  501    0 -0.00000000000E+00 -0.00000000000E+00 -0.10597822673E+04  0.10597822673E+04  0.00000000000E+00 0. -1.
         25    2    1    2    0    0  0.11083082077E+02 -0.74833084710E+03 -0.29144501989E+03  0.81282615511E+03  0.12499706954E+03 0.  0.
          2    1    1    2  501    0 -0.30990041896E+02  0.72486186136E+03 -0.24800900751E+03  0.76674217867E+03  0.00000000000E+00 0. -1.
          1    1    1    2  502    0  0.19906959819E+02  0.23468985740E+02  0.87313990195E+03  0.87368207531E+03  0.00000000000E+00 0. -1.
         22    1    3    3    0    0 -0.56498385401E+02 -0.37787211215E+03 -0.15442375003E+03  0.41209961814E+03  0.00000000000E+00 0. -1.
         22    1    3    3    0    0  0.67581467478E+02 -0.37045873494E+03 -0.13702126986E+03  0.40072653698E+03  0.00000000000E+00 0. -1.
</event>
<event>
 7    1  0.5018917E-005  0.2336550E+03  0.7818608E-02  0.1223909E+00
          2   -1    0    0  502    0  0.00000000000E+00  0.00000000000E+00  0.58255989564E+03  0.58255989564E+03  0.00000000000E+00 0. -1.
          1   -1    0    0  501    0 -0.00000000000E+00 -0.00000000000E+00 -0.13081636873E+04  0.13081636873E+04  0.00000000000E+00 0. -1.
         25    2    1    2    0    0  0.71828885759E+02  0.23464410929E+03 -0.21977864009E+03  0.35234055616E+03  0.12499588002E+03 0.  0.
          2    1    1    2  501    0 -0.13321305588E+03 -0.19147009711E+03 -0.10059604873E+04  0.10326485454E+04  0.00000000000E+00 0. -1.
          1    1    1    2  502    0  0.61384170123E+02 -0.43174012182E+02  0.50013533569E+03  0.50573448139E+03  0.00000000000E+00 0. -1.
         22    1    3    3    0    0  0.56956958104E+02  0.22471032532E+03 -0.23407908365E+03  0.32944171379E+03  0.00000000000E+00 0.  1.
         22    1    3    3    0    0  0.14871927655E+02  0.99337839755E+01  0.14300443557E+02  0.22898842376E+02  0.00000000000E+00 0.  1.
</event>
<event>
 7    1  0.5018917E-005  0.7195942E+03  0.7818608E-02  0.1156326E+00
          2   -1    0    0  502    0  0.00000000000E+00  0.00000000000E+00  0.26966343726E+04  0.26966343726E+04  0.00000000000E+00 0. -1.
          1   -1    0    0  501    0 -0.00000000000E+00 -0.00000000000E+00 -0.89377454699E+03  0.89377454699E+03  0.00000000000E+00 0. -1.
         25    2    1    2    0    0  0.68093524980E+03  0.20660738287E+03  0.16152488352E+04  0.17694667962E+04  0.12499807350E+03 0.  0.
          2    1    1    2  501    0  0.69039012488E+01  0.50970207757E+02 -0.68127342824E+03  0.68321234617E+03  0.00000000000E+00 0. -1.
          1    1    1    2  502    0 -0.68783915105E+03 -0.25757759063E+03  0.86888441871E+03  0.11377297772E+04  0.00000000000E+00 0. -1.
         22    1    3    3    0    0  0.28753133846E+03  0.10342600672E+03  0.54942405660E+03  0.62867957135E+03  0.00000000000E+00 0. -1.
         22    1    3    3    0    0  0.39340391134E+03  0.10318137615E+03  0.10658247786E+04  0.11407872249E+04  0.00000000000E+00 0. -1.
</event>
<event>
 7    1  0.5018917E-005  0.7850809E+03  0.7818608E-02  0.1140297E+00
          2   -1    0    0  502    0  0.00000000000E+00  0.00000000000E+00  0.20037777783E+04  0.20037777783E+04  0.00000000000E+00 0. -1.
          1   -1    0    0  501    0 -0.00000000000E+00 -0.00000000000E+00 -0.97637816337E+03  0.97637816337E+03  0.00000000000E+00 0. -1.
         25    2    1    2    0    0  0.62931030860E+03 -0.40877201390E+03  0.10747040561E+03  0.76831048008E+03  0.12500032744E+03 0.  0.
          2    1    1    2  501    0  0.56780494931E+02  0.54108137008E+01 -0.54324043776E+03  0.54622657820E+03  0.00000000000E+00 0. -1.
          1    1    1    2  502    0 -0.68609080353E+03  0.40336120020E+03  0.14631696471E+04  0.16656188834E+04  0.00000000000E+00 0. -1.
         22    1    3    3    0    0  0.16984575653E+03 -0.49772665236E+02  0.11310437535E+02  0.17734944379E+03  0.00000000000E+00 0.  1.
         22    1    3    3    0    0  0.45946455207E+03 -0.35899934867E+03  0.96159968079E+02  0.59096103629E+03  0.00000000000E+00 0.  1.
</event>
<event>
 7    1  0.8840708E-005  0.9954808E+02  0.7818608E-02  0.1449347E+00
          2   -1    0    0  502    0  0.00000000000E+00  0.00000000000E+00  0.22389739673E+04  0.22389739673E+04  0.00000000000E+00 0. -1.
          1   -1    0    0  501    0 -0.00000000000E+00 -0.00000000000E+00 -0.13151311698E+04  0.13151311698E+04  0.00000000000E+00 0. -1.
         25    2    1    2    0    0 -0.73543606456E+02  0.16327646025E+02 -0.74106299005E+03  0.75529874414E+03  0.12500633428E+03 0.  0.
          2    1    1    2  501    0 -0.24260617920E+02  0.24159709829E+01 -0.56557670127E+03  0.56610195152E+03  0.00000000000E+00 0. -1.
          1    1    1    2  502    0  0.97804224376E+02 -0.18743617008E+02  0.22304824889E+04  0.22327044414E+04  0.00000000000E+00 0. -1.
         22    1    3    3    0    0 -0.98695085477E+02  0.42223896696E+02 -0.48752298982E+03  0.49920160552E+03  0.00000000000E+00 0. -1.
         22    1    3    3    0    0  0.25151479021E+02 -0.25896250671E+02 -0.25354000023E+03  0.25609713862E+03  0.00000000000E+00 0. -1.
</event>
<event>
 7    1  0.5018917E-005  0.1208347E+03  0.7818608E-02  0.1337056E+00
          2   -1    0    0  502    0  0.00000000000E+00  0.00000000000E+00  0.19105304468E+04  0.19105304468E+04  0.00000000000E+00 0. -1.
          1   -1    0    0  501    0 -0.00000000000E+00 -0.00000000000E+00 -0.62323957160E+02  0.62323957160E+02  0.00000000000E+00 0. -1.
         25    2    1    2    0    0 -0.40807867993E+02 -0.13384621088E+03  0.10983574736E+03  0.21741473612E+03  0.12500074331E+03 0.  0.
          2    1    1    2  501    0  0.20579464064E+02  0.88799561462E+02  0.24751049129E+03  0.26376186183E+03  0.00000000000E+00 0. -1.
          1    1    1    2  502    0  0.20228403929E+02  0.45046649423E+02  0.14908602510E+04  0.14916778060E+04  0.00000000000E+00 0. -1.
         22    1    3    3    0    0 -0.69052580641E+02 -0.22845897890E+02  0.49262719813E+02  0.87846511069E+02  0.00000000000E+00 0. -1.
         22    1    3    3    0    0  0.28244712649E+02 -0.11100031299E+03  0.60573027547E+02  0.12956822505E+03  0.00000000000E+00 0. -1.
</event>
<event>
 7    1  0.5018917E-005  0.3299787E+03  0.7818608E-02  0.1173136E+00
          2   -1    0    0  502    0  0.00000000000E+00  0.00000000000E+00  0.11492588239E+04  0.11492588239E+04  0.00000000000E+00 0. -1.
          1   -1    0    0  501    0 -0.00000000000E+00 -0.00000000000E+00 -0.60079567407E+03  0.60079567407E+03  0.00000000000E+00 0. -1.
         25    2    1    2    0    0  0.31148567593E+03 -0.24780093895E+03  0.63413387040E+03  0.75906443700E+03  0.12499768905E+03 0.  0.
          2    1    1    2  501    0 -0.28355576302E+03  0.15974069517E+03 -0.48335750119E+03  0.58271385293E+03  0.00000000000E+00 0. -1.
          1    1    1    2  502    0 -0.27929912912E+02  0.88060243783E+02  0.39768678062E+03  0.40827620804E+03  0.00000000000E+00 0. -1.
         22    1    3    3    0    0  0.80774345754E+02 -0.14130818550E+03  0.23301625125E+03  0.28423418438E+03  0.00000000000E+00 0.  1.
         22    1    3    3    0    0  0.23071133018E+03 -0.10649275345E+03  0.40111761915E+03  0.47483025262E+03  0.00000000000E+00 0.  1.
</event>
<event>
 7    1  0.5018917E-005  0.1629469E+03  0.7818608E-02  0.1221897E+00
          2   -1    0    0  502    0  0.00000000000E+00  0.00000000000E+00  0.22235475858E+04  0.22235475858E+04  0.00000000000E+00 0. -1.
          1   -1    0    0  501    0 -0.00000000000E+00 -0.00000000000E+00 -0.33310726788E+03  0.33310726788E+03  0.00000000000E+00 0. -1.
         25    2    1    2    0    0  0.11697298853E+03  0.21865231385E+03  0.11461920981E+04  0.11793530904E+04  0.12500348700E+03 0.  0.
          2    1    1    2  501    0 -0.62845746689E+02 -0.90155326342E+02 -0.30222216735E+03  0.32158328499E+03  0.00000000000E+00 0. -1.
          1    1    1    2  502    0 -0.54127241839E+02 -0.12849698751E+03  0.10464703873E+04  0.10557184783E+04  0.00000000000E+00 0. -1.
         22    1    3    3    0    0 -0.65849279399E+00  0.67966625551E+00  0.23769792095E+03  0.23769980476E+03  0.00000000000E+00 0.  1.
         22    1    3    3    0    0  0.11763148132E+03  0.21797264759E+03  0.90849417710E+03  0.94165328562E+03  0.00000000000E+00 0.  1.
</event>
<event>
 7    1  0.5018917E-005  0.2202965E+03  0.7818608E-02  0.1274562E+00
          2   -1    0    0  502    0  0.00000000000E+00  0.00000000000E+00  0.12223286956E+04  0.12223286956E+04  0.00000000000E+00 0. -1.
          1   -1    0    0  501    0 -0.00000000000E+00 -0.00000000000E+00 -0.13276129584E+03  0.13276129584E+03  0.00000000000E+00 0. -1.
         25    2    1    2    0    0 -0.13955586521E+03  0.15065458184E+03  0.52042041188E+03  0.57326745780E+03  0.12500212211E+03 0.  0.
          2    1    1    2  501    0 -0.46822179074E+02 -0.10336481282E+02 -0.79309031674E+02  0.92677299290E+02  0.00000000000E+00 0. -1.
          1    1    1    2  502    0  0.18637804429E+03 -0.14031810056E+03  0.64845601954E+03  0.68914523434E+03  0.00000000000E+00 0. -1.
         22    1    3    3    0    0 -0.54304729826E+02  0.26182354437E+02  0.47159181495E+02  0.76540889494E+02  0.00000000000E+00 0.  1.
         22    1    3    3    0    0 -0.85251135386E+02  0.12447222740E+03  0.47326123038E+03  0.49672656831E+03  0.00000000000E+00 0.  1.
</event>
<event>
 7    1  0.5018917E-005  0.4105359E+03  0.7818608E-02  0.1259842E+00
          2   -1    0    0  502    0  0.00000000000E+00  0.00000000000E+00  0.28944403146E+03  0.28944403146E+03  0.00000000000E+00 0. -1.
          1   -1    0    0  501    0 -0.00000000000E+00 -0.00000000000E+00 -0.90638314206E+03  0.90638314206E+03  0.00000000000E+00 0. -1.
         25    2    1    2    0    0 -0.33709277657E+03  0.22417188790E+03 -0.44288945830E+03  0.61290886812E+03  0.12498653130E+03 0.  0.
          2    1    1    2  501    0 -0.21983175335E+02 -0.19948850449E+02 -0.16715626767E+03  0.16977171276E+03  0.00000000000E+00 0. -1.
          1    1    1    2  502    0  0.35907595190E+03 -0.20422303746E+03 -0.68933846307E+01  0.41314659264E+03  0.00000000000E+00 0. -1.
         22    1    3    3    0    0 -0.54015657087E+02  0.54999529228E+02 -0.16323309791E+03  0.18052059073E+03  0.00000000000E+00 0.  1.
         22    1    3    3    0    0 -0.28307711948E+03  0.16917235868E+03 -0.27965636039E+03  0.43238827738E+03  0.00000000000E+00 0.  1.
</event>
<event>
 7    1  0.5018917E-005  0.7828599E+03  0.7818608E-02  0.1186525E+00
          2   -1    0    0  502    0  0.00000000000E+00  0.00000000000E+00  0.17992763351E+04  0.17992763351E+04  0.00000000000E+00 0. -1.
          1   -1    0    0  501    0 -0.00000000000E+00 -0.00000000000E+00 -0.28798828760E+04  0.28798828760E+04  0.00000000000E+00 0. -1.
         25    2    1    2    0    0 -0.67848863888E+03 -0.37815710888E+03 -0.12880284588E+03  0.79722538028E+03  0.12501400632E+03 0.  0.
          2    1    1    2  501    0  0.99033104879E+01 -0.32000654940E+02 -0.23117543542E+04  0.23119970397E+04  0.00000000000E+00 0. -1.
          1    1    1    2  502    0  0.66858532839E+03  0.41015776382E+03  0.13599506592E+04  0.15699367911E+04  0.00000000000E+00 0. -1.
         22    1    3    3    0    0 -0.43245356711E+03 -0.18738228849E+03 -0.37568528860E+02  0.47279975054E+03  0.00000000000E+00 0.  1.
         22    1    3    3    0    0 -0.24603507177E+03 -0.19077482039E+03 -0.91234317018E+02  0.32442562975E+03  0.00000000000E+00 0.  1.
</event>
<event>
 7    1  0.5018917E-005  0.2845755E+03  0.7818608E-02  0.1210672E+00
          2   -1    0    0  502    0  0.00000000000E+00  0.00000000000E+00  0.54673863404E+03  0.54673863404E+03  0.00000000000E+00 0. -1.
          1   -1    0    0  501    0 -0.00000000000E+00 -0.00000000000E+00 -0.46637316704E+03  0.46637316704E+03  0.00000000000E+00 0. -1.
         25    2    1    2    0    0  0.40524173323E+02 -0.31226463679E+03 -0.19564013275E+03  0.39122178948E+03  0.12501205947E+03 0.  0.
          2    1    1    2  501    0 -0.67709878827E+02  0.24683861060E+03 -0.72682811363E+02  0.26607652741E+03  0.00000000000E+00 0. -1.
          1    1    1    2  502    0  0.27185705503E+02  0.65426026192E+02  0.34868841110E+03  0.35581348418E+03  0.00000000000E+00 0. -1.
         22    1    3    3    0    0 -0.80081341404E+01 -0.12759972209E+03 -0.14574402703E+03  0.19387403309E+03  0.00000000000E+00 0. -1.
         22    1    3    3    0    0  0.48532307464E+02 -0.18466491470E+03 -0.49896105711E+02  0.19734775640E+03  0.00000000000E+00 0. -1.
</event>
<event>
 7    1  0.5018917E-005  0.1228299E+04  0.7818608E-02  0.1076326E+00
          2   -1    0    0  502    0  0.00000000000E+00  0.00000000000E+00  0.21173867507E+04  0.21173867507E+04  0.00000000000E+00 0. -1.
          1   -1    0    0  501    0 -0.00000000000E+00 -0.00000000000E+00 -0.12268960156E+04  0.12268960156E+04  0.00000000000E+00 0. -1.
         25    2    1    2    0    0 -0.52265905436E+03  0.10944207029E+04  0.67659604268E+03  0.13943946111E+04  0.12499985772E+03 0.  0.
          2    1    1    2  501    0 -0.82361692623E+02 -0.63448328369E+01 -0.50537020865E+03  0.51207690155E+03  0.00000000000E+00 0. -1.
          1    1    1    2  502    0  0.60502074698E+03 -0.10880758701E+04  0.71926490110E+03  0.14378112537E+04  0.00000000000E+00 0. -1.
         22    1    3    3    0    0 -0.13846090850E+03  0.30138450831E+03  0.12306337668E+03  0.35376353643E+03  0.00000000000E+00 0.  1.
         22    1    3    3    0    0 -0.38419814586E+03  0.79303619460E+03  0.55353266600E+03  0.10406310747E+04  0.00000000000E+00 0.  1.
</event>
<event>
 7    1  0.5018917E-005  0.4822021E+03  0.7818608E-02  0.1170642E+00
          2   -1    0    0  502    0  0.00000000000E+00  0.00000000000E+00  0.44695638553E+03  0.44695638553E+03  0.00000000000E+00 0. -1.
          1   -1    0    0  501    0 -0.00000000000E+00 -0.00000000000E+00 -0.82787611463E+03  0.82787611463E+03  0.00000000000E+00 0. -1.
         25    2    1    2    0    0 -0.46557288884E+03  0.16317906573E+03 -0.12634996708E+03  0.52437451162E+03  0.12497516532E+03 0.  0.
          2    1    1    2  501    0 -0.15087612167E+00 -0.65042469578E+02 -0.26653511420E+03  0.27435654304E+03  0.00000000000E+00 0. -1.
          1    1    1    2  502    0  0.46572376496E+03 -0.98136596148E+02  0.11965352168E+02  0.47610144550E+03  0.00000000000E+00 0. -1.
         22    1    3    3    0    0 -0.76729839062E+01  0.10218565449E+02  0.16538586714E+02  0.20900206037E+02  0.00000000000E+00 0.  1.
         22    1    3    3    0    0 -0.45789990493E+03  0.15296050028E+03 -0.14288855379E+03  0.50347430559E+03  0.00000000000E+00 0.  1.
</event>
<event>
 7    1  0.5018917E-005  0.1522811E+03  0.7818608E-02  0.1230653E+00
          2   -1    0    0  502    0  0.00000000000E+00  0.00000000000E+00  0.14056793668E+03  0.14056793668E+03  0.00000000000E+00 0. -1.
          1   -1    0    0  501    0 -0.00000000000E+00 -0.00000000000E+00 -0.22150684970E+04  0.22150684970E+04  0.00000000000E+00 0. -1.
         25    2    1    2    0    0 -0.24765810018E+03 -0.61993978205E+02 -0.20157221996E+04  0.20356665934E+04  0.12499882269E+03 0.  0.
          2    1    1    2  501    0  0.10676801237E+03  0.11351421580E+02 -0.11748380649E+03  0.15915623778E+03  0.00000000000E+00 0. -1.
          1    1    1    2  502    0  0.14089008782E+03  0.50642556625E+02  0.58705445750E+02  0.16081360249E+03  0.00000000000E+00 0. -1.
         22    1    3    3    0    0 -0.27967971852E+02  0.87434457229E+01 -0.64526798966E+02  0.70868632535E+02  0.00000000000E+00 0. -1.
         22    1    3    3    0    0 -0.21969012833E+03 -0.70737423928E+02 -0.19511954006E+04  0.19647979608E+04  0.00000000000E+00 0. -1.
</event>
<event>
 7    1  0.5018917E-005  0.4749874E+03  0.7818608E-02  0.1163867E+00
          2   -1    0    0  502    0  0.00000000000E+00  0.00000000000E+00  0.12870277776E+04  0.12870277776E+04  0.00000000000E+00 0. -1.
          1   -1    0    0  501    0 -0.00000000000E+00 -0.00000000000E+00 -0.92918142454E+03  0.92918142454E+03  0.00000000000E+00 0. -1.
         25    2    1    2    0    0  0.53230117242E+03  0.49190436164E+02 -0.13441583495E+03  0.56520541583E+03  0.12500123291E+03 0.  0.
          2    1    1    2  501    0 -0.66496707297E+02 -0.25938589360E+02 -0.52610285338E+03  0.53092262603E+03  0.00000000000E+00 0. -1.
          1    1    1    2  502    0 -0.46580446512E+03 -0.23251846804E+02  0.10183650414E+04  0.11200811603E+04  0.00000000000E+00 0. -1.
         22    1    3    3    0    0  0.32203226485E+03 -0.17488830154E+01 -0.25660783529E+02  0.32305775646E+03  0.00000000000E+00 0.  1.
         22    1    3    3    0    0  0.21026890756E+03  0.50939319180E+02 -0.10875505142E+03  0.24214765937E+03  0.00000000000E+00 0.  1.
</event>
<event>
 7    1  0.5018917E-005  0.1072283E+04  0.7818608E-02  0.1029566E+00
          2   -1    0    0  502    0  0.00000000000E+00  0.00000000000E+00  0.21256802214E+04  0.21256802214E+04  0.00000000000E+00 0. -1.
          1   -1    0    0  501    0 -0.00000000000E+00 -0.00000000000E+00 -0.26719704977E+04  0.26719704977E+04  0.00000000000E+00 0. -1.
         25    2    1    2    0    0  0.10217582300E+04 -0.66019706893E+03 -0.22202988074E+03  0.12428889070E+04  0.12500206678E+03 0.  0.
          2    1    1    2  501    0 -0.86070110591E+03  0.57176309889E+03 -0.17957636457E+04  0.20718316791E+04  0.00000000000E+00 0. -1.
          1    1    1    2  502    0 -0.16105712413E+03  0.88433970031E+02  0.14715032502E+04  0.14829301331E+04  0.00000000000E+00 0. -1.
         22    1    3    3    0    0  0.42760618068E+02 -0.62001789835E+02 -0.72191406283E+01  0.75662463558E+02  0.00000000000E+00 0.  1.
         22    1    3    3    0    0  0.97899761197E+03 -0.59819527909E+03 -0.21481074011E+03  0.11672264434E+04  0.00000000000E+00 0.  1.
</event>
<event>
 7    1  0.5018917E-005  0.1886538E+03  0.7818608E-02  0.1204356E+00
          2   -1    0    0  502    0  0.00000000000E+00  0.00000000000E+00  0.11736221166E+04  0.11736221166E+04  0.00000000000E+00 0. -1.
          1   -1    0    0  501    0 -0.00000000000E+00 -0.00000000000E+00 -0.79998335262E+02  0.79998335262E+02  0.00000000000E+00 0. -1.
         25    2    1    2    0    0 -0.13912839809E+03  0.19723169640E+03  0.48480845681E+03  0.55580779042E+03  0.12500402743E+03 0.  0.
          2    1    1    2  501    0 -0.13796782592E+02 -0.11352559469E+03  0.76277565511E+02  0.13746519145E+03  0.00000000000E+00 0. -1.
          1    1    1    2  502    0  0.15292518068E+03 -0.83706101715E+02  0.53253775898E+03  0.56034746996E+03  0.00000000000E+00 0. -1.
         22    1    3    3    0    0 -0.49423579377E+01 -0.12880791116E+01 -0.70393039573E+01  0.86970023563E+01  0.00000000000E+00 0.  1.
         22    1    3    3    0    0 -0.13418604015E+03  0.19851977552E+03  0.49184776077E+03  0.54711078806E+03  0.00000000000E+00 0.  1.
</event>
<event>
 7    1  0.5018917E-005  0.4242999E+03  0.7818608E-02  0.1243483E+00
          2   -1    0    0  502    0  0.00000000000E+00  0.00000000000E+00  0.16603305342E+04  0.16603305342E+04  0.00000000000E+00 0. -1.
          1   -1    0    0  501    0 -0.00000000000E+00 -0.00000000000E+00 -0.15225338963E+04  0.15225338963E+04  0.00000000000E+00 0. -1.
         25    2    1    2    0    0  0.44072348481E+03 -0.37442097004E+00 -0.69935559343E+03  0.83603868690E+03  0.12500043873E+03 0.  0.
          2    1    1    2  501    0 -0.41070902581E+03 -0.15181976032E+02 -0.69869360401E+03  0.81060788830E+03  0.00000000000E+00 0. -1.
          1    1    1    2  502    0 -0.30014459002E+02  0.15556397002E+02  0.15358458353E+04  0.15362178553E+04  0.00000000000E+00 0. -1.
         22    1    3    3    0    0  0.33723380020E+02 -0.22874600006E+02 -0.12693125212E+03  0.13331187662E+03  0.00000000000E+00 0. -1.
         22    1    3    3    0    0  0.40700010479E+03  0.22500179036E+02 -0.57242434131E+03  0.70272681028E+03  0.00000000000E+00 0. -1.
</event>
<event>
 7    1  0.5018917E-005  0.4288749E+02  0.7818608E-02  0.1535260E+00
          2   -1    0    0  502    0  0.00000000000E+00  0.00000000000E+00  0.15405372207E+04  0.15405372207E+04  0.00000000000E+00 0. -1.
          1   -1    0    0  501    0 -0.00000000000E+00 -0.00000000000E+00 -0.47728065884E+03  0.47728065884E+03  0.00000000000E+00 0. -1.
         25    2    1    2    0    0 -0.37240033332E+01  0.73587749433E+02  0.98928271324E+03  0.99986733678E+03  0.12500151743E+03 0.  0.
          2    1    1    2  501    0  0.55645136924E+01 -0.42494789505E+02 -0.47056950204E+03  0.47251711842E+03  0.00000000000E+00 0. -1.
          1    1    1    2  502    0 -0.18405103592E+01 -0.31092959928E+02  0.54454335065E+03  0.54543342433E+03  0.00000000000E+00 0. -1.
         22    1    3    3    0    0 -0.43899346157E+02  0.32795777334E+02  0.17058749126E+03  0.17917256424E+03  0.00000000000E+00 0. -1.
         22    1    3    3    0    0  0.40175342824E+02  0.40791972099E+02  0.81869522199E+03  0.82069477253E+03  0.00000000000E+00 0. -1.
</event>
<event>
 7    1  0.5018917E-005  0.3398111E+03  0.7818608E-02  0.1212559E+00
          2   -1    0    0  502    0  0.00000000000E+00  0.00000000000E+00  0.43259163868E+03  0.43259163868E+03  0.00000000000E+00 0. -1.
          1   -1    0    0  501    0 -0.00000000000E+00 -0.00000000000E+00 -0.79583944563E+03  0.79583944563E+03  0.00000000000E+00 0. -1.
         25    2    1    2    0    0 -0.29193413092E+03  0.25879849792E+03  0.20945420788E+03  0.46011028917E+03  0.12501285406E+03 0.  0.
          2    1    1    2  501    0  0.25737070238E+03 -0.21203185443E+03 -0.61282058230E+03  0.69767202311E+03  0.00000000000E+00 0. -1.
          1    1    1    2  502    0  0.34563428538E+02 -0.46766643484E+02  0.40118567466E+02  0.70648772039E+02  0.00000000000E+00 0. -1.
         22    1    3    3    0    0 -0.14849159688E+03  0.13353055763E+03  0.36814910198E+02  0.20306526482E+03  0.00000000000E+00 0.  1.
         22    1    3    3    0    0 -0.14344253404E+03  0.12526794029E+03  0.17263929769E+03  0.25704502434E+03  0.00000000000E+00 0.  1.
</event>
<event>
 7    1  0.5018917E-005  0.1351346E+04  0.7818608E-02  0.1035539E+00
          2   -1    0    0  502    0  0.00000000000E+00  0.00000000000E+00  0.40600803708E+04  0.40600803708E+04  0.00000000000E+00 0. -1.
          1   -1    0    0  501    0 -0.00000000000E+00 -0.00000000000E+00 -0.87884274551E+03  0.87884274551E+03  0.00000000000E+00 0. -1.
         25    2    1    2    0    0  0.11976986112E+04 -0.68548948410E+03  0.23805338244E+04  0.27544406751E+04  0.12499739023E+03 0.  0.
          2    1    1    2  501    0 -0.99809478314E+01  0.13311671702E+03 -0.39128563986E+03  0.41342971788E+03  0.00000000000E+00 0. -1.
          1    1    1    2  502    0 -0.11877176634E+04  0.55237276708E+03  0.11919894407E+04  0.17710527232E+04  0.00000000000E+00 0. -1.
         22    1    3    3    0    0  0.87967384805E+03 -0.54271039188E+03  0.18613078966E+04  0.21290438545E+04  0.00000000000E+00 0. -1.
         22    1    3    3    0    0  0.31802476319E+03 -0.14277909222E+03  0.51922592781E+03  0.62539682066E+03  0.00000000000E+00 0. -1.
</event>
<event>
 7    1  0.5018917E-005  0.5612019E+03  0.7818608E-02  0.1102728E+00
          2   -1    0    0  502    0  0.00000000000E+00  0.00000000000E+00  0.47281854006E+03  0.47281854006E+03  0.00000000000E+00 0. -1.
          1   -1    0    0  501    0 -0.00000000000E+00 -0.00000000000E+00 -0.27040431157E+04  0.27040431157E+04  0.00000000000E+00 0. -1.
         25    2    1    2    0    0 -0.50673600207E+03  0.96807153519E+01 -0.83940494451E+03  0.98848398410E+03  0.12499933572E+03 0.  0.
          2    1    1    2  501    0  0.59169912053E+03 -0.10473445821E+03 -0.17276473120E+04  0.18291643968E+04  0.00000000000E+00 0. -1.
          1    1    1    2  502    0 -0.84963118461E+02  0.95053742855E+02  0.33582768090E+03  0.35921327480E+03  0.00000000000E+00 0. -1.
         22    1    3    3    0    0 -0.35528556328E+03 -0.89795857687E+00 -0.47061641611E+03  0.58966808369E+03  0.00000000000E+00 0.  1.
         22    1    3    3    0    0 -0.15145043878E+03  0.10578673929E+02 -0.36878852839E+03  0.39881590042E+03  0.00000000000E+00 0.  1.
</event>
<event>
 7    1  0.5018917E-005  0.2127567E+03  0.7818608E-02  0.1184658E+00
          2   -1    0    0  502    0  0.00000000000E+00  0.00000000000E+00  0.15804545017E+04  0.15804545017E+04  0.00000000000E+00 0. -1.
          1   -1    0    0  501    0 -0.00000000000E+00 -0.00000000000E+00 -0.29184297208E+03  0.29184297208E+03  0.00000000000E+00 0. -1.
         25    2    1    2    0    0 -0.28530216250E+03 -0.13687191616E+03  0.57709782406E+03  0.66992432228E+03  0.12500181476E+03 0.  0.
          2    1    1    2  501    0  0.20146084855E+03  0.43020452442E+02 -0.19708768976E+03  0.28509786089E+03  0.00000000000E+00 0. -1.
          1    1    1    2  502    0  0.83841313950E+02  0.93851463721E+02  0.90860139531E+03  0.91727529059E+03  0.00000000000E+00 0. -1.
         22    1    3    3    0    0 -0.37390034809E+01 -0.27618130261E+02  0.14571396944E+02  0.31449433621E+02  0.00000000000E+00 0. -1.
         22    1    3    3    0    0 -0.28156315902E+03 -0.10925378590E+03  0.56252642711E+03  0.63847488866E+03  0.00000000000E+00 0. -1.
</event>
<event>
 7    1  0.5018917E-005  0.7386419E+03  0.7818608E-02  0.1009848E+00
          2   -1    0    0  502    0  0.00000000000E+00  0.00000000000E+00  0.71905718483E+03  0.71905718483E+03  0.00000000000E+00 0. -1.
          1   -1    0    0  501    0 -0.00000000000E+00 -0.00000000000E+00 -0.17617058435E+04  0.17617058435E+04  0.00000000000E+00 0. -1.
         25    2    1    2    0    0  0.33153992944E+03 -0.69262827033E+03 -0.14585096204E+03  0.79154934277E+03  0.12500085293E+03 0.  0.
          2    1    1    2  501    0 -0.35444937786E+03 -0.60415514781E+02 -0.86317709283E+03  0.93507170286E+03  0.00000000000E+00 0. -1.
          1    1    1    2  502    0  0.22909448419E+02  0.75304378512E+03 -0.33620603843E+02  0.75414198274E+03  0.00000000000E+00 0. -1.
         22    1    3    3    0    0  0.29335203829E+03 -0.57164167277E+03 -0.76762828989E+02  0.64708743794E+03  0.00000000000E+00 0. -1.
         22    1    3    3    0    0  0.38187891154E+02 -0.12098659756E+03 -0.69088133054E+02  0.14446190484E+03  0.00000000000E+00 0. -1.
</event>
<event>
 7    1  0.5018917E-005  0.1939369E+03  0.7818608E-02  0.1221954E+00
          2   -1    0    0  502    0  0.00000000000E+00  0.00000000000E+00  0.88750252276E+03  0.88750252276E+03  0.00000000000E+00 0. -1.
          1   -1    0    0  501    0 -0.00000000000E+00 -0.00000000000E+00 -0.15480007144E+03  0.15480007144E+03  0.00000000000E+00 0. -1.
         25    2    1    2    0    0  0.47191951379E+02  0.22766873578E+03  0.15465156249E+03  0.30594684818E+03  0.12500493833E+03 0.  0.
          2    1    1    2  501    0 -0.98771290174E+02 -0.15114805537E+03  0.33002041749E+02  0.18355009443E+03  0.00000000000E+00 0. -1.
          1    1    1    2  502    0  0.51579338795E+02 -0.76520680407E+02  0.54504884709E+03  0.55280565159E+03  0.00000000000E+00 0. -1.
         22    1    3    3    0    0  0.80797877771E+02  0.84709529654E+02  0.65316708263E+02  0.13405325003E+03  0.00000000000E+00 0. -1.
         22    1    3    3    0    0 -0.33605926393E+02  0.14295920612E+03  0.89334854222E+02  0.17189359814E+03  0.00000000000E+00 0. -1.
</event>
<event>
 7    1  0.5018917E-005  0.5919739E+02  0.7818608E-02  0.1428128E+00
          2   -1    0    0  502    0  0.00000000000E+00  0.00000000000E+00  0.13012428228E+04  0.13012428228E+04  0.00000000000E+00 0. -1.
          1   -1    0    0  501    0 -0.00000000000E+00 -0.00000000000E+00 -0.58170349659E+03  0.58170349659E+03  0.00000000000E+00 0. -1.
         25    2    1    2    0    0  0.59199833894E+02 -0.35165582255E+02  0.19843478096E+03  0.24442381419E+03  0.12500160056E+03 0.  0.
          2    1    1    2  501    0 -0.16366099561E+02  0.56955994463E+02 -0.55660057585E+03  0.55974640290E+03  0.00000000000E+00 0. -1.
          1    1    1    2  502    0 -0.42833734333E+02 -0.21790412208E+02  0.10777051211E+04  0.10787761023E+04  0.00000000000E+00 0. -1.
         22    1    3    3    0    0  0.35431014615E+02  0.29050577418E+02  0.14344163666E+02  0.48010914137E+02  0.00000000000E+00 0. -1.
         22    1    3    3    0    0  0.23768819279E+02 -0.64216159674E+02  0.18409061729E+03  0.19641290006E+03  0.00000000000E+00 0. -1.
</event>
<event>
 7    1  0.5018917E-005  0.4502042E+03  0.7818608E-02  0.1193331E+00
          2   -1    0    0  502    0  0.00000000000E+00  0.00000000000E+00  0.25209606498E+04  0.25209606498E+04  0.00000000000E+00 0. -1.
          1   -1    0    0  501    0 -0.00000000000E+00 -0.00000000000E+00 -0.36376914452E+03  0.36376914452E+03  0.00000000000E+00 0. -1.
         25    2    1    2    0    0 -0.45998545085E+03  0.17592992014E+03  0.61187224001E+03  0.79533032222E+03  0.12499892623E+03 0.  0.
          2    1    1    2  501    0  0.40678087476E+03 -0.16651989724E+03 -0.93757020160E+02  0.44943290386E+03  0.00000000000E+00 0. -1.
          1    1    1    2  502    0  0.53204576092E+02 -0.94100229079E+01  0.16390762855E+04  0.16399665683E+04  0.00000000000E+00 0. -1.
         22    1    3    3    0    0 -0.26007529029E+03  0.16085062912E+03  0.33621142870E+03  0.45447794919E+03  0.00000000000E+00 0. -1.
         22    1    3    3    0    0 -0.19991016056E+03  0.15079291019E+02  0.27566081130E+03  0.34085237303E+03  0.00000000000E+00 0. -1.
</event>
<event>
 7    1  0.5018917E-005  0.2065500E+03  0.7818608E-02  0.1160882E+00
          2   -1    0    0  502    0  0.00000000000E+00  0.00000000000E+00  0.12279337997E+04  0.12279337997E+04  0.00000000000E+00 0. -1.
          1   -1    0    0  501    0 -0.00000000000E+00 -0.00000000000E+00 -0.19524824831E+04  0.19524824831E+04  0.00000000000E+00 0. -1.
         25    2    1    2    0    0 -0.23010402204E+03 -0.10043316808E+03 -0.59708740140E+03  0.65967631679E+03  0.12499918325E+03 0.  0.
          2    1    1    2  501    0  0.19729248814E+03 -0.66287153874E+02 -0.13098104657E+04  0.13262434802E+04  0.00000000000E+00 0. -1.
          1    1    1    2  502    0  0.32811533892E+02  0.16672032196E+03  0.11823491837E+04  0.11944964859E+04  0.00000000000E+00 0. -1.
         22    1    3    3    0    0 -0.80277724220E+02 -0.92002366147E+02 -0.34890071839E+03  0.36964937397E+03  0.00000000000E+00 0.  1.
         22    1    3    3    0    0 -0.14982629782E+03 -0.84308019371E+01 -0.24818668301E+03  0.29002694282E+03  0.00000000000E+00 0.  1.
</event>
<event>
 7    1  0.5018917E-005  0.4648365E+03  0.7818608E-02  0.1284895E+00
          2   -1    0    0  502    0  0.00000000000E+00  0.00000000000E+00  0.21341770992E+04  0.21341770992E+04  0.00000000000E+00 0. -1.
          1   -1    0    0  501    0 -0.00000000000E+00 -0.00000000000E+00 -0.27154837420E+03  0.27154837420E+03  0.00000000000E+00 0. -1.
         25    2    1    2    0    0 -0.98668108695E+02 -0.44900697705E+03  0.11007595966E+04  0.11994329154E+04  0.12499987124E+03 0.  0.
          2    1    1    2  501    0  0.80640481288E+02  0.45896610570E+03  0.22397823430E+02  0.46653449594E+03  0.00000000000E+00 0. -1.
          1    1    1    2  502    0  0.18027627407E+02 -0.99591286512E+01  0.73947130490E+03  0.73975806205E+03  0.00000000000E+00 0. -1.
         22    1    3    3    0    0 -0.11919617271E+02 -0.32308796949E+03  0.76318952902E+03  0.82884628883E+03  0.00000000000E+00 0. -1.
         22    1    3    3    0    0 -0.86748491424E+02 -0.12591900756E+03  0.33757006760E+03  0.37058662653E+03  0.00000000000E+00 0. -1.
</event>
<event>
 7    1  0.5018917E-005  0.1866254E+03  0.7818608E-02  0.1188468E+00
          2   -1    0    0  502    0  0.00000000000E+00  0.00000000000E+00  0.28070430395E+03  0.28070430395E+03  0.00000000000E+00 0. -1.
          1   -1    0    0  501    0 -0.00000000000E+00 -0.00000000000E+00 -0.27143959171E+04  0.27143959171E+04  0.00000000000E+00 0. -1.
         25    2    1    2    0    0 -0.29539636796E+01 -0.30468719512E+03 -0.34904895596E+02  0.33119016428E+03  0.12500224160E+03 0.  0.
          2    1    1    2  501    0 -0.49269284199E+02  0.17746716857E+03 -0.24913435364E+04  0.24981422447E+04  0.00000000000E+00 0. -1.
          1    1    1    2  502    0  0.52223247879E+02  0.12722002655E+03  0.92556818918E+02  0.16576781202E+03  0.00000000000E+00 0. -1.
         22    1    3    3    0    0 -0.47016201815E+02 -0.26612161603E+03 -0.21343505934E+02  0.27108445731E+03  0.00000000000E+00 0. -1.
         22    1    3    3    0    0  0.44062238135E+02 -0.38565579093E+02 -0.13561389662E+02  0.60105706965E+02  0.00000000000E+00 0. -1.
</event>
<event>
 7    1  0.5018917E-005  0.3633629E+03  0.7818608E-02  0.1161295E+00
          2   -1    0    0  502    0  0.00000000000E+00  0.00000000000E+00  0.98718002566E+03  0.98718002566E+03  0.00000000000E+00 0. -1.
          1   -1    0    0  501    0 -0.00000000000E+00 -0.00000000000E+00 -0.54545908057E+03  0.54545908057E+03  0.00000000000E+00 0. -1.
         25    2    1    2    0    0 -0.46125877158E+02 -0.37670448719E+03 -0.39918420392E+03  0.56480698200E+03  0.12500012420E+03 0.  0.
          2    1    1    2  501    0  0.74094208280E+02  0.28473792857E+03  0.30654415919E+03  0.42489405879E+03  0.00000000000E+00 0. -1.
          1    1    1    2  502    0 -0.27968331121E+02  0.91966558624E+02  0.53436098983E+03  0.54293806544E+03  0.00000000000E+00 0. -1.
         22    1    3    3    0    0  0.17806188001E+02 -0.21856270401E+03 -0.28475190229E+03  0.35940278487E+03  0.00000000000E+00 0. -1.
         22    1    3    3    0    0 -0.63932065160E+02 -0.15814178318E+03 -0.11443230162E+03  0.20540419713E+03  0.00000000000E+00 0. -1.
</event>
<event>
 7    1  0.5018917E-005  0.5730414E+02  0.7818608E-02  0.1519388E+00
          2   -1    0    0  502    0  0.00000000000E+00  0.00000000000E+00  0.75919332632E+03  0.75919332632E+03  0.00000000000E+00 0. -1.
          1   -1    0    0  501    0 -0.00000000000E+00 -0.00000000000E+00 -0.55178022512E+03  0.55178022512E+03  0.00000000000E+00 0. -1.
         25    2    1    2    0    0  0.27829059415E+02 -0.17706828009E+02  0.22918498670E+02  0.13129366015E+03  0.12499911723E+03 0.  0.
          2    1    1    2  501    0 -0.53265092701E+02  0.22556683054E+02 -0.49566436546E+03  0.49902819283E+03  0.00000000000E+00 0. -1.
          1    1    1    2  502    0  0.25436033286E+02 -0.48498550456E+01  0.68015896798E+03  0.68065169846E+03  0.00000000000E+00 0. -1.
         22    1    3    3    0    0  0.65830840361E+02  0.14460786357E+02  0.40334113982E+02  0.78547149123E+02  0.00000000000E+00 0.  1.
         22    1    3    3    0    0 -0.38001780946E+02 -0.32167614366E+02 -0.17415615312E+02  0.52746511029E+02  0.00000000000E+00 0.  1.
</event>
<event>
 7    1  0.5018917E-005  0.4413342E+03  0.7818608E-02  0.1237240E+00
          2   -1    0    0  502    0  0.00000000000E+00  0.00000000000E+00  0.94844727790E+03  0.94844727790E+03  0.00000000000E+00 0. -1.
          1   -1    0    0  501    0 -0.00000000000E+00 -0.00000000000E+00 -0.16246990687E+04  0.16246990687E+04  0.00000000000E+00 0. -1.
         25    2    1    2    0    0 -0.46984819185E+03  0.17987620928E+02 -0.12321742036E+03  0.50188331305E+03  0.12499379720E+03 0.  0.
          2    1    1    2  501    0  0.43563651345E+03 -0.12638671887E+02 -0.12755340782E+04  0.13479340090E+04  0.00000000000E+00 0. -1.
          1    1    1    2  502    0  0.34211678406E+02 -0.53489490412E+01  0.72249970773E+03  0.72332902462E+03  0.00000000000E+00 0. -1.
         22    1    3    3    0    0 -0.21189099287E+03  0.63070438986E+02 -0.86748907571E+02  0.23748904416E+03  0.00000000000E+00 0. -1.
         22    1    3    3    0    0 -0.25795719899E+03 -0.45082818058E+02 -0.36468512787E+02  0.26439426888E+03  0.00000000000E+00 0. -1.
</event>
<event>
 7    1  0.5018917E-005  0.6208410E+03  0.7818608E-02  0.1212275E+00
          2   -1    0    0  502    0  0.00000000000E+00  0.00000000000E+00  0.63024892496E+03  0.63024892496E+03  0.00000000000E+00 0. -1.
          1   -1    0    0  501    0 -0.00000000000E+00 -0.00000000000E+00 -0.96999844759E+03  0.96999844759E+03  0.00000000000E+00 0. -1.
         25    2    1    2    0    0  0.59212327144E+03 -0.15934383436E+03  0.19079278407E+03  0.65423774769E+03  0.12499887168E+03 0.  0.
          2    1    1    2  501    0  0.28483004996E+02  0.14420664195E+02 -0.24601267539E+03  0.24807554007E+03  0.00000000000E+00 0. -1.
          1    1    1    2  502    0 -0.62060627643E+03  0.14492317016E+03 -0.28452963131E+03  0.69793408478E+03  0.00000000000E+00 0. -1.
         22    1    3    3    0    0  0.26085072456E+03 -0.36703967402E+02  0.13701316534E+03  0.29692236225E+03  0.00000000000E+00 0.  1.
         22    1    3    3    0    0  0.33127254688E+03 -0.12263986696E+03  0.53779618730E+02  0.35731538545E+03  0.00000000000E+00 0.  1.
</event>
<event>
 7    1  0.5018917E-005  0.6996926E+03  0.7818608E-02  0.1194722E+00
          2   -1    0    0  502    0  0.00000000000E+00  0.00000000000E+00  0.38112679525E+03  0.38112679525E+03  0.00000000000E+00 0. -1.
          1   -1    0    0  501    0 -0.00000000000E+00 -0.00000000000E+00 -0.33646287005E+04  0.33646287005E+04  0.00000000000E+00 0. -1.
         25    2    1    2    0    0 -0.52580349656E+03 -0.47565209990E+03 -0.17174881818E+04  0.18622847923E+04  0.12499902365E+03 0.  0.
          2    1    1    2  501    0  0.49250057806E+03  0.48359996797E+03 -0.14977886410E+04  0.16491805727E+04  0.00000000000E+00 0. -1.
          1    1    1    2  502    0  0.33302918491E+02 -0.79478680775E+01  0.23177491750E+03  0.23429013075E+03  0.00000000000E+00 0. -1.
         22    1    3    3    0    0 -0.22986964391E+03 -0.18663312769E+03 -0.56634983459E+03  0.63908067776E+03  0.00000000000E+00 0. -1.
         22    1    3    3    0    0 -0.29593385264E+03 -0.28901897220E+03 -0.11511383472E+04  0.12232041145E+04  0.00000000000E+00 0. -1.
</event>
<event>
 7    1  0.5018917E-005  0.2733212E+03  0.7818608E-02  0.1143561E+00
          2   -1    0    0  502    0  0.00000000000E+00  0.00000000000E+00  0.77303409784E+03  0.77303409784E+03  0.00000000000E+00 0. -1.
          1   -1    0    0  501    0 -0.00000000000E+00 -0.00000000000E+00 -0.46539706267E+03  0.46539706267E+03  0.00000000000E+00 0. -1.
         25    2    1    2    0    0 -0.38718229403E+03  0.72997834146E+02  0.84749992812E+02  0.42195470237E+03  0.12499758785E+03 0.  0.
          2    1    1    2  501    0  0.13549495931E+03 -0.80355241730E+02 -0.24143137166E+03  0.28827930223E+03  0.00000000000E+00 0. -1.
          1    1    1    2  502    0  0.25168733472E+03  0.73574075842E+01  0.46431841402E+03  0.52819715590E+03  0.00000000000E+00 0. -1.
         22    1    3    3    0    0 -0.33034230374E+03  0.10542273645E+03  0.82712868834E+02  0.35648479585E+03  0.00000000000E+00 0.  1.
         22    1    3    3    0    0 -0.56839990288E+02 -0.32424902303E+02  0.20371239782E+01  0.65469906517E+02  0.00000000000E+00 0.  1.
</event>
<event>
 7    1  0.5018917E-005  0.8676214E+03  0.7818608E-02  0.1087732E+00
          2   -1    0    0  502    0  0.00000000000E+00  0.00000000000E+00  0.15036344507E+04  0.15036344507E+04  0.00000000000E+00 0. -1.
          1   -1    0    0  501    0 -0.00000000000E+00 -0.00000000000E+00 -0.27019941592E+04  0.27019941592E+04  0.00000000000E+00 0. -1.
         25    2    1    2    0    0 -0.49314075198E+03  0.65578638080E+03  0.33967788448E+03  0.89680027217E+03  0.12500433776E+03 0.  0.
          2    1    1    2  501    0 -0.96616612002E+01  0.99883702424E+02 -0.21893599600E+04  0.21916585355E+04  0.00000000000E+00 0. -1.
          1    1    1    2  502    0  0.50280241318E+03 -0.75567008322E+03  0.65132236702E+03  0.11171698023E+04  0.00000000000E+00 0. -1.
         22    1    3    3    0    0 -0.15614894924E+03  0.27679737546E+03  0.83324054332E+02  0.32854555155E+03  0.00000000000E+00 0.  1.
         22    1    3    3    0    0 -0.33699180274E+03  0.37898900533E+03  0.25635383015E+03  0.56825472062E+03  0.00000000000E+00 0.  1.
</event>
<event>
 7    1  0.5018917E-005  0.2334388E+03  0.7818608E-02  0.1310137E+00
          2   -1    0    0  502    0  0.00000000000E+00  0.00000000000E+00  0.10798427669E+04  0.10798427669E+04  0.00000000000E+00 0. -1.
          1   -1    0    0  501    0 -0.00000000000E+00 -0.00000000000E+00 -0.10424535738E+04  0.10424535738E+04  0.00000000000E+00 0. -1.
         25    2    1    2    0    0 -0.14126539881E+03  0.17124834097E+03  0.67070927867E+03  0.71746656924E+03  0.12500173717E+03 0.  0.
          2    1    1    2  501    0 -0.24999985584E+02  0.20715144111E+02 -0.97697865099E+03  0.97751797987E+03  0.00000000000E+00 0. -1.
          1    1    1    2  502    0  0.16626538439E+03 -0.19196348508E+03  0.34365856541E+03  0.42731179159E+03  0.00000000000E+00 0. -1.
         22    1    3    3    0    0 -0.23924362217E+01  0.54364582399E+02  0.63097603246E+02  0.83321900518E+02  0.00000000000E+00 0.  1.
         22    1    3    3    0    0 -0.13887296259E+03  0.11688375857E+03  0.60761167543E+03  0.63414466872E+03  0.00000000000E+00 0.  1.
</event>
<event>
 7    1  0.5018917E-005  0.3454720E+03  0.7818608E-02  0.1247035E+00
          2   -1    0    0  502    0  0.00000000000E+00  0.00000000000E+00  0.11114346324E+04  0.11114346324E+04  0.00000000000E+00 0. -1.
          1   -1    0    0  501    0 -0.00000000000E+00 -0.00000000000E+00 -0.20095585176E+04  0.20095585176E+04  0.00000000000E+00 0. -1.
         25    2    1    2    0    0  0.34698675688E+03 -0.45183240751E+02  0.39848797242E+03  0.54484769894E+03  0.12500006471E+03 0.  0.
          2    1    1    2  501    0 -0.13586641522E+02 -0.37687217586E+02 -0.18900314855E+04  0.18904560136E+04  0.00000000000E+00 0. -1.
          1    1    1    2  502    0 -0.33340011536E+03  0.82870458337E+02  0.59341962795E+03  0.68568943744E+03  0.00000000000E+00 0. -1.
         22    1    3    3    0    0  0.29921385346E+03 -0.77938995260E+02  0.36333684849E+03  0.47709232079E+03  0.00000000000E+00 0.  1.
         22    1    3    3    0    0  0.47772903419E+02  0.32755754509E+02  0.35151123936E+02  0.67755378152E+02  0.00000000000E+00 0.  1.
</event>
<event>
 7    1  0.5018917E-005  0.8252813E+03  0.7818608E-02  0.1039417E+00
          2   -1    0    0  502    0  0.00000000000E+00  0.00000000000E+00  0.15713543261E+04  0.15713543261E+04  0.00000000000E+00 0. -1.
          1   -1    0    0  501    0 -0.00000000000E+00 -0.00000000000E+00 -0.15300016312E+04  0.15300016312E+04  0.00000000000E+00 0. -1.
         25    2    1    2    0    0 -0.33945274154E+03 -0.76216080944E+03 -0.31286263994E+03  0.89979078875E+03  0.12499267524E+03 0.  0.
          2    1    1    2  501    0  0.14048248853E+03  0.81754738623E+03 -0.72564868642E+03  0.11021275218E+04  0.00000000000E+00 0. -1.
          1    1    1    2  502    0  0.19897025301E+03 -0.55386576792E+02  0.10798640213E+04  0.10994376467E+04  0.00000000000E+00 0. -1.
         22    1    3    3    0    0 -0.35019356956E+03 -0.73770190663E+03 -0.30726517026E+03  0.87249729172E+03  0.00000000000E+00 0.  1.
         22    1    3    3    0    0  0.10740828019E+02 -0.24458902803E+02 -0.55974696796E+01  0.27293497022E+02  0.00000000000E+00 0.  1.
</event>
<event>
 7    1  0.5018917E-005  0.3379300E+03  0.7818608E-02  0.1194533E+00
          2   -1    0    0  502    0  0.00000000000E+00  0.00000000000E+00  0.18078882925E+03  0.18078882925E+03  0.00000000000E+00 0. -1.
          1   -1    0    0  501    0 -0.00000000000E+00 -0.00000000000E+00 -0.22125626762E+04  0.22125626762E+04  0.00000000000E+00 0. -1.
         25    2    1    2    0    0  0.14165060211E+03  0.33745563418E+03 -0.17687191905E+03  0.42526505533E+03  0.12500197366E+03 0.  0.
          2    1    1    2  501    0 -0.20401795873E+01 -0.71008624314E+02 -0.15049257951E+04  0.15066014854E+04  0.00000000000E+00 0. -1.
          1    1    1    2  502    0 -0.13961042252E+03 -0.26644700987E+03 -0.34997613286E+03  0.46148496478E+03  0.00000000000E+00 0. -1.
         22    1    3    3    0    0  0.99703354145E+02  0.32624139251E+03 -0.14173630942E+03  0.36940951047E+03  0.00000000000E+00 0. -1.
         22    1    3    3    0    0  0.41947247964E+02  0.11214241670E+02 -0.35135609629E+02  0.55855544863E+02  0.00000000000E+00 0. -1.
</event>
<event>
 7    1  0.5018917E-005  0.1940922E+04  0.7818608E-02  0.1132005E+00
          2   -1    0    0  502    0  0.00000000000E+00  0.00000000000E+00  0.27077063389E+04  0.27077063389E+04  0.00000000000E+00 0. -1.
          1   -1    0    0  501    0 -0.00000000000E+00 -0.00000000000E+00 -0.19061634662E+04  0.19061634662E+04  0.00000000000E+00 0. -1.
         25    2    1    2    0    0 -0.17805109412E+04  0.79953004044E+03  0.95587707954E+03  0.21768773913E+04  0.12500675235E+03 0.  0.
          2    1    1    2  501    0  0.24354447541E+02 -0.76079777765E+01 -0.48216804761E+03  0.48284267270E+03  0.00000000000E+00 0. -1.
          1    1    1    2  502    0  0.17561564936E+04 -0.79192206267E+03  0.32783384084E+03  0.19541497411E+04  0.00000000000E+00 0. -1.
         22    1    3    3    0    0 -0.61183878603E+02  0.43257651897E+02  0.16325152835E+02  0.76688995714E+02  0.00000000000E+00 0.  1.
         22    1    3    3    0    0 -0.17193270626E+04  0.75627238854E+03  0.93955192671E+03  0.21001883955E+04  0.00000000000E+00 0.  1.
</event>
<event>
 7    1  0.5018917E-005  0.4112373E+03  0.7818608E-02  0.1096494E+00
          2   -1    0    0  502    0  0.00000000000E+00  0.00000000000E+00  0.56516521351E+03  0.56516521351E+03  0.00000000000E+00 0. -1.
          1   -1    0    0  501    0 -0.00000000000E+00 -0.00000000000E+00 -0.66594108053E+03  0.66594108053E+03  0.00000000000E+00 0. -1.
         25    2    1    2    0    0 -0.15043789775E+03 -0.33489941887E+03 -0.15904858535E+02  0.38815714498E+03  0.12499529123E+03 0.  0.
          2    1    1    2  501    0  0.33638538145E+03  0.30308723367E+03 -0.31036616066E+03  0.54894822138E+03  0.00000000000E+00 0. -1.
          1    1    1    2  502    0 -0.18594748370E+03  0.31812185202E+02  0.22549515218E+03  0.29400092768E+03  0.00000000000E+00 0. -1.
         22    1    3    3    0    0 -0.14350859296E+03 -0.30350001656E+03 -0.52105295866E+02  0.33973804344E+03  0.00000000000E+00 0. -1.
         22    1    3    3    0    0 -0.69293047944E+01 -0.31399402312E+02  0.36200437331E+02  0.48419101535E+02  0.00000000000E+00 0. -1.
</event>
<event>
 7    1  0.7294191E-005  0.6417747E+03  0.7818608E-02  0.1181664E+00
          2   -1    0    0  502    0  0.00000000000E+00  0.00000000000E+00  0.16876065275E+04  0.16876065275E+04  0.00000000000E+00 0. -1.
          1   -1    0    0  501    0 -0.00000000000E+00 -0.00000000000E+00 -0.15153559366E+04  0.15153559366E+04  0.00000000000E+00 0. -1.
         25    2    1    2    0    0 -0.82237045169E+02  0.67364545743E+03 -0.10151874609E+04  0.12275135309E+04  0.12499101565E+03 0.  0.
          2    1    1    2  501    0 -0.13043334582E+02 -0.41121028223E+02 -0.32785226542E+03  0.33067835654E+03  0.00000000000E+00 0. -1.
          1    1    1    2  502    0  0.95280379751E+02 -0.63252442921E+03  0.15152903172E+04  0.16447705767E+04  0.00000000000E+00 0. -1.
         22    1    3    3    0    0 -0.53489663940E+02  0.64927605068E+03 -0.94418706830E+03  0.11471310972E+04  0.00000000000E+00 0. -1.
         22    1    3    3    0    0 -0.28747381229E+02  0.24369406750E+02 -0.71000392578E+02  0.80382433772E+02  0.00000000000E+00 0. -1.
</event>
<event>
 7    1  0.5018917E-005  0.9870871E+03  0.7818608E-02  0.1113832E+00
          2   -1    0    0  502    0  0.00000000000E+00  0.00000000000E+00  0.71285411535E+03  0.71285411535E+03  0.00000000000E+00 0. -1.
          1   -1    0    0  501    0 -0.00000000000E+00 -0.00000000000E+00 -0.21189493487E+04  0.21189493487E+04  0.00000000000E+00 0. -1.
         25    2    1    2    0    0  0.76735575392E+03 -0.63577601707E+03 -0.57641293019E+03  0.11579821047E+04  0.12499876670E+03 0.  0.
          2    1    1    2  501    0  0.25753283247E+02  0.57382228345E+02 -0.67758296724E+03  0.68049587009E+03  0.00000000000E+00 0. -1.
          1    1    1    2  502    0 -0.79310903717E+03  0.57839378873E+03 -0.15209933591E+03  0.99332548928E+03  0.00000000000E+00 0. -1.
         22    1    3    3    0    0  0.51684660200E+03 -0.35866704344E+03 -0.32918657675E+03  0.71002553501E+03  0.00000000000E+00 0. -1.
         22    1    3    3    0    0  0.25050915192E+03 -0.27710897364E+03 -0.24722635345E+03  0.44795656966E+03  0.00000000000E+00 0. -1.
</event>
<event>
 7    1  0.5018917E-005  0.8283167E+03  0.7818608E-02  0.1126192E+00
          2   -1    0    0  502    0  0.00000000000E+00  0.00000000000E+00  0.33190646955E+04  0.33190646955E+04  0.00000000000E+00 0. -1.
          1   -1    0    0  501    0 -0.00000000000E+00 -0.00000000000E+00 -0.60849563875E+03  0.60849563875E+03  0.00000000000E+00 0. -1.
         25    2    1    2    0    0 -0.79260002732E+03  0.75988354647E+02  0.10458759190E+04  0.13204052663E+04  0.12499838439E+03 0.  0.
          2    1    1    2  501    0 -0.47306157345E+02  0.43430478940E+02 -0.38422290231E+03  0.38955271489E+03  0.00000000000E+00 0. -1.
          1    1    1    2  502    0  0.83990618467E+03 -0.11941883359E+03  0.20489160401E+04  0.22176023530E+04  0.00000000000E+00 0. -1.
         22    1    3    3    0    0 -0.41137833823E+03  0.10187792595E+03  0.55932243406E+03  0.70174983734E+03  0.00000000000E+00 0. -1.
         22    1    3    3    0    0 -0.38122168909E+03 -0.25889571299E+02  0.48655348493E+03  0.61865542900E+03  0.00000000000E+00 0. -1.
</event>
<event>
 7    1  0.5018917E-005  0.1264664E+03  0.7818608E-02  0.1272065E+00
          2   -1    0    0  502    0  0.00000000000E+00  0.00000000000E+00  0.18879997333E+04  0.18879997333E+04  0.00000000000E+00 0. -1.
          1   -1    0    0  501    0 -0.00000000000E+00 -0.00000000000E+00 -0.43047940454E+03  0.43047940454E+03  0.00000000000E+00 0. -1.
         25    2    1    2    0    0  0.18713630313E+03  0.23935733845E+02 -0.84290172641E+02  0.24150246722E+03  0.12500277264E+03 0.  0.
          2    1    1    2  501    0 -0.65298231423E+02 -0.55279850538E+02 -0.25849263829E+03  0.27228324398E+03  0.00000000000E+00 0. -1.
          1    1    1    2  502    0 -0.12183807170E+03  0.31344116693E+02  0.18003031397E+04  0.18046934267E+04  0.00000000000E+00 0. -1.
         22    1    3    3    0    0  0.18656869125E+03  0.92549667679E+01 -0.10638559997E+03  0.21496843221E+03  0.00000000000E+00 0. -1.
         22    1    3    3    0    0  0.56761187675E+00  0.14680767077E+02  0.22095427331E+02  0.26534035014E+02  0.00000000000E+00 0. -1.
</event>
<event>
 7    1  0.5018917E-005  0.5056498E+03  0.7818608E-02  0.1099513E+00
          2   -1    0    0  502    0  0.00000000000E+00  0.00000000000E+00  0.29698346354E+04  0.29698346354E+04  0.00000000000E+00 0. -1.
          1   -1    0    0  501    0 -0.00000000000E+00 -0.00000000000E+00 -0.30928152793E+04  0.30928152793E+04  0.00000000000E+00 0. -1.
         25    2    1    2    0    0  0.59177148986E+03 -0.68695126664E+02  0.57560930265E+03  0.83777286245E+03  0.12499913247E+03 0.  0.
          2    1    1    2  501    0 -0.12512972024E+03 -0.78114663973E+02 -0.29334232563E+04  0.29371297807E+04  0.00000000000E+00 0. -1.
          1    1    1    2  502    0 -0.46664176962E+03  0.14680979064E+03  0.22348333099E+04  0.22877472716E+04  0.00000000000E+00 0. -1.
         22    1    3    3    0    0  0.17398815195E+03  0.20496229510E+02  0.22473395756E+03  0.28495144170E+03  0.00000000000E+00 0. -1.
         22    1    3    3    0    0  0.41778333791E+03 -0.89191356175E+02  0.35087534509E+03  0.55282142075E+03  0.00000000000E+00 0. -1.
</event>
<event>
 7    1  0.5018917E-005  0.2967689E+03  0.7818608E-02  0.1247235E+00
          2   -1    0    0  502    0  0.00000000000E+00  0.00000000000E+00  0.35472343294E+03  0.35472343294E+03  0.00000000000E+00 0. -1.
          1   -1    0    0  501    0 -0.00000000000E+00 -0.00000000000E+00 -0.93116280882E+03  0.93116280882E+03  0.00000000000E+00 0. -1.
         25    2    1    2    0    0 -0.26472236590E+03  0.17691610475E+03 -0.23290317906E+03  0.41383268249E+03  0.12504542837E+03 0.  0.
          2    1    1    2  501    0  0.44276952867E+02  0.14344253096E+02 -0.52587163426E+03  0.52792725055E+03  0.00000000000E+00 0. -1.
          1    1    1    2  502    0  0.22044541303E+03 -0.19126035784E+03  0.18233543744E+03  0.34412630872E+03  0.00000000000E+00 0. -1.
         22    1    3    3    0    0 -0.74084422447E+02  0.98691468175E+02 -0.35344192217E+02  0.12836556962E+03  0.00000000000E+00 0. -1.
         22    1    3    3    0    0 -0.19063794345E+03  0.78224636571E+02 -0.19755898684E+03  0.28546711287E+03  0.00000000000E+00 0. -1.
</event>
<event>
 7    1  0.5018917E-005  0.2319503E+04  0.7818608E-02  0.1034537E+00
          2   -1    0    0  502    0  0.00000000000E+00  0.00000000000E+00  0.20018487524E+04  0.20018487524E+04  0.00000000000E+00 0. -1.
          1   -1    0    0  501    0 -0.00000000000E+00 -0.00000000000E+00 -0.32154308374E+04  0.32154308374E+04  0.00000000000E+00 0. -1.
         25    2    1    2    0    0 -0.79187417096E+03  0.22055965751E+04 -0.25415826066E+03  0.23604957573E+04  0.12499137599E+03 0.  0.
          2    1    1    2  501    0 -0.40783148036E+02 -0.67571686830E+02 -0.51334944263E+03  0.51938121671E+03  0.00000000000E+00 0. -1.
          1    1    1    2  502    0  0.83265731900E+03 -0.21380248883E+04 -0.44607438169E+03  0.23374026157E+04  0.00000000000E+00 0. -1.
         22    1    3    3    0    0 -0.60934962425E+03  0.18371737898E+04 -0.20557197863E+03  0.19464774176E+04  0.00000000000E+00 0.  1.
         22    1    3    3    0    0 -0.18252454671E+03  0.36842278528E+03 -0.48586282031E+02  0.41401833978E+03  0.00000000000E+00 0.  1.
</event>
<event>
 7    1  0.5018917E-005  0.9641331E+03  0.7818608E-02  0.1116807E+00
          2   -1    0    0  502    0  0.00000000000E+00  0.00000000000E+00  0.16666361218E+04  0.16666361218E+04  0.00000000000E+00 0. -1.
          1   -1    0    0  501    0 -0.00000000000E+00 -0.00000000000E+00 -0.24553096914E+04  0.24553096914E+04  0.00000000000E+00 0. -1.
         25    2    1    2    0    0 -0.53573727139E+03 -0.82708004842E+03  0.89060197879E+03  0.13341185679E+04  0.12499855247E+03 0.  0.
          2    1    1    2  501    0  0.48840255852E+02  0.38228560514E+02 -0.18450628330E+04  0.18461049946E+04  0.00000000000E+00 0. -1.
          1    1    1    2  502    0  0.48689701553E+03  0.78885148791E+03  0.16578728465E+03  0.94172225070E+03  0.00000000000E+00 0. -1.
         22    1    3    3    0    0 -0.19345130698E+03 -0.23980528775E+03  0.21474371712E+03  0.37555938046E+03  0.00000000000E+00 0. -1.
         22    1    3    3    0    0 -0.34228596440E+03 -0.58727476067E+03  0.67585826166E+03  0.95855918743E+03  0.00000000000E+00 0. -1.
</event>
<event>
 7    1  0.5018917E-005  0.4228728E+03  0.7818608E-02  0.1199281E+00
          2   -1    0    0  502    0  0.00000000000E+00  0.00000000000E+00  0.35967774311E+03  0.35967774311E+03  0.00000000000E+00 0. -1.
          1   -1    0    0  501    0 -0.00000000000E+00 -0.00000000000E+00 -0.19354948770E+04  0.19354948770E+04  0.00000000000E+00 0. -1.
         25    2    1    2    0    0  0.26631793968E+03 -0.35805145315E+03 -0.16395548369E+04  0.17037875103E+04  0.12500291597E+03 0.  0.
          2    1    1    2  501    0  0.20640494100E+02  0.49792116791E+02 -0.12026540185E+03  0.13179169843E+03  0.00000000000E+00 0. -1.
          1    1    1    2  502    0 -0.28695843378E+03  0.30825933636E+03  0.18400310487E+03  0.45959341137E+03  0.00000000000E+00 0. -1.
         22    1    3    3    0    0  0.22304109418E+03 -0.20612282871E+03 -0.11466276541E+04  0.11861656408E+04  0.00000000000E+00 0.  1.
         22    1    3    3    0    0  0.43276845493E+02 -0.15192862444E+03 -0.49292718274E+03  0.51762186948E+03  0.00000000000E+00 0.  1.
</event>
<event>
 7    1  0.5018917E-005  0.9358690E+03  0.7818608E-02  0.1061166E+00
          2   -1    0    0  502    0  0.00000000000E+00  0.00000000000E+00  0.20636033713E+04  0.20636033713E+04  0.00000000000E+00 0. -1.
          1   -1    0    0  501    0 -0.00000000000E+00 -0.00000000000E+00 -0.11554375716E+04  0.11554375716E+04  0.00000000000E+00 0. -1.
         25    2    1    2    0    0 -0.40165946592E+03 -0.76475512555E+03  0.25386907440E+03  0.90898597061E+03  0.12500103687E+03 0.  0.
          2    1    1    2  501    0  0.52344984698E+03  0.81958820652E+03 -0.53726842404E+03  0.11110274209E+04  0.00000000000E+00 0. -1.
          1    1    1    2  502    0 -0.12179038107E+03 -0.54833080977E+02  0.11915651493E+04  0.11990275513E+04  0.00000000000E+00 0. -1.
         22    1    3    3    0    0 -0.20080120816E+03 -0.51170934019E+03  0.15547429955E+03  0.57126161420E+03  0.00000000000E+00 0. -1.
         22    1    3    3    0    0 -0.20085825776E+03 -0.25304578536E+03  0.98394774851E+02  0.33772435641E+03  0.00000000000E+00 0. -1.
</event>
<event>
 7    1  0.5018917E-005  0.7551287E+03  0.7818608E-02  0.1175293E+00
          2   -1    0    0  502    0  0.00000000000E+00  0.00000000000E+00  0.23512174657E+04  0.23512174657E+04  0.00000000000E+00 0. -1.
          1   -1    0    0  501    0 -0.00000000000E+00 -0.00000000000E+00 -0.62568629413E+03  0.62568629413E+03  0.00000000000E+00 0. -1.
         25    2    1    2    0    0  0.67221911512E+03  0.37685987510E+03  0.17803625100E+02  0.78092346434E+03  0.12499033522E+03 0.  0.
          2    1    1    2  501    0 -0.63334441148E+03 -0.37048948661E+03  0.30811844474E+03  0.79581692570E+03  0.00000000000E+00 0. -1.
          1    1    1    2  502    0 -0.38874703641E+02 -0.63703884903E+01  0.13996091017E+04  0.14001633698E+04  0.00000000000E+00 0. -1.
         22    1    3    3    0    0  0.58256222349E+02  0.17396451794E+02 -0.30137197140E+02  0.67857752901E+02  0.00000000000E+00 0. -1.
         22    1    3    3    0    0  0.61396289277E+03  0.35946342331E+03  0.47940822240E+02  0.71306571144E+03  0.00000000000E+00 0. -1.
</event>
<event>
 7    1  0.5018917E-005  0.1536680E+03  0.7818608E-02  0.1406734E+00
          2   -1    0    0  502    0  0.00000000000E+00  0.00000000000E+00  0.45005461822E+03  0.45005461822E+03  0.00000000000E+00 0. -1.
          1   -1    0    0  501    0 -0.00000000000E+00 -0.00000000000E+00 -0.25352893129E+03  0.25352893129E+03  0.00000000000E+00 0. -1.
         25    2    1    2    0    0 -0.78807534125E+02  0.14538751970E+03 -0.17374686753E+03  0.27048377704E+03  0.12500136536E+03 0.  0.
          2    1    1    2  501    0 -0.87784993852E+01 -0.19995629609E+02 -0.94010520425E+01  0.23775345096E+02  0.00000000000E+00 0. -1.
          1    1    1    2  502    0  0.87586033510E+02 -0.12539189009E+03  0.37967360651E+03  0.40932442738E+03  0.00000000000E+00 0. -1.
         22    1    3    3    0    0  0.20092947137E+02  0.38439099046E+01 -0.60806005985E+02  0.64155066299E+02  0.00000000000E+00 0.  1.
         22    1    3    3    0    0 -0.98900481261E+02  0.14154360979E+03 -0.11294086155E+03  0.20632871074E+03  0.00000000000E+00 0.  1.
</event>
<event>
 7    1  0.5018917E-005  0.1239687E+04  0.7818608E-02  0.1146265E+00
          2   -1    0    0  502    0  0.00000000000E+00  0.00000000000E+00  0.18528669222E+04  0.18528669222E+04  0.00000000000E+00 0. -1.
          1   -1    0    0  501    0 -0.00000000000E+00 -0.00000000000E+00 -0.18137185066E+04  0.18137185066E+04  0.00000000000E+00 0. -1.
         25    2    1    2    0    0 -0.35207282661E+03  0.11819884842E+04 -0.28609209513E+03  0.12722129427E+04  0.12500013000E+03 0.  0.
          2    1    1    2  501    0  0.32475256249E+03 -0.12015934214E+04 -0.65979337340E+03  0.14087648040E+04  0.00000000000E+00 0. -1.
          1    1    1    2  502    0  0.27320264125E+02  0.19604937191E+02  0.98503388410E+03  0.98560768221E+03  0.00000000000E+00 0. -1.
         22    1    3    3    0    0 -0.11620568917E+03  0.60858666170E+03 -0.14723919052E+03  0.63683660873E+03  0.00000000000E+00 0.  1.
         22    1    3    3    0    0 -0.23586713745E+03  0.57340182254E+03 -0.13885290462E+03  0.63537633395E+03  0.00000000000E+00 0.  1.
</event>
<event>
 7    1  0.5018917E-005  0.2096142E+03  0.7818608E-02  0.1223491E+00
          2   -1    0    0  502    0  0.00000000000E+00  0.00000000000E+00  0.56884250169E+03  0.56884250169E+03  0.00000000000E+00 0. -1.
          1   -1    0    0  501    0 -0.00000000000E+00 -0.00000000000E+00 -0.13848497517E+03  0.13848497517E+03  0.00000000000E+00 0. -1.
         25    2    1    2    0    0  0.68300037862E+02  0.22915118378E+03  0.25086703081E+03  0.36842151576E+03  0.12499994371E+03 0.  0.
          2    1    1    2  501    0  0.82519806102E+01 -0.19452498005E+03  0.16154523046E+03  0.25299194559E+03  0.00000000000E+00 0. -1.
          1    1    1    2  502    0 -0.76552018472E+02 -0.34626203729E+02  0.17945265243E+02  0.85914015512E+02  0.00000000000E+00 0. -1.
         22    1    3    3    0    0  0.54174675120E+02  0.21812550189E+03  0.16020573492E+03  0.27600635409E+03  0.00000000000E+00 0.  1.
         22    1    3    3    0    0  0.14125362742E+02  0.11025681895E+02  0.90661295893E+02  0.92415161672E+02  0.00000000000E+00 0.  1.
</event>
<event>
 7    1  0.5018917E-005  0.2703425E+03  0.7818608E-02  0.1190458E+00
          2   -1    0    0  502    0  0.00000000000E+00  0.00000000000E+00  0.17022517635E+04  0.17022517635E+04  0.00000000000E+00 0. -1.
          1   -1    0    0  501    0 -0.00000000000E+00 -0.00000000000E+00 -0.91117831489E+03  0.91117831489E+03  0.00000000000E+00 0. -1.
         25    2    1    2    0    0 -0.19063820485E+03  0.14467331041E+03 -0.77899162861E+02  0.28100971435E+03  0.12499955236E+03 0.  0.
          2    1    1    2  501    0  0.15903768709E+03 -0.23200079815E+03 -0.70327180950E+03  0.75743553804E+03  0.00000000000E+00 0. -1.
          1    1    1    2  502    0  0.31600517762E+02  0.87327487733E+02  0.15722444210E+04  0.15749848260E+04  0.00000000000E+00 0. -1.
         22    1    3    3    0    0 -0.90158677859E+01 -0.91509441364E+01 -0.37444127711E+02  0.39586466760E+02  0.00000000000E+00 0. -1.
         22    1    3    3    0    0 -0.18162233706E+03  0.15382425455E+03 -0.40455035150E+02  0.24142324759E+03  0.00000000000E+00 0. -1.
</event>
<event>
 7    1  0.5018917E-005  0.2562324E+03  0.7818608E-02  0.1156656E+00
          2   -1    0    0  502    0  0.00000000000E+00  0.00000000000E+00  0.20842969803E+04  0.20842969803E+04  0.00000000000E+00 0. -1.
          1   -1    0    0  501    0 -0.00000000000E+00 -0.00000000000E+00 -0.22455525969E+03  0.22455525969E+03  0.00000000000E+00 0. -1.
         25    2    1    2    0    0  0.23231406136E+03  0.18584256845E+03  0.32447457882E+02  0.32433190516E+03  0.12502425295E+03 0.  0.
          2    1    1    2  501    0 -0.22712508359E+03 -0.42043941181E+02  0.10076632648E+03  0.25200664503E+03  0.00000000000E+00 0. -1.
          1    1    1    2  502    0 -0.51889777650E+01 -0.14379862727E+03  0.17265279363E+04  0.17325136898E+04  0.00000000000E+00 0. -1.
         22    1    3    3    0    0  0.44714154268E+02  0.73145155585E+02  0.58721523803E+02  0.10391239933E+03  0.00000000000E+00 0. -1.
         22    1    3    3    0    0  0.18759990709E+03  0.11269741286E+03 -0.26274065920E+02  0.22041950582E+03  0.00000000000E+00 0. -1.
</event>
<event>
 7    1  0.5018917E-005  0.2875000E+03  0.7818608E-02  0.1250862E+00
          2   -1    0    0  502    0  0.00000000000E+00  0.00000000000E+00  0.27535289164E+03  0.27535289164E+03  0.00000000000E+00 0. -1.
          1   -1    0    0  501    0 -0.00000000000E+00 -0.00000000000E+00 -0.43085417134E+03  0.43085417134E+03  0.00000000000E+00 0. -1.
         25    2    1    2    0    0  0.21022621126E+03 -0.20486729475E+03  0.38672067400E+02  0.32138824733E+03  0.12501683235E+03 0.  0.
          2    1    1    2  501    0 -0.17081542568E+03  0.22922601732E+03 -0.16511967027E+03  0.33013176487E+03  0.00000000000E+00 0. -1.
          1    1    1    2  502    0 -0.39410785580E+02 -0.24358722576E+02 -0.29053676836E+02  0.54687050782E+02  0.00000000000E+00 0. -1.
         22    1    3    3    0    0  0.15470667206E+03 -0.14635646348E+03  0.83920422167E+02  0.22890392316E+03  0.00000000000E+00 0. -1.
         22    1    3    3    0    0  0.55519539202E+02 -0.58510831268E+02 -0.45248354767E+02  0.92484324174E+02  0.00000000000E+00 0. -1.
</event>
<event>
 7    1  0.5018917E-005  0.3732071E+03  0.7818608E-02  0.1293714E+00
          2   -1    0    0  502    0  0.00000000000E+00  0.00000000000E+00  0.14523712271E+04  0.14523712271E+04  0.00000000000E+00 0. -1.
          1   -1    0    0  501    0 -0.00000000000E+00 -0.00000000000E+00 -0.11080718735E+04  0.11080718735E+04  0.00000000000E+00 0. -1.
         25    2    1    2    0    0  0.27662195873E+03  0.27433583237E+03  0.77941608292E+03  0.88028069733E+03  0.12499927522E+03 0.  0.
          2    1    1    2  501    0 -0.25302093116E+03 -0.27347937965E+03 -0.10245843738E+04  0.10902218590E+04  0.00000000000E+00 0. -1.
          1    1    1    2  502    0 -0.23601027570E+02 -0.85645272094E+00  0.58946764444E+03  0.58994054434E+03  0.00000000000E+00 0. -1.
         22    1    3    3    0    0  0.95236005988E+02  0.26267914350E+02  0.14642525665E+03  0.17663594183E+03  0.00000000000E+00 0. -1.
         22    1    3    3    0    0  0.18138595275E+03  0.24806791802E+03  0.63299082627E+03  0.70364475551E+03  0.00000000000E+00 0. -1.
</event>
<event>
 7    1  0.5018917E-005  0.2385413E+03  0.7818608E-02  0.1147518E+00
          2   -1    0    0  502    0  0.00000000000E+00  0.00000000000E+00  0.85855982863E+02  0.85855982863E+02  0.00000000000E+00 0. -1.
          1   -1    0    0  501    0 -0.00000000000E+00 -0.00000000000E+00 -0.16201391966E+04  0.16201391966E+04  0.00000000000E+00 0. -1.
         25    2    1    2    0    0  0.25989366401E+03  0.14518893488E+03 -0.37636534718E+03  0.49588286155E+03  0.12499757766E+03 0.  0.
          2    1    1    2  501    0 -0.17184055665E+03  0.10598028098E+02 -0.59835281540E+03  0.62262957431E+03  0.00000000000E+00 0. -1.
          1    1    1    2  502    0 -0.88053107363E+02 -0.15578696298E+03 -0.55956505119E+03  0.58748274363E+03  0.00000000000E+00 0. -1.
         22    1    3    3    0    0 -0.12289285497E+02  0.18279395695E+02 -0.33481149078E+02  0.40076803622E+02  0.00000000000E+00 0. -1.
         22    1    3    3    0    0  0.27218294951E+03  0.12690953918E+03 -0.34288419810E+03  0.45580605793E+03  0.00000000000E+00 0. -1.
</event>
<event>
 7    1  0.5018917E-005  0.3905540E+03  0.7818608E-02  0.1048791E+00
          2   -1    0    0  502    0  0.00000000000E+00  0.00000000000E+00  0.54444539196E+03  0.54444539196E+03  0.00000000000E+00 0. -1.
          1   -1    0    0  501    0 -0.00000000000E+00 -0.00000000000E+00 -0.31511814817E+04  0.31511814817E+04  0.00000000000E+00 0. -1.
         25    2    1    2    0    0 -0.44515629969E+03 -0.15595006827E+03 -0.13204027652E+04  0.14076838081E+04  0.12500274459E+03 0.  0.
          2    1    1    2  501    0  0.10934578431E+03  0.36519341718E+03 -0.16842145873E+04  0.17268183195E+04  0.00000000000E+00 0. -1.
          1    1    1    2  502    0  0.33581051538E+03 -0.20924334891E+03  0.39788126283E+03  0.56112474604E+03  0.00000000000E+00 0. -1.
         22    1    3    3    0    0 -0.10639032803E+03  0.13450580304E+02 -0.24184619552E+03  0.26455510257E+03  0.00000000000E+00 0. -1.
         22    1    3    3    0    0 -0.33876597166E+03 -0.16940064857E+03 -0.10785565697E+04  0.11431287055E+04  0.00000000000E+00 0. -1.
</event>
<event>
 7    1  0.5018917E-005  0.1012375E+04  0.7818608E-02  0.1091451E+00
          2   -1    0    0  502    0  0.00000000000E+00  0.00000000000E+00  0.21624369526E+04  0.21624369526E+04  0.00000000000E+00 0. -1.
          1   -1    0    0  501    0 -0.00000000000E+00 -0.00000000000E+00 -0.12773397809E+04  0.12773397809E+04  0.00000000000E+00 0. -1.
         25    2    1    2    0    0 -0.17095563386E+03 -0.10658571791E+04  0.10009962141E+04  0.14774636872E+04  0.12501268534E+03 0.  0.
          2    1    1    2  501    0  0.17423306970E+03  0.98404971064E+03 -0.79579959957E+03  0.12775006843E+04  0.00000000000E+00 0. -1.
          1    1    1    2  502    0 -0.32774358391E+01  0.81807468492E+02  0.67990055718E+03  0.68481236200E+03  0.00000000000E+00 0. -1.
         22    1    3    3    0    0 -0.25361789608E+02 -0.20952249608E+03  0.26633739982E+03  0.33982128727E+03  0.00000000000E+00 0.  1.
         22    1    3    3    0    0 -0.14559384425E+03 -0.85633468305E+03  0.73465881423E+03  0.11376424000E+04  0.00000000000E+00 0.  1.
</event>
<event>
 7    1  0.5018917E-005  0.2979705E+03  0.7818608E-02  0.1330109E+00
          2   -1    0    0  502    0  0.00000000000E+00  0.00000000000E+00  0.15743749007E+04  0.15743749007E+04  0.00000000000E+00 0. -1.
          1   -1    0    0  501    0 -0.00000000000E+00 -0.00000000000E+00 -0.11057940646E+03  0.11057940646E+03  0.00000000000E+00 0. -1.
         25    2    1    2    0    0  0.28883212574E+03 -0.90593240126E+02  0.12353644373E+04  0.12780379524E+04  0.12499833126E+03 0.  0.
          2    1    1    2  501    0 -0.21014068900E+02 -0.33516922777E+01 -0.20390430647E+02  0.29471928929E+02  0.00000000000E+00 0. -1.
          1    1    1    2  502    0 -0.26781805684E+03  0.93944932404E+02  0.24882148758E+03  0.37744442582E+03  0.00000000000E+00 0. -1.
         22    1    3    3    0    0  0.25869825333E+02 -0.20781501915E+02  0.35608046457E+03  0.35762328773E+03  0.00000000000E+00 0. -1.
         22    1    3    3    0    0  0.26296230041E+03 -0.69811738211E+02  0.87928397275E+03  0.92041466468E+03  0.00000000000E+00 0. -1.
</event>
<event>
 7    1  0.5018917E-005  0.2449739E+03  0.7818608E-02  0.1253891E+00
          2   -1    0    0  502    0  0.00000000000E+00  0.00000000000E+00  0.50119907257E+03  0.50119907257E+03  0.00000000000E+00 0. -1.
          1   -1    0    0  501    0 -0.00000000000E+00 -0.00000000000E+00 -0.46323650185E+03  0.46323650185E+03  0.00000000000E+00 0. -1.
         25    2    1    2    0    0 -0.14229902416E+03 -0.17468688819E+03  0.20823325599E+03  0.33128640093E+03  0.12500027744E+03 0.  0.
          2    1    1    2  501    0 -0.63772441865E+01 -0.52372714143E+02 -0.31922516499E+03  0.32355567742E+03  0.00000000000E+00 0. -1.
          1    1    1    2  502    0  0.14867626835E+03  0.22705960234E+03  0.14895447971E+03  0.30959349607E+03  0.00000000000E+00 0. -1.
         22    1    3    3    0    0 -0.71532046117E+02 -0.17237040157E+03  0.14458023448E+03  0.23607590551E+03  0.00000000000E+00 0. -1.
         22    1    3    3    0    0 -0.70766978042E+02 -0.23164866188E+01  0.63653021508E+02  0.95210495422E+02  0.00000000000E+00 0. -1.
</event>
<event>
 7    1  0.5018917E-005  0.1160982E+03  0.7818608E-02  0.1274263E+00
          2   -1    0    0  502    0  0.00000000000E+00  0.00000000000E+00  0.24763781347E+04  0.24763781347E+04  0.00000000000E+00 0. -1.
          1   -1    0    0  501    0 -0.00000000000E+00 -0.00000000000E+00 -0.68857470871E+02  0.68857470871E+02  0.00000000000E+00 0. -1.
         25    2    1    2    0    0 -0.95941439136E+02  0.11225937368E+03  0.17949352936E+04  0.18053323898E+04  0.12500161091E+03 0.  0.
          2    1    1    2  501    0  0.11380705364E+03 -0.22779676191E+02 -0.44577670087E+01  0.11615003569E+03  0.00000000000E+00 0. -1.
          1    1    1    2  502    0 -0.17865614501E+02 -0.89479697487E+02  0.61704313723E+03  0.62375318007E+03  0.00000000000E+00 0. -1.
         22    1    3    3    0    0 -0.39149114332E+02  0.12495721069E+03  0.14034166632E+04  0.14095124293E+04  0.00000000000E+00 0. -1.
         22    1    3    3    0    0 -0.56792324804E+02 -0.12697837015E+02  0.39151863041E+03  0.39581996056E+03  0.00000000000E+00 0. -1.
</event>
<event>
 7    1  0.5018917E-005  0.2996933E+03  0.7818608E-02  0.1238003E+00
          2   -1    0    0  502    0  0.00000000000E+00  0.00000000000E+00  0.28248859136E+03  0.28248859136E+03  0.00000000000E+00 0. -1.
          1   -1    0    0  501    0 -0.00000000000E+00 -0.00000000000E+00 -0.74063478005E+03  0.74063478005E+03  0.00000000000E+00 0. -1.
         25    2    1    2    0    0  0.14928938537E+03 -0.29767373476E+03 -0.21031764821E+03  0.41322451385E+03  0.12499605094E+03 0.  0.
          2    1    1    2  501    0 -0.39180572581E+02  0.32015800454E+02 -0.31131635490E+03  0.31540133414E+03  0.00000000000E+00 0. -1.
          1    1    1    2  502    0 -0.11010881279E+03  0.26565793431E+03  0.63487814420E+02  0.29449752341E+03  0.00000000000E+00 0. -1.
         22    1    3    3    0    0  0.56977986423E+02 -0.11213115434E+03 -0.15328342177E+03  0.19828185520E+03  0.00000000000E+00 0. -1.
         22    1    3    3    0    0  0.92311398948E+02 -0.18554258042E+03 -0.57034226435E+02  0.21494265865E+03  0.00000000000E+00 0. -1.
</event>
<event>
 7    1  0.6486962E-005  0.1618282E+04  0.7818608E-02  0.1065944E+00
          2   -1    0    0  502    0  0.00000000000E+00  0.00000000000E+00  0.43028348374E+04  0.43028348374E+04  0.00000000000E+00 0. -1.
          1   -1    0    0  501    0 -0.00000000000E+00 -0.00000000000E+00 -0.10967935382E+04  0.10967935382E+04  0.00000000000E+00 0. -1.
         25    2    1    2    0    0 -0.72580272072E+02 -0.15760509773E+04  0.91036361967E+03  0.18258125470E+04  0.12499983230E+03 0.  0.
          2    1    1    2  501    0  0.71786815776E+02  0.16483268151E+04  0.42767857464E+03  0.17044188451E+04  0.00000000000E+00 0. -1.
          1    1    1    2  502    0  0.79345629677E+00 -0.72275837852E+02  0.18679991048E+04  0.18693969835E+04  0.00000000000E+00 0. -1.
         22    1    3    3    0    0 -0.10328193428E+03 -0.94180023482E+03  0.56013738120E+03  0.11006401438E+04  0.00000000000E+00 0. -1.
         22    1    3    3    0    0  0.30701662206E+02 -0.63425074243E+03  0.35022623847E+03  0.72517240326E+03  0.00000000000E+00 0. -1.
</event>
<event>
 7    1  0.5018917E-005  0.5983806E+03  0.7818608E-02  0.1165524E+00
          2   -1    0    0  502    0  0.00000000000E+00  0.00000000000E+00  0.31905778458E+04  0.31905778458E+04  0.00000000000E+00 0. -1.
          1   -1    0    0  501    0 -0.00000000000E+00 -0.00000000000E+00 -0.21436104495E+03  0.21436104495E+03  0.00000000000E+00 0. -1.
         25    2    1    2    0    0  0.41272072513E+03  0.48815861948E+03  0.15933060523E+04  0.17213034975E+04  0.12499727719E+03 0.  0.
          2    1    1    2  501    0 -0.38345688006E+03 -0.44090125104E+03  0.42116998262E+03  0.72028969609E+03  0.00000000000E+00 0. -1.
          1    1    1    2  502    0 -0.29263845068E+02 -0.47257368441E+02  0.96174076592E+03  0.96334569721E+03  0.00000000000E+00 0. -1.
         22    1    3    3    0    0  0.17387251550E+03  0.29619433166E+03  0.89948696271E+03  0.96282892034E+03  0.00000000000E+00 0. -1.
         22    1    3    3    0    0  0.23884820963E+03  0.19196428782E+03  0.69381908964E+03  0.75847457716E+03  0.00000000000E+00 0. -1.
</event>
<event>
 7    1  0.5018917E-005  0.2928456E+03  0.7818608E-02  0.1295468E+00
          2   -1    0    0  502    0  0.00000000000E+00  0.00000000000E+00  0.53752491838E+03  0.53752491838E+03  0.00000000000E+00 0. -1.
          1   -1    0    0  501    0 -0.00000000000E+00 -0.00000000000E+00 -0.13460457963E+04  0.13460457963E+04  0.00000000000E+00 0. -1.
         25    2    1    2    0    0 -0.29027786394E+03  0.53431353332E+00  0.33847375667E+03  0.46308772750E+03  0.12499694247E+03 0.  0.
          2    1    1    2  501    0  0.29156898870E+03  0.29047984380E+02 -0.12651684058E+04  0.12986559805E+04  0.00000000000E+00 0. -1.
          1    1    1    2  502    0 -0.12911247570E+01 -0.29582297914E+02  0.11817377123E+03  0.12182700670E+03  0.00000000000E+00 0. -1.
         22    1    3    3    0    0 -0.26759510235E+03  0.61480744980E+01  0.34697714550E+03  0.43822149322E+03  0.00000000000E+00 0.  1.
         22    1    3    3    0    0 -0.22682761587E+02 -0.56137609646E+01 -0.85033888375E+01  0.24866234277E+02  0.00000000000E+00 0.  1.
</event>
<event>
 7    1  0.5018917E-005  0.3294038E+02  0.7818608E-02  0.1576334E+00
          2   -1    0    0  502    0  0.00000000000E+00  0.00000000000E+00  0.13615774171E+04  0.13615774171E+04  0.00000000000E+00 0. -1.
          1   -1    0    0  501    0 -0.00000000000E+00 -0.00000000000E+00 -0.89715736846E+02  0.89715736846E+02  0.00000000000E+00 0. -1.
         25    2    1    2    0    0 -0.17252635639E+02  0.82804620381E+00  0.76806483547E+03  0.77836151734E+03  0.12499888435E+03 0.  0.
          2    1    1    2  501    0  0.57701150164E+01 -0.32431075775E+02 -0.80858215411E+02  0.87310479913E+02  0.00000000000E+00 0. -1.
          1    1    1    2  502    0  0.11482520623E+02  0.31603029571E+02  0.58465506015E+03  0.58562115665E+03  0.00000000000E+00 0. -1.
         22    1    3    3    0    0 -0.60146613337E+02 -0.28932778738E+02  0.55476229909E+03  0.55876285602E+03  0.00000000000E+00 0. -1.
         22    1    3    3    0    0  0.42893977698E+02  0.29760824942E+02  0.21330253638E+03  0.21959866131E+03  0.00000000000E+00 0. -1.
</event>
<event>
 7    1  0.5018917E-005  0.3998901E+03  0.7818608E-02  0.1287921E+00
          2   -1    0    0  502    0  0.00000000000E+00  0.00000000000E+00  0.31166506009E+03  0.31166506009E+03  0.00000000000E+00 0. -1.
          1   -1    0    0  501    0 -0.00000000000E+00 -0.00000000000E+00 -0.13522916981E+04  0.13522916981E+04  0.00000000000E+00 0. -1.
         25    2    1    2    0    0  0.38617547112E+03  0.82076571673E+02  0.36400858681E+02  0.41571426493E+03  0.12500107774E+03 0.  0.
          2    1    1    2  501    0  0.15098479204E+02  0.17703887952E+02 -0.66193074978E+03  0.66233957244E+03  0.00000000000E+00 0. -1.
          1    1    1    2  502    0 -0.40127395033E+03 -0.99780459624E+02 -0.41509674696E+03  0.58590292086E+03  0.00000000000E+00 0. -1.
         22    1    3    3    0    0  0.73414837652E+02  0.60002528852E+02 -0.20621899219E+02  0.97032492410E+02  0.00000000000E+00 0. -1.
         22    1    3    3    0    0  0.31276063347E+03  0.22074042821E+02  0.57022757900E+02  0.31868177252E+03  0.00000000000E+00 0. -1.
</event>
<event>
 7    1  0.5018917E-005  0.3317869E+03  0.7818608E-02  0.1078245E+00
          2   -1    0    0  502    0  0.00000000000E+00  0.00000000000E+00  0.35842066586E+04  0.35842066586E+04  0.00000000000E+00 0. -1.
          1   -1    0    0  501    0 -0.00000000000E+00 -0.00000000000E+00 -0.50105042000E+03  0.50105042000E+03  0.00000000000E+00 0. -1.
         25    2    1    2    0    0  0.60766915724E+03 -0.13642177535E+03 -0.81906566116E+02  0.64047283307E+03  0.12499623545E+03 0.  0.
          2    1    1    2  501    0 -0.28900464085E+03  0.72531346303E+02  0.37428414899E+02  0.30030878254E+03  0.00000000000E+00 0. -1.
          1    1    1    2  502    0 -0.31866451639E+03  0.63890429052E+02  0.31276343898E+04  0.31444754629E+04  0.00000000000E+00 0. -1.
         22    1    3    3    0    0  0.58805851325E+03 -0.15087571654E+03 -0.92125058475E+02  0.61405482104E+03  0.00000000000E+00 0. -1.
         22    1    3    3    0    0  0.19610643994E+02  0.14453941185E+02  0.10218492359E+02  0.26418012032E+02  0.00000000000E+00 0. -1.
</event>
<event>
 7    1  0.5018917E-005  0.3420351E+03  0.7818608E-02  0.1268285E+00
          2   -1    0    0  502    0  0.00000000000E+00  0.00000000000E+00  0.31164131690E+03  0.31164131690E+03  0.00000000000E+00 0. -1.
          1   -1    0    0  501    0 -0.00000000000E+00 -0.00000000000E+00 -0.17547218922E+04  0.17547218922E+04  0.00000000000E+00 0. -1.
         25    2    1    2    0    0 -0.13662238852E+03 -0.32889072875E+03 -0.32500473871E+03  0.49808403068E+03  0.12499933173E+03 0.  0.
          2    1    1    2  501    0  0.10448839612E+03  0.32225842963E+03 -0.13204739720E+04  0.13632387286E+04  0.00000000000E+00 0. -1.
          1    1    1    2  502    0  0.32133992400E+02  0.66322991216E+01  0.20239813540E+03  0.20504044984E+03  0.00000000000E+00 0. -1.
         22    1    3    3    0    0  0.10685729571E+02 -0.21007571898E+02 -0.64642843637E+02  0.68805523957E+02  0.00000000000E+00 0. -1.
         22    1    3    3    0    0 -0.14730811809E+03 -0.30788315686E+03 -0.26036189507E+03  0.42927850673E+03  0.00000000000E+00 0. -1.
</event>
<event>
 7    1  0.5018917E-005  0.4978496E+03  0.7818608E-02  0.1134226E+00
          2   -1    0    0  502    0  0.00000000000E+00  0.00000000000E+00  0.34643209840E+04  0.34643209840E+04  0.00000000000E+00 0. -1.
          1   -1    0    0  501    0 -0.00000000000E+00 -0.00000000000E+00 -0.14306964512E+03  0.14306964512E+03  0.00000000000E+00 0. -1.
         25    2    1    2    0    0  0.16784944243E+03 -0.51967906708E+03  0.16401077828E+04  0.17331526710E+04  0.12499949495E+03 0.  0.
          2    1    1    2  501    0 -0.73863121428E+02  0.62584419265E+02 -0.29403239048E+02  0.10117865738E+03  0.00000000000E+00 0. -1.
          1    1    1    2  502    0 -0.93986321003E+02  0.45709464782E+03  0.17105467951E+04  0.17730593007E+04  0.00000000000E+00 0. -1.
         22    1    3    3    0    0  0.13487018119E+03 -0.36535663025E+03  0.98245818991E+03  0.10568346739E+04  0.00000000000E+00 0.  1.
         22    1    3    3    0    0  0.32979261237E+02 -0.15432243684E+03  0.65764959291E+03  0.67631799712E+03  0.00000000000E+00 0.  1.
</event>
<event>
 7    1  0.5018917E-005  0.4194055E+03  0.7818608E-02  0.1124284E+00
          2   -1    0    0  502    0  0.00000000000E+00  0.00000000000E+00  0.10291853873E+04  0.10291853873E+04  0.00000000000E+00 0. -1.
          1   -1    0    0  501    0 -0.00000000000E+00 -0.00000000000E+00 -0.19544905781E+04  0.19544905781E+04  0.00000000000E+00 0. -1.
         25    2    1    2    0    0  0.31399193603E+03 -0.12573451969E+03  0.14376189771E+03  0.38819109640E+03  0.12499895504E+03 0.  0.
          2    1    1    2  501    0  0.11247481198E+03 -0.64915185779E+02 -0.17581747440E+04  0.17629642637E+04  0.00000000000E+00 0. -1.
          1    1    1    2  502    0 -0.42646674801E+03  0.19064970547E+03  0.68910765551E+03  0.83252060529E+03  0.00000000000E+00 0. -1.
         22    1    3    3    0    0  0.15470831306E+03 -0.66820166922E+02  0.13874318050E+03  0.21828712049E+03  0.00000000000E+00 0.  1.
         22    1    3    3    0    0  0.15928362297E+03 -0.58914352764E+02  0.50187172102E+01  0.16990397591E+03  0.00000000000E+00 0.  1.
</event>
<event>
 7    1  0.5018917E-005  0.1020961E+04  0.7818608E-02  0.1160868E+00
          2   -1    0    0  502    0  0.00000000000E+00  0.00000000000E+00  0.64866185878E+03  0.64866185878E+03  0.00000000000E+00 0. -1.
          1   -1    0    0  501    0 -0.00000000000E+00 -0.00000000000E+00 -0.28567952060E+04  0.28567952060E+04  0.00000000000E+00 0. -1.
         25    2    1    2    0    0 -0.10104820198E+04  0.20906095564E+03 -0.27312000320E+03  0.10747087588E+04  0.12499593763E+03 0.  0.
          2    1    1    2  501    0  0.22766570919E+02 -0.25764056456E+02 -0.11637212528E+04  0.11642290400E+04  0.00000000000E+00 0. -1.
          1    1    1    2  502    0  0.98771544891E+03 -0.18329689918E+03 -0.77129209121E+03  0.12665192660E+04  0.00000000000E+00 0. -1.
         22    1    3    3    0    0 -0.65783152026E+03  0.16800664828E+03 -0.12669255987E+03  0.69066601743E+03  0.00000000000E+00 0. -1.
         22    1    3    3    0    0 -0.35265049957E+03  0.41054307361E+02 -0.14642744333E+03  0.38404274132E+03  0.00000000000E+00 0. -1.
</event>
<event>
 7    1  0.5018917E-005  0.1022090E+04  0.7818608E-02  0.1151643E+00
          2   -1    0    0  502    0  0.00000000000E+00  0.00000000000E+00  0.18314194192E+04  0.18314194192E+04  0.00000000000E+00 0. -1.
          1   -1    0    0  501    0 -0.00000000000E+00 -0.00000000000E+00 -0.23124806194E+04  0.23124806194E+04  0.00000000000E+00 0. -1.
         25    2    1    2    0    0  0.66230149948E+03 -0.80175870111E+03 -0.37260439637E+03  0.11117229861E+04  0.12503467752E+03 0.  0.
          2    1    1    2  501    0 -0.38189480468E+02 -0.23850952163E+01 -0.13928229060E+04  0.13933484031E+04  0.00000000000E+00 0. -1.
          1    1    1    2  502    0 -0.62411201902E+03  0.80414379633E+03  0.12843661021E+04  0.16388286493E+04  0.00000000000E+00 0. -1.
         22    1    3    3    0    0  0.14859119682E+03 -0.25730360925E+03 -0.77211054966E+02  0.30699517604E+03  0.00000000000E+00 0.  1.
         22    1    3    3    0    0  0.51371030267E+03 -0.54445509186E+03 -0.29539334141E+03  0.80472781005E+03  0.00000000000E+00 0.  1.
</event>
<event>
 7    1  0.5018917E-005  0.1811651E+03  0.7818608E-02  0.1205248E+00
          2   -1    0    0  502    0  0.00000000000E+00  0.00000000000E+00  0.10094000931E+04  0.10094000931E+04  0.00000000000E+00 0. -1.
          1   -1    0    0  501    0 -0.00000000000E+00 -0.00000000000E+00 -0.36007667517E+03  0.36007667517E+03  0.00000000000E+00 0. -1.
         25    2    1    2    0    0  0.10340259719E+03  0.25241481541E+03 -0.56640792408E+02  0.30534635160E+03  0.12499151544E+03 0.  0.
          2    1    1    2  501    0 -0.69277612303E+02 -0.13950919535E+03 -0.14033148770E+03  0.20965478672E+03  0.00000000000E+00 0. -1.
          1    1    1    2  502    0 -0.34124984890E+02 -0.11290562005E+03  0.84629569809E+03  0.85447562999E+03  0.00000000000E+00 0. -1.
         22    1    3    3    0    0  0.73249087113E+02  0.20178024191E+03  0.11850082294E+02  0.21499097478E+03  0.00000000000E+00 0. -1.
         22    1    3    3    0    0  0.30153510080E+02  0.50634573500E+02 -0.68490874702E+02  0.90355376824E+02  0.00000000000E+00 0. -1.
</event>
<event>
 7    1  0.5018917E-005  0.1919042E+04  0.7818608E-02  0.1060161E+00
          2   -1    0    0  502    0  0.00000000000E+00  0.00000000000E+00  0.42408712265E+04  0.42408712265E+04  0.00000000000E+00 0. -1.
          1   -1    0    0  501    0 -0.00000000000E+00 -0.00000000000E+00 -0.19017411104E+04  0.19017411104E+04  0.00000000000E+00 0. -1.
         25    2    1    2    0    0  0.17779864046E+04 -0.60175526454E+03  0.24251143856E+04  0.30692261092E+04  0.12499628978E+03 0.  0.
          2    1    1    2  501    0 -0.18395270962E+04  0.57774732951E+03 -0.98967706690E+03  0.21672823100E+04  0.00000000000E+00 0. -1.
          1    1    1    2  502    0  0.61540691578E+02  0.24007935033E+02  0.90369279740E+03  0.90610391774E+03  0.00000000000E+00 0. -1.
         22    1    3    3    0    0  0.99685903541E+03 -0.36219644038E+03  0.12757098764E+04  0.16590207614E+04  0.00000000000E+00 0. -1.
         22    1    3    3    0    0  0.78112736918E+03 -0.23955882416E+03  0.11494045092E+04  0.14102053478E+04  0.00000000000E+00 0. -1.
</event>
<event>
 7    1  0.5018917E-005  0.1069037E+04  0.7818608E-02  0.1102916E+00
          2   -1    0    0  502    0  0.00000000000E+00  0.00000000000E+00  0.84603726641E+03  0.84603726641E+03  0.00000000000E+00 0. -1.
          1   -1    0    0  501    0 -0.00000000000E+00 -0.00000000000E+00 -0.22559942422E+04  0.22559942422E+04  0.00000000000E+00 0. -1.
         25    2    1    2    0    0  0.11017075233E+04  0.57108626050E+02 -0.25737853405E+03  0.11396858078E+04  0.12497667228E+03 0.  0.
          2    1    1    2  501    0 -0.66422239376E+02 -0.67594249919E+01 -0.89078959534E+03  0.89328814326E+03  0.00000000000E+00 0. -1.
          1    1    1    2  502    0 -0.10352852840E+04 -0.50349201058E+02 -0.26178884642E+03  0.10690575575E+04  0.00000000000E+00 0. -1.
         22    1    3    3    0    0  0.26815683832E+03 -0.33352850673E+02 -0.36851083990E+02  0.27272422880E+03  0.00000000000E+00 0.  1.
         22    1    3    3    0    0  0.83355068502E+03  0.90461476723E+02 -0.22052745006E+03  0.86696157902E+03  0.00000000000E+00 0.  1.
</event>
<event>
 7    1  0.5018917E-005  0.1720990E+04  0.7818608E-02  0.1067341E+00
          2   -1    0    0  502    0  0.00000000000E+00  0.00000000000E+00  0.31792278190E+04  0.31792278190E+04  0.00000000000E+00 0. -1.
          1   -1    0    0  501    0 -0.00000000000E+00 -0.00000000000E+00 -0.31348978389E+04  0.31348978389E+04  0.00000000000E+00 0. -1.
         25    2    1    2    0    0  0.12182505629E+04  0.12933512411E+04  0.91993801891E+03  0.20046951459E+04  0.12499921039E+03 0.  0.
          2    1    1    2  501    0 -0.11696221137E+04 -0.12477463544E+04 -0.23096099304E+04  0.28738797616E+04  0.00000000000E+00 0. -1.
          1    1    1    2  502    0 -0.48628449155E+02 -0.45604886732E+02  0.14340018915E+04  0.14355507503E+04  0.00000000000E+00 0. -1.
         22    1    3    3    0    0  0.82992753482E+03  0.93934620721E+03  0.60192176059E+03  0.13904894160E+04  0.00000000000E+00 0. -1.
         22    1    3    3    0    0  0.38832302805E+03  0.35400503392E+03  0.31801625832E+03  0.61420572995E+03  0.00000000000E+00 0. -1.
</event>
<event>
 7    1  0.5018917E-005  0.4865438E+02  0.7818608E-02  0.1453337E+00
          2   -1    0    0  502    0  0.00000000000E+00  0.00000000000E+00  0.13659309157E+04  0.13659309157E+04  0.00000000000E+00 0. -1.
          1   -1    0    0  501    0 -0.00000000000E+00 -0.00000000000E+00 -0.13319234809E+03  0.13319234809E+03  0.00000000000E+00 0. -1.
         25    2    1    2    0    0  0.52630238398E+01 -0.12168809695E+02  0.75838650322E+01  0.12593289210E+03  0.12500319578E+03 0.  0.
          2    1    1    2  501    0  0.41891618118E+02  0.24745518167E+02 -0.65510998386E+02  0.81602323787E+02  0.00000000000E+00 0. -1.
          1    1    1    2  502    0 -0.47154641958E+02 -0.12576708472E+02  0.12906657010E+04  0.12915880479E+04  0.00000000000E+00 0. -1.
         22    1    3    3    0    0  0.64251607133E+02  0.44419778508E+01  0.49103845805E+01  0.64591888525E+02  0.00000000000E+00 0. -1.
         22    1    3    3    0    0 -0.58988583294E+02 -0.16610787546E+02  0.26734804517E+01  0.61341003575E+02  0.00000000000E+00 0. -1.
</event>
<event>
 7    1  0.5018917E-005  0.3447465E+03  0.7818608E-02  0.1237108E+00
          2   -1    0    0  502    0  0.00000000000E+00  0.00000000000E+00  0.39808652186E+03  0.39808652186E+03  0.00000000000E+00 0. -1.
          1   -1    0    0  501    0 -0.00000000000E+00 -0.00000000000E+00 -0.49051822235E+03  0.49051822235E+03  0.00000000000E+00 0. -1.
         25    2    1    2    0    0  0.42993450575E+02 -0.37157545754E+03 -0.10766909384E+03  0.40881878480E+03  0.12499363025E+03 0.  0.
          2    1    1    2  501    0  0.83862272648E+01  0.43589012596E+02 -0.11492150266E+03  0.12319611439E+03  0.00000000000E+00 0. -1.
          1    1    1    2  502    0 -0.51379677839E+02  0.32798644494E+03  0.13015889601E+03  0.35658984502E+03  0.00000000000E+00 0. -1.
         22    1    3    3    0    0 -0.37364897878E+02 -0.20375794885E+03 -0.72383949436E+02  0.21943762998E+03  0.00000000000E+00 0. -1.
         22    1    3    3    0    0  0.80358348453E+02 -0.16781750869E+03 -0.35285144399E+02  0.18938115483E+03  0.00000000000E+00 0. -1.
</event>
<event>
 7    1  0.5018917E-005  0.5226168E+03  0.7818608E-02  0.1075573E+00
          2   -1    0    0  502    0  0.00000000000E+00  0.00000000000E+00  0.32171951374E+04  0.32171951374E+04  0.00000000000E+00 0. -1.
          1   -1    0    0  501    0 -0.00000000000E+00 -0.00000000000E+00 -0.18627098788E+04  0.18627098788E+04  0.00000000000E+00 0. -1.
         25    2    1    2    0    0  0.56557475061E+03 -0.12942710147E+03  0.32665559153E+03  0.67746319069E+03  0.12500530445E+03 0.  0.
          2    1    1    2  501    0 -0.50500537720E+02  0.18952673955E+03 -0.16567075316E+04  0.16682777151E+04  0.00000000000E+00 0. -1.
          1    1    1    2  502    0 -0.51507421289E+03 -0.60099638081E+02  0.26845371987E+04  0.27341641104E+04  0.00000000000E+00 0. -1.
         22    1    3    3    0    0  0.47056830450E+03 -0.11538283165E+03  0.21466641106E+03  0.52993338740E+03  0.00000000000E+00 0. -1.
         22    1    3    3    0    0  0.95006446113E+02 -0.14044269815E+02  0.11198918047E+03  0.14752980330E+03  0.00000000000E+00 0. -1.
</event>
<event>
 7    1  0.5018917E-005  0.3692559E+03  0.7818608E-02  0.1242229E+00
          2   -1    0    0  502    0  0.00000000000E+00  0.00000000000E+00  0.80268258983E+03  0.80268258983E+03  0.00000000000E+00 0. -1.
          1   -1    0    0  501    0 -0.00000000000E+00 -0.00000000000E+00 -0.68931508646E+03  0.68931508646E+03  0.00000000000E+00 0. -1.
         25    2    1    2    0    0  0.39377698136E+03 -0.41508811832E+02 -0.34408405229E+02  0.41664160899E+03  0.12499199768E+03 0.  0.
          2    1    1    2  501    0 -0.35582381420E+03  0.51866438709E+02 -0.39327050770E+03  0.53288123109E+03  0.00000000000E+00 0. -1.
          1    1    1    2  502    0 -0.37953167162E+02 -0.10357626876E+02  0.54104641630E+03  0.54247483621E+03  0.00000000000E+00 0. -1.
         22    1    3    3    0    0  0.80960243234E+02 -0.26864850648E+01  0.43491730247E+02  0.91941877218E+02  0.00000000000E+00 0. -1.
         22    1    3    3    0    0  0.31281673813E+03 -0.38822326768E+02 -0.77900135476E+02  0.32469973178E+03  0.00000000000E+00 0. -1.
</event>
<event>
 7    1  0.5018917E-005  0.4552410E+03  0.7818608E-02  0.1152474E+00
          2   -1    0    0  502    0  0.00000000000E+00  0.00000000000E+00  0.12399402598E+04  0.12399402598E+04  0.00000000000E+00 0. -1.
          1   -1    0    0  501    0 -0.00000000000E+00 -0.00000000000E+00 -0.15644542331E+04  0.15644542331E+04  0.00000000000E+00 0. -1.
         25    2    1    2    0    0 -0.47520665500E+03  0.15314152601E+02 -0.37859675998E+03  0.62049796771E+03  0.12500533202E+03 0.  0.
          2    1    1    2  501    0  0.31142429117E+02  0.79164202716E+02 -0.10170075309E+04  0.10205592290E+04  0.00000000000E+00 0. -1.
          1    1    1    2  502    0  0.44406422588E+03 -0.94478355317E+02  0.10710903176E+04  0.11633372963E+04  0.00000000000E+00 0. -1.
         22    1    3    3    0    0 -0.14884158186E+03  0.10109728214E+02 -0.19655732447E+03  0.24676062267E+03  0.00000000000E+00 0. -1.
         22    1    3    3    0    0 -0.32636507314E+03  0.52044243868E+01 -0.18203943551E+03  0.37373734504E+03  0.00000000000E+00 0. -1.
</event>
<event>
 7    1  0.5018917E-005  0.3363303E+03  0.7818608E-02  0.1226220E+00
          2   -1    0    0  502    0  0.00000000000E+00  0.00000000000E+00  0.31334074891E+04  0.31334074891E+04  0.00000000000E+00 0. -1.
          1   -1    0    0  501    0 -0.00000000000E+00 -0.00000000000E+00 -0.78437773495E+02  0.78437773495E+02  0.00000000000E+00 0. -1.
         25    2    1    2    0    0  0.92626393277E+02  0.35634183326E+03  0.10731678827E+04  0.11414351757E+04  0.12500321985E+03 0.  0.
          2    1    1    2  501    0 -0.66401526217E+02 -0.31272109399E+03  0.53876078640E+03  0.62647173142E+03  0.00000000000E+00 0. -1.
          1    1    1    2  502    0 -0.26224867060E+02 -0.43620739269E+02  0.14430410465E+04  0.14439383555E+04  0.00000000000E+00 0. -1.
         22    1    3    3    0    0  0.32789714600E+02  0.59403638276E+01  0.95868000464E+02  0.10149446694E+03  0.00000000000E+00 0.  1.
         22    1    3    3    0    0  0.59836678678E+02  0.35040146943E+03  0.97729988223E+03  0.10399407087E+04  0.00000000000E+00 0.  1.
</event>
<event>
 7    1  0.5018917E-005  0.2300214E+03  0.7818608E-02  0.1213613E+00
          2   -1    0    0  502    0  0.00000000000E+00  0.00000000000E+00  0.34044912120E+03  0.34044912120E+03  0.00000000000E+00 0. -1.
          1   -1    0    0  501    0 -0.00000000000E+00 -0.00000000000E+00 -0.31410331418E+03  0.31410331418E+03  0.00000000000E+00 0. -1.
         25    2    1    2    0    0 -0.15399895372E+03  0.23236471730E+03  0.49558713312E+02  0.30949871207E+03  0.12499738843E+03 0.  0.
          2    1    1    2  501    0  0.15380282485E+03 -0.14741215377E+03 -0.95540882085E+02  0.23348171697E+03  0.00000000000E+00 0. -1.
          1    1    1    2  502    0  0.19612887583E+00 -0.84952563524E+02  0.72327975800E+02  0.11157200634E+03  0.00000000000E+00 0. -1.
         22    1    3    3    0    0 -0.10266090635E+03  0.23108713113E+03  0.30391724091E+02  0.25468447295E+03  0.00000000000E+00 0. -1.
         22    1    3    3    0    0 -0.51338047376E+02  0.12775861638E+01  0.19166989221E+02  0.54814239122E+02  0.00000000000E+00 0. -1.
</event>
<event>
 7    1  0.5018917E-005  0.4472341E+03  0.7818608E-02  0.1210061E+00
          2   -1    0    0  502    0  0.00000000000E+00  0.00000000000E+00  0.17338325528E+04  0.17338325528E+04  0.00000000000E+00 0. -1.
          1   -1    0    0  501    0 -0.00000000000E+00 -0.00000000000E+00 -0.61062355235E+03  0.61062355235E+03  0.00000000000E+00 0. -1.
         25    2    1    2    0    0  0.42094221914E+03  0.10961080808E+03  0.11457696448E+04  0.12319183398E+04  0.12501134312E+03 0.  0.
          2    1    1    2  501    0  0.36225001365E+02  0.27327553288E+02 -0.46174693715E+03  0.46397120585E+03  0.00000000000E+00 0. -1.
          1    1    1    2  502    0 -0.45716722051E+03 -0.13693836137E+03  0.43918629284E+03  0.64856655953E+03  0.00000000000E+00 0. -1.
         22    1    3    3    0    0  0.17741280720E+03  0.11057173825E+03  0.53254361104E+03  0.57210498260E+03  0.00000000000E+00 0.  1.
         22    1    3    3    0    0  0.24352941195E+03 -0.96093017106E+00  0.61322603377E+03  0.65981335722E+03  0.00000000000E+00 0.  1.
</event>
<event>
 7    1  0.5018917E-005  0.1212895E+04  0.7818608E-02  0.1052882E+00
          2   -1    0    0  502    0  0.00000000000E+00  0.00000000000E+00  0.35827205006E+04  0.35827205006E+04  0.00000000000E+00 0. -1.
          1   -1    0    0  501    0 -0.00000000000E+00 -0.00000000000E+00 -0.20309515751E+04  0.20309515751E+04  0.00000000000E+00 0. -1.
         25    2    1    2    0    0  0.73569985155E+03  0.10679433245E+04  0.72780373015E+03  0.14923405312E+04  0.12499910305E+03 0.  0.
          2    1    1    2  501    0 -0.72415110850E+03 -0.95271793363E+03 -0.14298476292E+04  0.18645456636E+04  0.00000000000E+00 0. -1.
          1    1    1    2  502    0 -0.11548743052E+02 -0.11522539083E+03  0.22538128245E+04  0.22567858809E+04  0.00000000000E+00 0. -1.
         22    1    3    3    0    0  0.35946561548E+03  0.54151699197E+03  0.43514660947E+03  0.78218204598E+03  0.00000000000E+00 0.  1.
         22    1    3    3    0    0  0.37623423607E+03  0.52642633249E+03  0.29265712067E+03  0.71015848527E+03  0.00000000000E+00 0.  1.
</event>
<event>
 7    1  0.5018917E-005  0.3260305E+03  0.7818608E-02  0.1242610E+00
          2   -1    0    0  502    0  0.00000000000E+00  0.00000000000E+00  0.31696066844E+04  0.31696066844E+04  0.00000000000E+00 0. -1.
          1   -1    0    0  501    0 -0.00000000000E+00 -0.00000000000E+00 -0.31812850137E+03  0.31812850137E+03  0.00000000000E+00 0. -1.
         25    2    1    2    0    0 -0.32688274790E+03  0.11003538516E+03 -0.17569855063E+02  0.36727934520E+03  0.12500120296E+03 0.  0.
          2    1    1    2  501    0  0.28303742689E+03 -0.11694085929E+03  0.61252491700E+02  0.31230948966E+03  0.00000000000E+00 0. -1.
          1    1    1    2  502    0  0.43845321009E+02  0.69054741273E+01  0.28077955464E+04  0.28081463509E+04  0.00000000000E+00 0. -1.
         22    1    3    3    0    0 -0.16976362371E+03  0.11472518514E+03  0.19371632007E+02  0.20580771649E+03  0.00000000000E+00 0.  1.
         22    1    3    3    0    0 -0.15711912419E+03 -0.46897999832E+01 -0.36941487069E+02  0.16147162871E+03  0.00000000000E+00 0.  1.
</event>
<event>
 7    1  0.5018917E-005  0.3654425E+02  0.7818608E-02  0.1547580E+00
          2   -1    0    0  502    0  0.00000000000E+00  0.00000000000E+00  0.33275848727E+02  0.33275848727E+02  0.00000000000E+00 0. -1.
          1   -1    0    0  501    0 -0.00000000000E+00 -0.00000000000E+00 -0.69567909098E+03  0.69567909098E+03  0.00000000000E+00 0. -1.
         25    2    1    2    0    0  0.72401945147E+01 -0.97090340993E+00 -0.38623295034E+03  0.40602245593E+03  0.12499991888E+03 0.  0.
          2    1    1    2  501    0 -0.38631744405E+02  0.13343768737E+02 -0.28511142074E+03  0.28802602327E+03  0.00000000000E+00 0. -1.
          1    1    1    2  502    0  0.31391549890E+02 -0.12372865327E+02  0.89411288312E+01  0.34906460515E+02  0.00000000000E+00 0. -1.
         22    1    3    3    0    0  0.63883869892E+02  0.97131698879E+01 -0.24738000831E+03  0.25568019675E+03  0.00000000000E+00 0. -1.
         22    1    3    3    0    0 -0.56643675377E+02 -0.10684073298E+02 -0.13885294204E+03  0.15034225918E+03  0.00000000000E+00 0. -1.
</event>
<event>
 7    1  0.5018917E-005  0.5201695E+03  0.7818608E-02  0.1106759E+00
          2   -1    0    0  502    0  0.00000000000E+00  0.00000000000E+00  0.16994837193E+04  0.16994837193E+04  0.00000000000E+00 0. -1.
          1   -1    0    0  501    0 -0.00000000000E+00 -0.00000000000E+00 -0.87716748021E+03  0.87716748021E+03  0.00000000000E+00 0. -1.
         25    2    1    2    0    0  0.12889779877E+03 -0.57468868531E+03  0.35779813638E+03  0.70038053303E+03  0.12502662557E+03 0.  0.
          2    1    1    2  501    0 -0.15770136041E+02  0.50943381868E+03 -0.60939860296E+03  0.79444204955E+03  0.00000000000E+00 0. -1.
          1    1    1    2  502    0 -0.11312766273E+03  0.65254866628E+02  0.10739167056E+04  0.10818286169E+04  0.00000000000E+00 0. -1.
         22    1    3    3    0    0  0.26116065605E+02 -0.36653058012E+03  0.24988022824E+03  0.44437241534E+03  0.00000000000E+00 0.  1.
         22    1    3    3    0    0  0.10278173316E+03 -0.20815810519E+03  0.10791790814E+03  0.25600811769E+03  0.00000000000E+00 0.  1.
</event>
<event>
 7    1  0.5018917E-005  0.4520992E+02  0.7818608E-02  0.1487308E+00
          2   -1    0    0  502    0  0.00000000000E+00  0.00000000000E+00  0.46044431751E+03  0.46044431751E+03  0.00000000000E+00 0. -1.
          1   -1    0    0  501    0 -0.00000000000E+00 -0.00000000000E+00 -0.36215505890E+02  0.36215505890E+02  0.00000000000E+00 0. -1.
         25    2    1    2    0    0 -0.74233018677E+02 -0.22788525692E+02  0.36649939435E+03  0.39493744047E+03  0.12499567139E+03 0.  0.
          2    1    1    2  501    0  0.33411390468E+02  0.24880998430E+02  0.37783081650E+02  0.56240077835E+02  0.00000000000E+00 0. -1.
          1    1    1    2  502    0  0.40821628209E+02 -0.20924727384E+01  0.19946335625E+02  0.45482305094E+02  0.00000000000E+00 0. -1.
         22    1    3    3    0    0  0.11388349730E+02 -0.42634625185E+02  0.51084184753E+02  0.67505553150E+02  0.00000000000E+00 0. -1.
         22    1    3    3    0    0 -0.85621368406E+02  0.19846099493E+02  0.31541520959E+03  0.32743188732E+03  0.00000000000E+00 0. -1.
</event>
<event>
 7    1  0.5018917E-005  0.2050391E+03  0.7818608E-02  0.1181059E+00
          2   -1    0    0  502    0  0.00000000000E+00  0.00000000000E+00  0.82748758494E+03  0.82748758494E+03  0.00000000000E+00 0. -1.
          1   -1    0    0  501    0 -0.00000000000E+00 -0.00000000000E+00 -0.12576006633E+04  0.12576006633E+04  0.00000000000E+00 0. -1.
         25    2    1    2    0    0  0.34285122801E+02  0.26992427479E+03  0.59091355719E+03  0.66244887195E+03  0.12500036844E+03 0.  0.
          2    1    1    2  501    0 -0.65149367668E+02 -0.11931973912E+03 -0.11879527496E+04  0.11957062246E+04  0.00000000000E+00 0. -1.
          1    1    1    2  502    0  0.30864244867E+02 -0.15060453567E+03  0.16692611406E+03  0.22693315168E+03  0.00000000000E+00 0. -1.
         22    1    3    3    0    0  0.76599154608E+01  0.25977164160E+03  0.57193655387E+03  0.62821286340E+03  0.00000000000E+00 0. -1.
         22    1    3    3    0    0  0.26625207340E+02  0.10152633191E+02  0.18977003319E+02  0.34236008552E+02  0.00000000000E+00 0. -1.
</event>
<event>
 7    1  0.5018917E-005  0.7832372E+03  0.7818608E-02  0.1217379E+00
          2   -1    0    0  502    0  0.00000000000E+00  0.00000000000E+00  0.47922652231E+03  0.47922652231E+03  0.00000000000E+00 0. -1.
          1   -1    0    0  501    0 -0.00000000000E+00 -0.00000000000E+00 -0.22255786178E+04  0.22255786178E+04  0.00000000000E+00 0. -1.
         25    2    1    2    0    0 -0.79902369682E+03 -0.41430209667E+01 -0.59511239487E+03  0.10041113924E+04  0.12499957229E+03 0.  0.
          2    1    1    2  501    0  0.77507805171E+03  0.53228398341E+01 -0.13197278742E+04  0.15305084060E+04  0.00000000000E+00 0. -1.
          1    1    1    2  502    0  0.23945645119E+02 -0.11798188674E+01  0.16848817360E+03  0.17018534172E+03  0.00000000000E+00 0. -1.
         22    1    3    3    0    0 -0.78767541738E+03  0.79029012154E+01 -0.56379377437E+03  0.96868903112E+03  0.00000000000E+00 0. -1.
         22    1    3    3    0    0 -0.11348279448E+02 -0.12045922182E+02 -0.31318620495E+02  0.35422361262E+02  0.00000000000E+00 0. -1.
</event>
<event>
 7    1  0.5018917E-005  0.4371412E+03  0.7818608E-02  0.1196788E+00
          2   -1    0    0  502    0  0.00000000000E+00  0.00000000000E+00  0.22606714681E+04  0.22606714681E+04  0.00000000000E+00 0. -1.
          1   -1    0    0  501    0 -0.00000000000E+00 -0.00000000000E+00 -0.14388465449E+03  0.14388465449E+03  0.00000000000E+00 0. -1.
         25    2    1    2    0    0 -0.13597289629E+03 -0.43017194688E+03  0.38206904609E+03  0.60426640175E+03  0.12499838355E+03 0.  0.
          2    1    1    2  501    0  0.10388540263E+03  0.38726568829E+03  0.12527092889E+04  0.13153126824E+04  0.00000000000E+00 0. -1.
          1    1    1    2  502    0  0.32087493669E+02  0.42906258590E+02  0.48200847866E+03  0.48497703840E+03  0.00000000000E+00 0. -1.
         22    1    3    3    0    0  0.23274344452E+02 -0.74711467221E+02  0.73360412854E+02  0.10726252196E+03  0.00000000000E+00 0.  1.
         22    1    3    3    0    0 -0.15924724075E+03 -0.35546047966E+03  0.30870863324E+03  0.49700387978E+03  0.00000000000E+00 0.  1.
</event>
<event>
 7    1  0.5018917E-005  0.1203998E+03  0.7818608E-02  0.1270133E+00
          2   -1    0    0  502    0  0.00000000000E+00  0.00000000000E+00  0.13351537579E+04  0.13351537579E+04  0.00000000000E+00 0. -1.
          1   -1    0    0  501    0 -0.00000000000E+00 -0.00000000000E+00 -0.54230769727E+02  0.54230769727E+02  0.00000000000E+00 0. -1.
         25    2    1    2    0    0  0.19001546501E+03  0.33988236494E+02  0.84787462126E+03  0.87850879026E+03  0.12500097609E+03 0.  0.
          2    1    1    2  501    0 -0.10031592001E+03 -0.52343951716E+02  0.62667471629E+02  0.12934598984E+03  0.00000000000E+00 0. -1.
          1    1    1    2  502    0 -0.89699545003E+02  0.18355715222E+02  0.37038089527E+03  0.38152974751E+03  0.00000000000E+00 0. -1.
         22    1    3    3    0    0  0.97949763599E+02 -0.31261270098E+02  0.25422357776E+03  0.27422809974E+03  0.00000000000E+00 0.  1.
         22    1    3    3    0    0  0.92065701409E+02  0.65249506593E+02  0.59365104350E+03  0.60428069052E+03  0.00000000000E+00 0.  1.
</event>
<event>
 7    1  0.5018917E-005  0.3141334E+03  0.7818608E-02  0.1243275E+00
          2   -1    0    0  502    0  0.00000000000E+00  0.00000000000E+00  0.16341998498E+04  0.16341998498E+04  0.00000000000E+00 0. -1.
          1   -1    0    0  501    0 -0.00000000000E+00 -0.00000000000E+00 -0.78921796462E+03  0.78921796462E+03  0.00000000000E+00 0. -1.
         25    2    1    2    0    0 -0.85306294274E+02 -0.31659400637E+03  0.69930280745E+03  0.78240570151E+03  0.12500134610E+03 0.  0.
          2    1    1    2  501    0 -0.31423745117E+02  0.33261793198E+02 -0.72064104248E+03  0.72209231456E+03  0.00000000000E+00 0. -1.
          1    1    1    2  502    0  0.11673003939E+03  0.28333221317E+03  0.86632012019E+03  0.91891979833E+03  0.00000000000E+00 0. -1.
         22    1    3    3    0    0 -0.10882008903E+03 -0.27299205850E+03  0.64561207262E+03  0.70935282060E+03  0.00000000000E+00 0.  1.
         22    1    3    3    0    0  0.23513794755E+02 -0.43601947872E+02  0.53690734836E+02  0.73052880910E+02  0.00000000000E+00 0.  1.
</event>
<event>
 7    1  0.5018917E-005  0.4773507E+03  0.7818608E-02  0.1110710E+00
          2   -1    0    0  502    0  0.00000000000E+00  0.00000000000E+00  0.18065939932E+04  0.18065939932E+04  0.00000000000E+00 0. -1.
          1   -1    0    0  501    0 -0.00000000000E+00 -0.00000000000E+00 -0.18081403383E+03  0.18081403383E+03  0.00000000000E+00 0. -1.
         25    2    1    2    0    0  0.38764052488E+03  0.37883578374E+03  0.68172847362E+03  0.87986393941E+03  0.12500045021E+03 0.  0.
          2    1    1    2  501    0 -0.34393901715E+03 -0.25077394867E+03  0.58209232689E+03  0.72111933678E+03  0.00000000000E+00 0. -1.
          1    1    1    2  502    0 -0.43701507728E+02 -0.12806183508E+03  0.36195915887E+03  0.38642475085E+03  0.00000000000E+00 0. -1.
         22    1    3    3    0    0  0.35861827558E+03  0.28839007283E+03  0.58474947513E+03  0.74411548186E+03  0.00000000000E+00 0. -1.
         22    1    3    3    0    0  0.29022249301E+02  0.90445710914E+02  0.96978998492E+02  0.13574845754E+03  0.00000000000E+00 0. -1.
</event>
<event>
 7    1  0.5018917E-005  0.9155929E+03  0.7818608E-02  0.1194203E+00
          2   -1    0    0  502    0  0.00000000000E+00  0.00000000000E+00  0.92913607705E+03  0.92913607705E+03  0.00000000000E+00 0. -1.
          1   -1    0    0  501    0 -0.00000000000E+00 -0.00000000000E+00 -0.21554378184E+04  0.21554378184E+04  0.00000000000E+00 0. -1.
         25    2    1    2    0    0 -0.67189975984E+03 -0.59286332964E+03 -0.12371833530E+04  0.15327049680E+04  0.12500261999E+03 0.  0.
          2    1    1    2  501    0 -0.25576156685E+02 -0.61876042807E+01 -0.49956374163E+03  0.50025629250E+03  0.00000000000E+00 0. -1.
          1    1    1    2  502    0  0.69747591653E+03  0.59905093392E+03  0.51044535321E+03  0.10516126350E+04  0.00000000000E+00 0. -1.
         22    1    3    3    0    0 -0.27735109489E+03 -0.23194551433E+03 -0.60394772930E+03  0.70390000084E+03  0.00000000000E+00 0.  1.
         22    1    3    3    0    0 -0.39454866495E+03 -0.36091781531E+03 -0.63323562368E+03  0.82880496712E+03  0.00000000000E+00 0.  1.
</event>
<event>
 7    1  0.5018917E-005  0.7759245E+03  0.7818608E-02  0.1032065E+00
          2   -1    0    0  502    0  0.00000000000E+00  0.00000000000E+00  0.19465592566E+04  0.19465592566E+04  0.00000000000E+00 0. -1.
          1   -1    0    0  501    0 -0.00000000000E+00 -0.00000000000E+00 -0.55913019350E+03  0.55913019350E+03  0.00000000000E+00 0. -1.
         25    2    1    2    0    0  0.91143364197E+03 -0.15728571306E+03  0.59842246671E+03  0.11086851396E+04  0.12499284368E+03 0.  0.
          2    1    1    2  501    0 -0.20550074422E+03  0.13282754522E+03 -0.97585582802E+02  0.26343245551E+03  0.00000000000E+00 0. -1.
          1    1    1    2  502    0 -0.70593289775E+03  0.24458167837E+02  0.88659217915E+03  0.11335718549E+04  0.00000000000E+00 0. -1.
         22    1    3    3    0    0  0.10789641455E+03 -0.31034175630E+01  0.28749994172E+02  0.11170420600E+03  0.00000000000E+00 0.  1.
         22    1    3    3    0    0  0.80353722742E+03 -0.15418229550E+03  0.56967247254E+03  0.99698093365E+03  0.00000000000E+00 0.  1.
</event>
<event>
 7    1  0.5018917E-005  0.1896574E+03  0.7818608E-02  0.1302636E+00
          2   -1    0    0  502    0  0.00000000000E+00  0.00000000000E+00  0.15160065370E+04  0.15160065370E+04  0.00000000000E+00 0. -1.
          1   -1    0    0  501    0 -0.00000000000E+00 -0.00000000000E+00 -0.20880522500E+03  0.20880522500E+03  0.00000000000E+00 0. -1.
         25    2    1    2    0    0  0.25850970799E+02 -0.22817639124E+03  0.70496315732E+03  0.75188491924E+03  0.12500056158E+03 0.  0.
          2    1    1    2  501    0 -0.17182421306E+02  0.18627044384E+03 -0.13736932351E+03  0.23208240971E+03  0.00000000000E+00 0. -1.
          1    1    1    2  502    0 -0.86685494921E+01  0.41905947392E+02  0.73960747818E+03  0.74084443303E+03  0.00000000000E+00 0. -1.
         22    1    3    3    0    0 -0.40079782084E+02 -0.61287423211E+02  0.12580705276E+03  0.14556768769E+03  0.00000000000E+00 0.  1.
         22    1    3    3    0    0  0.65930752883E+02 -0.16688896803E+03  0.57915610456E+03  0.60631723155E+03  0.00000000000E+00 0.  1.
</event>
<event>
 7    1  0.5018917E-005  0.2580528E+03  0.7818608E-02  0.1349672E+00
          2   -1    0    0  502    0  0.00000000000E+00  0.00000000000E+00  0.29281415610E+03  0.29281415610E+03  0.00000000000E+00 0. -1.
          1   -1    0    0  501    0 -0.00000000000E+00 -0.00000000000E+00 -0.65609773797E+03  0.65609773797E+03  0.00000000000E+00 0. -1.
         25    2    1    2    0    0  0.26147575635E+03  0.24018527703E+02 -0.14476044703E+03  0.32484932952E+03  0.12500015613E+03 0.  0.
          2    1    1    2  501    0 -0.84162897553E+01  0.18955797358E+02 -0.33961715813E+03  0.34024986449E+03  0.00000000000E+00 0. -1.
          1    1    1    2  502    0 -0.25305946660E+03 -0.42974325061E+02  0.12109402328E+03  0.28381270007E+03  0.00000000000E+00 0. -1.
         22    1    3    3    0    0  0.10878037746E+02  0.48056895004E+01  0.20748402912E+02  0.23914902889E+02  0.00000000000E+00 0. -1.
         22    1    3    3    0    0  0.25059771860E+03  0.19212838203E+02 -0.16550884994E+03  0.30093442663E+03  0.00000000000E+00 0. -1.
</event>
<event>
 7    1  0.5018917E-005  0.4978866E+03  0.7818608E-02  0.1162561E+00
          2   -1    0    0  502    0  0.00000000000E+00  0.00000000000E+00  0.15775192344E+04  0.15775192344E+04  0.00000000000E+00 0. -1.
          1   -1    0    0  501    0 -0.00000000000E+00 -0.00000000000E+00 -0.10895764365E+04  0.10895764365E+04  0.00000000000E+00 0. -1.
         25    2    1    2    0    0  0.41150311990E+03 -0.27762781778E+03 -0.60590954873E+03  0.79319872005E+03  0.12500322139E+03 0.  0.
          2    1    1    2  501    0 -0.37478727885E+03  0.33620255054E+03 -0.22625098501E+03  0.55198475305E+03  0.00000000000E+00 0. -1.
          1    1    1    2  502    0 -0.36715841042E+02 -0.58574732762E+02  0.13201033317E+04  0.13219121978E+04  0.00000000000E+00 0. -1.
         22    1    3    3    0    0  0.16058080464E+03 -0.18307407357E+03 -0.27652933917E+03  0.36847087626E+03  0.00000000000E+00 0. -1.
         22    1    3    3    0    0  0.25092231526E+03 -0.94553744206E+02 -0.32938020957E+03  0.42472784379E+03  0.00000000000E+00 0. -1.
</event>
<event>
 7    1  0.5018917E-005  0.3310982E+03  0.7818608E-02  0.1104977E+00
          2   -1    0    0  502    0  0.00000000000E+00  0.00000000000E+00  0.12803686640E+04  0.12803686640E+04  0.00000000000E+00 0. -1.
          1   -1    0    0  501    0 -0.00000000000E+00 -0.00000000000E+00 -0.34780724039E+03  0.34780724039E+03  0.00000000000E+00 0. -1.
         25    2    1    2    0    0 -0.37090000120E+03  0.24665499237E+03  0.39149899371E+03  0.60605456770E+03  0.12500072320E+03 0.  0.
          2    1    1    2  501    0  0.69377666405E+02 -0.19812596614E+03 -0.15570321662E+03  0.26136306303E+03  0.00000000000E+00 0. -1.
          1    1    1    2  502    0  0.30152233480E+03 -0.48529026230E+02  0.69676564654E+03  0.76075827368E+03  0.00000000000E+00 0. -1.
         22    1    3    3    0    0 -0.13929352150E+03  0.25630266263E+02  0.10335283889E+03  0.17533227024E+03  0.00000000000E+00 0. -1.
         22    1    3    3    0    0 -0.23160647970E+03  0.22102472610E+03  0.28814615482E+03  0.43072229746E+03  0.00000000000E+00 0. -1.
</event>
<event>
 7    1  0.5018917E-005  0.7108679E+03  0.7818608E-02  0.1112155E+00
          2   -1    0    0  502    0  0.00000000000E+00  0.00000000000E+00  0.54217220059E+03  0.54217220059E+03  0.00000000000E+00 0. -1.
          1   -1    0    0  501    0 -0.00000000000E+00 -0.00000000000E+00 -0.22629379030E+04  0.22629379030E+04  0.00000000000E+00 0. -1.
         25    2    1    2    0    0 -0.32363159923E+02  0.71627040933E+03 -0.12343943634E+03  0.73820803773E+03  0.12499255627E+03 0.  0.
          2    1    1    2  501    0 -0.86916320273E+02 -0.20106349971E+02 -0.12958938980E+04  0.12989610105E+04  0.00000000000E+00 0. -1.
          1    1    1    2  502    0  0.11927948020E+03 -0.69616405936E+03 -0.30143236809E+03  0.76794105533E+03  0.00000000000E+00 0. -1.
         22    1    3    3    0    0 -0.14813491554E+01  0.33614561244E+02 -0.36010674430E+02  0.49283889820E+02  0.00000000000E+00 0. -1.
         22    1    3    3    0    0 -0.30881810768E+02  0.68265584808E+03 -0.87428761906E+02  0.68892414791E+03  0.00000000000E+00 0. -1.
</event>
<event>
 7    1  0.5018917E-005  0.7121960E+03  0.7818608E-02  0.1155404E+00
          2   -1    0    0  502    0  0.00000000000E+00  0.00000000000E+00  0.55460432988E+03  0.55460432988E+03  0.00000000000E+00 0. -1.
          1   -1    0    0  501    0 -0.00000000000E+00 -0.00000000000E+00 -0.15594512827E+04  0.15594512827E+04  0.00000000000E+00 0. -1.
         25    2    1    2    0    0 -0.14150101740E+03 -0.66079081533E+03 -0.17002710946E+03  0.70795591126E+03  0.12500125918E+03 0.  0.
          2    1    1    2  501    0  0.15089396905E+03  0.71247917848E+03 -0.99754299742E+03  0.12351063118E+04  0.00000000000E+00 0. -1.
          1    1    1    2  502    0 -0.93929516547E+01 -0.51688363155E+02  0.16272315403E+03  0.17099338959E+03  0.00000000000E+00 0. -1.
         22    1    3    3    0    0 -0.72238237336E+02 -0.10704278602E+03 -0.34739105427E+02  0.13372855498E+03  0.00000000000E+00 0.  1.
         22    1    3    3    0    0 -0.69262780061E+02 -0.55374802931E+03 -0.13528800403E+03  0.57422735628E+03  0.00000000000E+00 0.  1.
</event>
<event>
 7    1  0.5018917E-005  0.7800629E+03  0.7818608E-02  0.1151277E+00
          2   -1    0    0  502    0  0.00000000000E+00  0.00000000000E+00  0.14163278815E+04  0.14163278815E+04  0.00000000000E+00 0. -1.
          1   -1    0    0  501    0 -0.00000000000E+00 -0.00000000000E+00 -0.12256779664E+04  0.12256779664E+04  0.00000000000E+00 0. -1.
         25    2    1    2    0    0 -0.56236259600E+03 -0.54350980710E+03  0.90026753480E+03  0.11990625198E+04  0.12495876293E+03 0.  0.
          2    1    1    2  501    0 -0.28791198509E+02  0.41309631844E+02 -0.66402571054E+03  0.66593210093E+03  0.00000000000E+00 0. -1.
          1    1    1    2  502    0  0.59115379451E+03  0.50220017526E+03 -0.45591909163E+02  0.77701122706E+03  0.00000000000E+00 0. -1.
         22    1    3    3    0    0 -0.13463329345E+02 -0.82554039582E+00  0.39235683558E+00  0.13494320949E+02  0.00000000000E+00 0.  1.
         22    1    3    3    0    0 -0.54889926665E+03 -0.54268426671E+03  0.89987517796E+03  0.11855681989E+04  0.00000000000E+00 0.  1.
</event>
<event>
 7    1  0.5018917E-005  0.4019737E+03  0.7818608E-02  0.1179544E+00
          2   -1    0    0  502    0  0.00000000000E+00  0.00000000000E+00  0.22179790289E+04  0.22179790289E+04  0.00000000000E+00 0. -1.
          1   -1    0    0  501    0 -0.00000000000E+00 -0.00000000000E+00 -0.86347960852E+03  0.86347960852E+03  0.00000000000E+00 0. -1.
         25    2    1    2    0    0 -0.24464086458E+03  0.37629377615E+03  0.11238255488E+04  0.12165749299E+04  0.12499815004E+03 0.  0.
          2    1    1    2  501    0  0.25684809536E+03 -0.30682365822E+03 -0.76679726586E+03  0.86492181628E+03  0.00000000000E+00 0. -1.
          1    1    1    2  502    0 -0.12207230786E+02 -0.69470117929E+02  0.99747113751E+03  0.99996189124E+03  0.00000000000E+00 0. -1.
         22    1    3    3    0    0 -0.15421885023E+02 -0.86721746414E+01  0.49475054587E+02  0.52543526500E+02  0.00000000000E+00 0. -1.
         22    1    3    3    0    0 -0.22921897955E+03  0.38496595079E+03  0.10743504942E+04  0.11640314034E+04  0.00000000000E+00 0. -1.
</event>
<event>
 7    1  0.5018917E-005  0.5040485E+03  0.7818608E-02  0.1190287E+00
          2   -1    0    0  502    0  0.00000000000E+00  0.00000000000E+00  0.21928758449E+04  0.21928758449E+04  0.00000000000E+00 0. -1.
          1   -1    0    0  501    0 -0.00000000000E+00 -0.00000000000E+00 -0.82655924814E+03  0.82655924814E+03  0.00000000000E+00 0. -1.
         25    2    1    2    0    0  0.46703164682E+02  0.50411320411E+03 -0.63863732572E+03  0.82449615918E+03  0.12499989818E+03 0.  0.
          2    1    1    2  501    0 -0.91514929522E+02 -0.48215310264E+03  0.54214172236E+03  0.73127576457E+03  0.00000000000E+00 0. -1.
          1    1    1    2  502    0  0.44811764840E+02 -0.21960101465E+02  0.14628122002E+04  0.14636631693E+04  0.00000000000E+00 0. -1.
         22    1    3    3    0    0  0.70098542404E+02  0.16054890809E+03 -0.24963053514E+03  0.30496747632E+03  0.00000000000E+00 0.  1.
         22    1    3    3    0    0 -0.23395377722E+02  0.34356429602E+03 -0.38900679058E+03  0.51952868286E+03  0.00000000000E+00 0.  1.
</event>
<event>
 7    1  0.5018917E-005  0.3867528E+03  0.7818608E-02  0.1194379E+00
          2   -1    0    0  502    0  0.00000000000E+00  0.00000000000E+00  0.11899737830E+04  0.11899737830E+04  0.00000000000E+00 0. -1.
          1   -1    0    0  501    0 -0.00000000000E+00 -0.00000000000E+00 -0.85659731840E+03  0.85659731840E+03  0.00000000000E+00 0. -1.
         25    2    1    2    0    0  0.39541064966E+03  0.99484564931E+02 -0.35873015320E+02  0.42797166499E+03  0.12500444906E+03 0.  0.
          2    1    1    2  501    0 -0.37941017350E+03 -0.39403876605E+02 -0.56531339355E+03  0.68197065785E+03  0.00000000000E+00 0. -1.
          1    1    1    2  502    0 -0.16000476161E+02 -0.60080688325E+02  0.93456287345E+03  0.93662877854E+03  0.00000000000E+00 0. -1.
         22    1    3    3    0    0  0.33313662747E+03  0.63507300105E+02  0.15656780570E+02  0.33949716421E+03  0.00000000000E+00 0.  1.
         22    1    3    3    0    0  0.62274022185E+02  0.35977264826E+02 -0.51529795890E+02  0.88474500778E+02  0.00000000000E+00 0.  1.
</event>
<event>
 7    1  0.5018917E-005  0.9679363E+03  0.7818608E-02  0.1041848E+00
          2   -1    0    0  502    0  0.00000000000E+00  0.00000000000E+00  0.39061566498E+04  0.39061566498E+04  0.00000000000E+00 0. -1.
          1   -1    0    0  501    0 -0.00000000000E+00 -0.00000000000E+00 -0.14024982134E+04  0.14024982134E+04  0.00000000000E+00 0. -1.
         25    2    1    2    0    0  0.10968667502E+04  0.75127275235E+01  0.19457621707E+04  0.22371385088E+04  0.12500069636E+03 0.  0.
          2    1    1    2  501    0 -0.95338866360E+03  0.83638108245E+02 -0.10695430268E+04  0.14352238722E+04  0.00000000000E+00 0. -1.
          1    1    1    2  502    0 -0.14347808657E+03 -0.91150835768E+02  0.16274392926E+04  0.16362924822E+04  0.00000000000E+00 0. -1.
         22    1    3    3    0    0  0.19336033993E+03  0.34366215525E+02  0.42168251550E+03  0.46517244297E+03  0.00000000000E+00 0. -1.
         22    1    3    3    0    0  0.90350641024E+03 -0.26853488002E+02  0.15240796552E+04  0.17719660658E+04  0.00000000000E+00 0. -1.
</event>
<event>
 7    1  0.5018917E-005  0.3092155E+03  0.7818608E-02  0.1106012E+00
          2   -1    0    0  502    0  0.00000000000E+00  0.00000000000E+00  0.30170123180E+04  0.30170123180E+04  0.00000000000E+00 0. -1.
          1   -1    0    0  501    0 -0.00000000000E+00 -0.00000000000E+00 -0.34243197893E+03  0.34243197893E+03  0.00000000000E+00 0. -1.
         25    2    1    2    0    0 -0.42183408283E+03 -0.20840002949E+03  0.13067170171E+04  0.13944567233E+04  0.12500249823E+03 0.  0.
          2    1    1    2  501    0  0.15581402198E+03  0.15786654514E+03 -0.24445603885E+03  0.33008879176E+03  0.00000000000E+00 0. -1.
          1    1    1    2  502    0  0.26602006085E+03  0.50533484344E+02  0.16123193608E+04  0.16348987819E+04  0.00000000000E+00 0. -1.
         22    1    3    3    0    0 -0.23313402745E+03 -0.16894558401E+03  0.67123166904E+03  0.73037390331E+03  0.00000000000E+00 0. -1.
         22    1    3    3    0    0 -0.18870005538E+03 -0.39454445480E+02  0.63548534807E+03  0.66408281997E+03  0.00000000000E+00 0. -1.
</event>
<event>
 7    1  0.5018917E-005  0.7624333E+03  0.7818608E-02  0.1110823E+00
          2   -1    0    0  502    0  0.00000000000E+00  0.00000000000E+00  0.13214021397E+04  0.13214021397E+04  0.00000000000E+00 0. -1.
          1   -1    0    0  501    0 -0.00000000000E+00 -0.00000000000E+00 -0.16960812944E+04  0.16960812944E+04  0.00000000000E+00 0. -1.
         25    2    1    2    0    0  0.70106432767E+03  0.27222517634E+03 -0.42747178034E+03  0.87404477244E+03  0.12499761228E+03 0.  0.
          2    1    1    2  501    0 -0.68410814610E+03 -0.35510482627E+03 -0.90111011740E+03  0.11857920715E+04  0.00000000000E+00 0. -1.
          1    1    1    2  502    0 -0.16956181575E+02  0.82879649928E+02  0.95390274306E+03  0.95764659018E+03  0.00000000000E+00 0. -1.
         22    1    3    3    0    0  0.97035695029E+02  0.71332505146E+02 -0.31895545208E+02  0.12458562599E+03  0.00000000000E+00 0.  1.
         22    1    3    3    0    0  0.60402863264E+03  0.20089267120E+03 -0.39557623513E+03  0.74945914645E+03  0.00000000000E+00 0.  1.
</event>
<event>
 7    1  0.5018917E-005  0.1785932E+03  0.7818608E-02  0.1282286E+00
          2   -1    0    0  502    0  0.00000000000E+00  0.00000000000E+00  0.56251494742E+03  0.56251494742E+03  0.00000000000E+00 0. -1.
          1   -1    0    0  501    0 -0.00000000000E+00 -0.00000000000E+00 -0.53029467285E+03  0.53029467285E+03  0.00000000000E+00 0. -1.
         25    2    1    2    0    0 -0.18199738627E+03  0.12661174309E+03  0.42101608119E+01  0.25455133207E+03  0.12500029241E+03 0.  0.
          2    1    1    2  501    0  0.12814663143E+03 -0.11570023365E+03 -0.38482648414E+03  0.42178137241E+03  0.00000000000E+00 0. -1.
          1    1    1    2  502    0  0.53850754846E+02 -0.10911509439E+02  0.41283659789E+03  0.41647691580E+03  0.00000000000E+00 0. -1.
         22    1    3    3    0    0 -0.17230877719E+03  0.15019770118E+03 -0.70819551483E+00  0.22858295141E+03  0.00000000000E+00 0. -1.
         22    1    3    3    0    0 -0.96886090805E+01 -0.23585958084E+02  0.49183563268E+01  0.25968380651E+02  0.00000000000E+00 0. -1.
</event>
<event>
 7    1  0.5018917E-005  0.3960951E+03  0.7818608E-02  0.1138892E+00
          2   -1    0    0  502    0  0.00000000000E+00  0.00000000000E+00  0.23368545493E+04  0.23368545493E+04  0.00000000000E+00 0. -1.
          1   -1    0    0  501    0 -0.00000000000E+00 -0.00000000000E+00 -0.52716542827E+03  0.52716542827E+03  0.00000000000E+00 0. -1.
         25    2    1    2    0    0  0.10647492455E+03  0.41700097154E+03  0.31937886983E+02  0.44930167059E+03  0.12500097098E+03 0.  0.
          2    1    1    2  501    0  0.36815529226E+01 -0.38403385209E+03 -0.20042436535E+03  0.43320373914E+03  0.00000000000E+00 0. -1.
          1    1    1    2  502    0 -0.11015647748E+03 -0.32967119457E+02  0.19781755994E+04  0.19815145678E+04  0.00000000000E+00 0. -1.
         22    1    3    3    0    0  0.26194389332E+01  0.31400245922E+02 -0.31959273265E+02  0.44880196656E+02  0.00000000000E+00 0. -1.
         22    1    3    3    0    0  0.10385548562E+03  0.38560072562E+03  0.63897160248E+02  0.40442147394E+03  0.00000000000E+00 0. -1.
</event>
<event>
 7    1  0.5018917E-005  0.1381497E+04  0.7818608E-02  0.1153408E+00
          2   -1    0    0  502    0  0.00000000000E+00  0.00000000000E+00  0.30694110204E+04  0.30694110204E+04  0.00000000000E+00 0. -1.
          1   -1    0    0  501    0 -0.00000000000E+00 -0.00000000000E+00 -0.11052256075E+04  0.11052256075E+04  0.00000000000E+00 0. -1.
         25    2    1    2    0    0 -0.10819902159E+04  0.85929407007E+03  0.21375817026E+04  0.25483266746E+04  0.12499671636E+03 0.  0.
          2    1    1    2  501    0 -0.16521615436E+02 -0.22265874606E+02 -0.24195930306E+03  0.24354268062E+03  0.00000000000E+00 0. -1.
          1    1    1    2  502    0  0.10985118313E+04 -0.83702819546E+03  0.68563013387E+02  0.13827672727E+04  0.00000000000E+00 0. -1.
         22    1    3    3    0    0 -0.83673616247E+03  0.67896993172E+03  0.15690882441E+04  0.19034614500E+04  0.00000000000E+00 0. -1.
         22    1    3    3    0    0 -0.24525405343E+03  0.18032413835E+03  0.56849345847E+03  0.64486522462E+03  0.00000000000E+00 0. -1.
</event>
<event>
 7    1  0.5018917E-005  0.4376733E+03  0.7818608E-02  0.1176109E+00
          2   -1    0    0  502    0  0.00000000000E+00  0.00000000000E+00  0.26176147915E+04  0.26176147915E+04  0.00000000000E+00 0. -1.
          1   -1    0    0  501    0 -0.00000000000E+00 -0.00000000000E+00 -0.10446686224E+04  0.10446686224E+04  0.00000000000E+00 0. -1.
         25    2    1    2    0    0 -0.13101731319E+03  0.37089238302E+03  0.40226280546E+03  0.57633940822E+03  0.12500021067E+03 0.  0.
          2    1    1    2  501    0  0.18151281182E+02  0.64848393265E+02 -0.93260348009E+03  0.93503156856E+03  0.00000000000E+00 0. -1.
          1    1    1    2  502    0  0.11286603201E+03 -0.43574077629E+03  0.21032868437E+04  0.21509124371E+04  0.00000000000E+00 0. -1.
         22    1    3    3    0    0 -0.14063361502E+03  0.36612868842E+03  0.40644338435E+03  0.56482232147E+03  0.00000000000E+00 0. -1.
         22    1    3    3    0    0  0.96163018297E+01  0.47636946048E+01 -0.41805788884E+01  0.11517086741E+02  0.00000000000E+00 0. -1.
</event>
<event>
 7    1  0.5018917E-005  0.2245986E+03  0.7818608E-02  0.1165682E+00
          2   -1    0    0  502    0  0.00000000000E+00  0.00000000000E+00  0.11214459287E+04  0.11214459287E+04  0.00000000000E+00 0. -1.
          1   -1    0    0  501    0 -0.00000000000E+00 -0.00000000000E+00 -0.22716747831E+04  0.22716747831E+04  0.00000000000E+00 0. -1.
         25    2    1    2    0    0 -0.31792895491E+03 -0.66898305633E+02 -0.41451900751E+03  0.54130010401E+03  0.12500236539E+03 0.  0.
          2    1    1    2  501    0  0.13500731077E+03 -0.60196568681E+02 -0.17789429311E+04  0.17850738229E+04  0.00000000000E+00 0. -1.
          1    1    1    2  502    0  0.18292164414E+03  0.12709487431E+03  0.10432330843E+04  0.10667467849E+04  0.00000000000E+00 0. -1.
         22    1    3    3    0    0 -0.20659554785E+03  0.90320511511E+01 -0.30048251172E+03  0.36476435982E+03  0.00000000000E+00 0. -1.
         22    1    3    3    0    0 -0.11133340706E+03 -0.75930356784E+02 -0.11403649578E+03  0.17653574419E+03  0.00000000000E+00 0. -1.
</event>
<event>
 7    1  0.5018917E-005  0.4144481E+03  0.7818608E-02  0.1091252E+00
          2   -1    0    0  502    0  0.00000000000E+00  0.00000000000E+00  0.10488280456E+04  0.10488280456E+04  0.00000000000E+00 0. -1.
          1   -1    0    0  501    0 -0.00000000000E+00 -0.00000000000E+00 -0.67522686054E+03  0.67522686054E+03  0.00000000000E+00 0. -1.
         25    2    1    2    0    0 -0.64408761439E+02 -0.50174972571E+03  0.42420127601E+03  0.67191899053E+03  0.12500852557E+03 0.  0.
          2    1    1    2  501    0 -0.10439769588E+03  0.17119605830E+03 -0.45862962457E+03  0.50054780172E+03  0.00000000000E+00 0. -1.
          1    1    1    2  502    0  0.16880645732E+03  0.33055366741E+03  0.40802953358E+03  0.55158811385E+03  0.00000000000E+00 0. -1.
         22    1    3    3    0    0  0.35242024809E+02 -0.16875568810E+03  0.12037079037E+03  0.21026081364E+03  0.00000000000E+00 0. -1.
         22    1    3    3    0    0 -0.99650786247E+02 -0.33299403761E+03  0.30383048564E+03  0.46165817689E+03  0.00000000000E+00 0. -1.
</event>
<event>
 7    1  0.5018917E-005  0.6883001E+03  0.7818608E-02  0.1219575E+00
          2   -1    0    0  502    0  0.00000000000E+00  0.00000000000E+00  0.83322334397E+03  0.83322334397E+03  0.00000000000E+00 0. -1.
          1   -1    0    0  501    0 -0.00000000000E+00 -0.00000000000E+00 -0.81088036879E+03  0.81088036879E+03  0.00000000000E+00 0. -1.
         25    2    1    2    0    0  0.47355188603E+03 -0.49912331136E+03 -0.91562049662E+02  0.70525609300E+03  0.12500831602E+03 0.  0.
          2    1    1    2  501    0  0.19410901445E+02  0.18272248336E+02 -0.18587934689E+03  0.18778122844E+03  0.00000000000E+00 0. -1.
          1    1    1    2  502    0 -0.49296278748E+03  0.48085106302E+03  0.29978437172E+03  0.75106639132E+03  0.00000000000E+00 0. -1.
         22    1    3    3    0    0  0.31774674353E+03 -0.39223677226E+03 -0.26724989064E+02  0.50549668998E+03  0.00000000000E+00 0.  1.
         22    1    3    3    0    0  0.15580514250E+03 -0.10688653910E+03 -0.64837060598E+02  0.19975940302E+03  0.00000000000E+00 0.  1.
</event>
<event>
 7    1  0.5018917E-005  0.5580753E+03  0.7818608E-02  0.1038992E+00
          2   -1    0    0  502    0  0.00000000000E+00  0.00000000000E+00  0.12891776256E+04  0.12891776256E+04  0.00000000000E+00 0. -1.
          1   -1    0    0  501    0 -0.00000000000E+00 -0.00000000000E+00 -0.88127126880E+03  0.88127126880E+03  0.00000000000E+00 0. -1.
         25    2    1    2    0    0 -0.47375966878E+03 -0.60459507663E+03 -0.83775449084E+02  0.78270434010E+03  0.12499731073E+03 0.  0.
          2    1    1    2  501    0  0.22716131324E+03  0.42119647245E+03 -0.28186324794E+03  0.55538781152E+03  0.00000000000E+00 0. -1.
          1    1    1    2  502    0  0.24659835554E+03  0.18339860418E+03  0.77354505381E+03  0.83235674277E+03  0.00000000000E+00 0. -1.
         22    1    3    3    0    0 -0.20674381479E+03 -0.16918707683E+03 -0.18465149983E+02  0.26778393096E+03  0.00000000000E+00 0. -1.
         22    1    3    3    0    0 -0.26701585400E+03 -0.43540799980E+03 -0.65310299101E+02  0.51492040914E+03  0.00000000000E+00 0. -1.
</event>
<event>
 7    1  0.5018917E-005  0.1571108E+03  0.7818608E-02  0.1306647E+00
          2   -1    0    0  502    0  0.00000000000E+00  0.00000000000E+00  0.41928959997E+03  0.41928959997E+03  0.00000000000E+00 0. -1.
          1   -1    0    0  501    0 -0.00000000000E+00 -0.00000000000E+00 -0.27015660101E+03  0.27015660101E+03  0.00000000000E+00 0. -1.
         25    2    1    2    0    0 -0.14190793920E+03 -0.13275665409E+03  0.53473660162E+00  0.23105462096E+03  0.12499503794E+03 0.  0.
          2    1    1    2  501    0  0.99246903804E+02  0.10707133258E+03 -0.11766736101E+03  0.18750953581E+03  0.00000000000E+00 0. -1.
          1    1    1    2  502    0  0.42661035397E+02  0.25685321512E+02  0.26626562337E+03  0.27088204420E+03  0.00000000000E+00 0. -1.
         22    1    3    3    0    0 -0.89634855437E+02 -0.26007930854E+01 -0.10880735995E+02  0.90330293090E+02  0.00000000000E+00 0. -1.
         22    1    3    3    0    0 -0.52273083764E+02 -0.13015586100E+03  0.11415472597E+02  0.14072432787E+03  0.00000000000E+00 0. -1.
</event>
<event>
 7    1  0.5018917E-005  0.5652782E+03  0.7818608E-02  0.1200772E+00
          2   -1    0    0  502    0  0.00000000000E+00  0.00000000000E+00  0.60445459612E+03  0.60445459612E+03  0.00000000000E+00 0. -1.
          1   -1    0    0  501    0 -0.00000000000E+00 -0.00000000000E+00 -0.22281597428E+04  0.22281597428E+04  0.00000000000E+00 0. -1.
         25    2    1    2    0    0 -0.57422338548E+03  0.25380633566E+02  0.22684397760E+03  0.63044424937E+03  0.12500035356E+03 0.  0.
          2    1    1    2  501    0  0.30814536304E+02  0.24990405202E+02 -0.16020109429E+04  0.16025021426E+04  0.00000000000E+00 0. -1.
          1    1    1    2  502    0  0.54340884918E+03 -0.50371038768E+02 -0.24853818134E+03  0.59966794687E+03  0.00000000000E+00 0. -1.
         22    1    3    3    0    0 -0.38443962347E+03  0.28253898574E+02  0.88318574957E+02  0.39546463503E+03  0.00000000000E+00 0.  1.
         22    1    3    3    0    0 -0.18978376202E+03 -0.28732650076E+01  0.13852540264E+03  0.23497961434E+03  0.00000000000E+00 0.  1.
</event>
<event>
 7    1  0.5018917E-005  0.4111977E+03  0.7818608E-02  0.1181714E+00
          2   -1    0    0  502    0  0.00000000000E+00  0.00000000000E+00  0.87687567965E+03  0.87687567965E+03  0.00000000000E+00 0. -1.
          1   -1    0    0  501    0 -0.00000000000E+00 -0.00000000000E+00 -0.49654055475E+03  0.49654055475E+03  0.00000000000E+00 0. -1.
         25    2    1    2    0    0 -0.15991833191E+03 -0.41002898646E+03 -0.41463928414E+02  0.45939036549E+03  0.12499043133E+03 0.  0.
          2    1    1    2  501    0  0.10110570308E+03  0.37732666569E+03 -0.87485916021E+02  0.40031432817E+03  0.00000000000E+00 0. -1.
          1    1    1    2  502    0  0.58812628832E+02  0.32702320776E+02  0.50928496934E+03  0.51371154074E+03  0.00000000000E+00 0. -1.
         22    1    3    3    0    0 -0.19729304882E+02 -0.31427302278E+02  0.32046498418E+02  0.49029571286E+02  0.00000000000E+00 0. -1.
         22    1    3    3    0    0 -0.14018902703E+03 -0.37860168419E+03 -0.73510426832E+02  0.41036079420E+03  0.00000000000E+00 0. -1.
</event>
<event>
 7    1  0.5018917E-005  0.1557223E+04  0.7818608E-02  0.1045452E+00
          2   -1    0    0  502    0  0.00000000000E+00  0.00000000000E+00  0.34253281203E+04  0.34253281203E+04  0.00000000000E+00 0. -1.
          1   -1    0    0  501    0 -0.00000000000E+00 -0.00000000000E+00 -0.19834205265E+04  0.19834205265E+04  0.00000000000E+00 0. -1.
         25    2    1    2    0    0 -0.63699179756E+01  0.15284960413E+04 -0.57163524589E+02  0.15346766813E+04  0.12499649408E+03 0.  0.
          2    1    1    2  501    0  0.94818561899E+02 -0.15757914284E+04 -0.66116784887E+03  0.17115058019E+04  0.00000000000E+00 0. -1.
          1    1    1    2  502    0 -0.88448643924E+02  0.47295387070E+02  0.21602389672E+04  0.21625661636E+04  0.00000000000E+00 0. -1.
         22    1    3    3    0    0  0.13196652804E+02  0.40988138111E+02  0.14167415532E+02  0.45330947199E+02  0.00000000000E+00 0. -1.
         22    1    3    3    0    0 -0.19566570780E+02  0.14875079032E+04 -0.71330940121E+02  0.14893457341E+04  0.00000000000E+00 0. -1.
</event>
<event>
 7    1  0.5018917E-005  0.2517504E+03  0.7818608E-02  0.1211354E+00
          2   -1    0    0  502    0  0.00000000000E+00  0.00000000000E+00  0.71095625941E+03  0.71095625941E+03  0.00000000000E+00 0. -1.
          1   -1    0    0  501    0 -0.00000000000E+00 -0.00000000000E+00 -0.35250476978E+03  0.35250476978E+03  0.00000000000E+00 0. -1.
         25    2    1    2    0    0 -0.30866020750E+03 -0.18002035554E+02 -0.10457190124E+02  0.33366236496E+03  0.12500409589E+03 0.  0.
          2    1    1    2  501    0  0.66824318293E+02  0.43080623942E+02 -0.14270095558E+03  0.16335541741E+03  0.00000000000E+00 0. -1.
          1    1    1    2  502    0  0.24183588920E+03 -0.25078588388E+02  0.51160963533E+03  0.56644324682E+03  0.00000000000E+00 0. -1.
         22    1    3    3    0    0 -0.76951374041E+02  0.49435478439E+02  0.68562317639E+01  0.91719073313E+02  0.00000000000E+00 0. -1.
         22    1    3    3    0    0 -0.23170883346E+03 -0.67437513993E+02 -0.17313421888E+02  0.24194329165E+03  0.00000000000E+00 0. -1.
</event>
<event>
 7    1  0.5500773E-005  0.5304671E+03  0.7818608E-02  0.1140735E+00
          2   -1    0    0  502    0  0.00000000000E+00  0.00000000000E+00  0.14021714437E+04  0.14021714437E+04  0.00000000000E+00 0. -1.
          1   -1    0    0  501    0 -0.00000000000E+00 -0.00000000000E+00 -0.15841158840E+04  0.15841158840E+04  0.00000000000E+00 0. -1.
         25    2    1    2    0    0 -0.40683480559E+03  0.31289845555E+03 -0.73135674014E+03  0.90217941720E+03  0.12500006773E+03 0.  0.
          2    1    1    2  501    0  0.40959514002E+02  0.73302723794E+02 -0.71104287267E+03  0.71598389498E+03  0.00000000000E+00 0. -1.
          1    1    1    2  502    0  0.36587529159E+03 -0.38620117934E+03  0.12604551725E+04  0.13681240155E+04  0.00000000000E+00 0. -1.
         22    1    3    3    0    0 -0.55945804775E+02  0.10758180163E+03 -0.18391866614E+03  0.22029492248E+03  0.00000000000E+00 0. -1.
         22    1    3    3    0    0 -0.35088900082E+03  0.20531665392E+03 -0.54743807400E+03  0.68188449472E+03  0.00000000000E+00 0. -1.
</event>
<event>
 7    1  0.5018917E-005  0.9183128E+03  0.7818608E-02  0.1068459E+00
          2   -1    0    0  502    0  0.00000000000E+00  0.00000000000E+00  0.40842419348E+04  0.40842419348E+04  0.00000000000E+00 0. -1.
          1   -1    0    0  501    0 -0.00000000000E+00 -0.00000000000E+00 -0.14305754542E+04  0.14305754542E+04  0.00000000000E+00 0. -1.
         25    2    1    2    0    0  0.42911440778E+03  0.79569298847E+03  0.60080624116E+03  0.10926388747E+04  0.12500025662E+03 0.  0.
          2    1    1    2  501    0  0.11333227525E+03 -0.47872511698E+02 -0.11153019714E+04  0.11220670521E+04  0.00000000000E+00 0. -1.
          1    1    1    2  502    0 -0.54244668303E+03 -0.74782047678E+03  0.31681622108E+04  0.33001114623E+04  0.00000000000E+00 0. -1.
         22    1    3    3    0    0 -0.37894270726E+00  0.16067347965E+02 -0.39245961527E+01  0.16544054013E+02  0.00000000000E+00 0.  1.
         22    1    3    3    0    0  0.42949335049E+03  0.77962564051E+03  0.60473083731E+03  0.10760948207E+04  0.00000000000E+00 0.  1.
</event>
<event>
 7    1  0.5018917E-005  0.5199164E+02  0.7818608E-02  0.1450337E+00
          2   -1    0    0  502    0  0.00000000000E+00  0.00000000000E+00  0.11765730497E+04  0.11765730497E+04  0.00000000000E+00 0. -1.
          1   -1    0    0  501    0 -0.00000000000E+00 -0.00000000000E+00 -0.11046192949E+04  0.11046192949E+04  0.00000000000E+00 0. -1.
         25    2    1    2    0    0 -0.40809327107E+01  0.39806207300E+02  0.78645318407E+03  0.79732905324E+03  0.12499528092E+03 0.  0.
          2    1    1    2  501    0  0.45867580590E+02  0.66141088325E+01 -0.10961533572E+04  0.10971325189E+04  0.00000000000E+00 0. -1.
          1    1    1    2  502    0 -0.41786647880E+02 -0.46420316133E+02  0.38165392797E+03  0.38673077254E+03  0.00000000000E+00 0. -1.
         22    1    3    3    0    0  0.50572099157E+02  0.28041584579E+02  0.19927476382E+03  0.20749529916E+03  0.00000000000E+00 0.  1.
         22    1    3    3    0    0 -0.54653031868E+02  0.11764622721E+02  0.58717842025E+03  0.58983375407E+03  0.00000000000E+00 0.  1.
</event>
<event>
 7    1  0.5018917E-005  0.2708114E+03  0.7818608E-02  0.1193001E+00
          2   -1    0    0  502    0  0.00000000000E+00  0.00000000000E+00  0.10968990229E+04  0.10968990229E+04  0.00000000000E+00 0. -1.
          1   -1    0    0  501    0 -0.00000000000E+00 -0.00000000000E+00 -0.42241026981E+03  0.42241026981E+03  0.00000000000E+00 0. -1.
         25    2    1    2    0    0  0.20858431512E+03  0.26012024792E+03  0.15048781629E+02  0.35641307631E+03  0.12503541596E+03 0.  0.
          2    1    1    2  501    0 -0.17879393310E+03 -0.17503785593E+03 -0.18656057606E+03  0.31210634416E+03  0.00000000000E+00 0. -1.
          1    1    1    2  502    0 -0.29790382018E+02 -0.85082391987E+02  0.84600054753E+03  0.85078987224E+03  0.00000000000E+00 0. -1.
         22    1    3    3    0    0  0.29613229615E+02  0.13184500508E+03  0.17119183034E+02  0.13620982035E+03  0.00000000000E+00 0. -1.
         22    1    3    3    0    0  0.17897108551E+03  0.12827524284E+03 -0.20704014054E+01  0.22020325596E+03  0.00000000000E+00 0. -1.
</event>
<event>
 7    1  0.5018917E-005  0.1419399E+04  0.7818608E-02  0.1054892E+00
          2   -1    0    0  502    0  0.00000000000E+00  0.00000000000E+00  0.22976306284E+04  0.22976306284E+04  0.00000000000E+00 0. -1.
          1   -1    0    0  501    0 -0.00000000000E+00 -0.00000000000E+00 -0.95835595948E+03  0.95835595948E+03  0.00000000000E+00 0. -1.
         25    2    1    2    0    0 -0.49868900102E+03  0.13594267347E+04  0.62293328623E+03  0.15812659308E+04  0.12499719218E+03 0.  0.
          2    1    1    2  501    0  0.92230453792E+02 -0.27272938222E+02  0.13435986574E+03  0.16523572037E+03  0.00000000000E+00 0. -1.
          1    1    1    2  502    0  0.40645854722E+03 -0.13321537965E+04  0.58198151696E+03  0.15094849367E+04  0.00000000000E+00 0. -1.
         22    1    3    3    0    0 -0.35946017542E+03  0.82148747728E+03  0.35543112561E+03  0.96456444995E+03  0.00000000000E+00 0. -1.
         22    1    3    3    0    0 -0.13922882559E+03  0.53793925742E+03  0.26750216062E+03  0.61670148086E+03  0.00000000000E+00 0. -1.
</event>
<event>
 7    1  0.5018917E-005  0.9341092E+03  0.7818608E-02  0.1083584E+00
          2   -1    0    0  502    0  0.00000000000E+00  0.00000000000E+00  0.29046613265E+04  0.29046613265E+04  0.00000000000E+00 0. -1.
          1   -1    0    0  501    0 -0.00000000000E+00 -0.00000000000E+00 -0.19424545342E+04  0.19424545342E+04  0.00000000000E+00 0. -1.
         25    2    1    2    0    0 -0.37168435790E+03 -0.86639671706E+03 -0.13452321708E+04  0.16474427241E+04  0.12500160999E+03 0.  0.
          2    1    1    2  501    0  0.44143184527E+03  0.79683862797E+03  0.21071657622E+02  0.91118488123E+03  0.00000000000E+00 0. -1.
          1    1    1    2  502    0 -0.69747487366E+02  0.69558089090E+02  0.22863673054E+04  0.22884882554E+04  0.00000000000E+00 0. -1.
         22    1    3    3    0    0 -0.19179712379E+03 -0.57713668872E+03 -0.80761176682E+03  0.10109943917E+04  0.00000000000E+00 0. -1.
         22    1    3    3    0    0 -0.17988723411E+03 -0.28926002833E+03 -0.53762040397E+03  0.63644833235E+03  0.00000000000E+00 0. -1.
</event>
<event>
 7    1  0.5018917E-005  0.2061155E+03  0.7818608E-02  0.1190238E+00
          2   -1    0    0  502    0  0.00000000000E+00  0.00000000000E+00  0.10316022030E+03  0.10316022030E+03  0.00000000000E+00 0. -1.
          1   -1    0    0  501    0 -0.00000000000E+00 -0.00000000000E+00 -0.16527817663E+04  0.16527817663E+04  0.00000000000E+00 0. -1.
         25    2    1    2    0    0 -0.84833718490E+02  0.26703757490E+03 -0.36923685200E+03  0.48006926571E+03  0.12499928318E+03 0.  0.
          2    1    1    2  501    0  0.83593080037E+02 -0.89001811632E+02 -0.10452460603E+04  0.10523537675E+04  0.00000000000E+00 0. -1.
          1    1    1    2  502    0  0.12406384536E+01 -0.17803576327E+03 -0.13513863369E+03  0.22351895334E+03  0.00000000000E+00 0. -1.
         22    1    3    3    0    0  0.24328912332E+02  0.96822528899E+01 -0.21383192413E+02  0.33806551348E+02  0.00000000000E+00 0. -1.
         22    1    3    3    0    0 -0.10916263082E+03  0.25735532201E+03 -0.34785365959E+03  0.44626271436E+03  0.00000000000E+00 0. -1.
</event>
<event>
 7    1  0.5018917E-005  0.4693893E+03  0.7818608E-02  0.1189929E+00
          2   -1    0    0  502    0  0.00000000000E+00  0.00000000000E+00  0.20718434007E+04  0.20718434007E+04  0.00000000000E+00 0. -1.
          1   -1    0    0  501    0 -0.00000000000E+00 -0.00000000000E+00 -0.38028413769E+03  0.38028413769E+03  0.00000000000E+00 0. -1.
         25    2    1    2    0    0 -0.14919408482E+03  0.42521645936E+03  0.63322353758E+02  0.47191931975E+03  0.12502084471E+03 0.  0.
          2    1    1    2  501    0  0.13239757343E+03 -0.47632806480E+03  0.17270696043E+03  0.52368429129E+03  0.00000000000E+00 0. -1.
          1    1    1    2  502    0  0.16796511388E+02  0.51111605435E+02  0.14555299489E+04  0.14565239274E+04  0.00000000000E+00 0. -1.
         22    1    3    3    0    0 -0.14921076608E+03  0.39397211623E+03  0.90055516870E+02  0.43079911467E+03  0.00000000000E+00 0.  1.
         22    1    3    3    0    0  0.16681262698E-01  0.31244343132E+02 -0.26733163112E+02  0.41120205082E+02  0.00000000000E+00 0.  1.
</event>
<event>
 7    1  0.5018917E-005  0.1526688E+04  0.7818608E-02  0.1160885E+00
          2   -1    0    0  502    0  0.00000000000E+00  0.00000000000E+00  0.23494078518E+04  0.23494078518E+04  0.00000000000E+00 0. -1.
          1   -1    0    0  501    0 -0.00000000000E+00 -0.00000000000E+00 -0.19750909640E+04  0.19750909640E+04  0.00000000000E+00 0. -1.
         25    2    1    2    0    0  0.73250048187E+03  0.13600457655E+04 -0.77769224822E+03  0.17339868428E+04  0.12499479147E+03 0.  0.
          2    1    1    2  501    0 -0.66772822188E+01 -0.21996615353E+02 -0.40929881395E+03  0.40994384529E+03  0.00000000000E+00 0. -1.
          1    1    1    2  502    0 -0.72582319965E+03 -0.13380491501E+04  0.15613079499E+04  0.21805681277E+04  0.00000000000E+00 0. -1.
         22    1    3    3    0    0  0.56518547164E+03  0.93620914650E+03 -0.52761132983E+03  0.12142058716E+04  0.00000000000E+00 0.  1.
         22    1    3    3    0    0  0.16731501023E+03  0.42383661897E+03 -0.25008091839E+03  0.51978097115E+03  0.00000000000E+00 0.  1.
</event>
<event>
 7    1  0.5018917E-005  0.4031640E+02  0.7818608E-02  0.1528265E+00
          2   -1    0    0  502    0  0.00000000000E+00  0.00000000000E+00  0.23592195879E+04  0.23592195879E+04  0.00000000000E+00 0. -1.
          1   -1    0    0  501    0 -0.00000000000E+00 -0.00000000000E+00 -0.74341322704E+02  0.74341322704E+02  0.00000000000E+00 0. -1.
         25    2    1    2    0    0 -0.11328436905E+02  0.78324567400E+01  0.16063153363E+04  0.16112317448E+04  0.12501637848E+03 0.  0.
          2    1    1    2  501    0  0.24448623733E+02  0.32057394788E+02 -0.65591288226E+02  0.76991095941E+02  0.00000000000E+00 0. -1.
          1    1    1    2  502    0 -0.13120186829E+02 -0.39889851528E+02  0.74415421715E+03  0.74533806992E+03  0.00000000000E+00 0. -1.
         22    1    3    3    0    0 -0.17162443853E+02 -0.94937475477E+01  0.37583637392E+02  0.42393519801E+02  0.00000000000E+00 0. -1.
         22    1    3    3    0    0  0.58340069478E+01  0.17326204288E+02  0.15687316989E+04  0.15688382250E+04  0.00000000000E+00 0. -1.
</event>
<event>
 7    1  0.5018917E-005  0.2222657E+03  0.7818608E-02  0.1251652E+00
          2   -1    0    0  502    0  0.00000000000E+00  0.00000000000E+00  0.17962287864E+04  0.17962287864E+04  0.00000000000E+00 0. -1.
          1   -1    0    0  501    0 -0.00000000000E+00 -0.00000000000E+00 -0.63247134029E+03  0.63247134029E+03  0.00000000000E+00 0. -1.
         25    2    1    2    0    0  0.17866512575E+03 -0.16975208174E+03  0.11472901951E+02  0.27657336171E+03  0.12499680202E+03 0.  0.
          2    1    1    2  501    0 -0.12067838763E+03  0.18290044631E+03 -0.47534045667E+03  0.52341608329E+03  0.00000000000E+00 0. -1.
          1    1    1    2  502    0 -0.57986738127E+02 -0.13148364567E+02  0.16276250009E+04  0.16287106817E+04  0.00000000000E+00 0. -1.
         22    1    3    3    0    0  0.29242797254E+02  0.11847910338E+02  0.26099555061E+02  0.40947538938E+02  0.00000000000E+00 0. -1.
         22    1    3    3    0    0  0.14942232850E+03 -0.18159999208E+03 -0.14626653110E+02  0.23562582278E+03  0.00000000000E+00 0. -1.
</event>
<event>
 7    1  0.5018917E-005  0.4412746E+03  0.7818608E-02  0.1106042E+00
          2   -1    0    0  502    0  0.00000000000E+00  0.00000000000E+00  0.85551603375E+03  0.85551603375E+03  0.00000000000E+00 0. -1.
          1   -1    0    0  501    0 -0.00000000000E+00 -0.00000000000E+00 -0.12791406853E+04  0.12791406853E+04  0.00000000000E+00 0. -1.
         25    2    1    2    0    0 -0.27358576132E+03  0.36601344848E+03  0.67160433828E+03  0.82188320547E+03  0.12499841183E+03 0.  0.
          2    1    1    2  501    0  0.15536360309E+03 -0.14031097563E+01 -0.83536270686E+03  0.84968857230E+03  0.00000000000E+00 0. -1.
          1    1    1    2  502    0  0.11822215822E+03 -0.36461033873E+03 -0.25986628293E+03  0.46308494124E+03  0.00000000000E+00 0. -1.
         22    1    3    3    0    0 -0.19531704944E+03  0.17036223197E+03  0.31786214597E+03  0.41013215397E+03  0.00000000000E+00 0.  1.
         22    1    3    3    0    0 -0.78268711882E+02  0.19565121652E+03  0.35374219232E+03  0.41175105150E+03  0.00000000000E+00 0.  1.
</event>
<event>
 7    1  0.5018917E-005  0.1521233E+04  0.7818608E-02  0.1018057E+00
          2   -1    0    0  502    0  0.00000000000E+00  0.00000000000E+00  0.27523574234E+04  0.27523574234E+04  0.00000000000E+00 0. -1.
          1   -1    0    0  501    0 -0.00000000000E+00 -0.00000000000E+00 -0.12860062388E+04  0.12860062388E+04  0.00000000000E+00 0. -1.
         25    2    1    2    0    0  0.12981422133E+04 -0.90486594763E+03  0.12795629344E+03  0.15924677967E+04  0.12500112535E+03 0.  0.
          2    1    1    2  501    0 -0.11444059430E+04  0.89666335356E+03  0.41804249226E+03  0.15127556502E+04  0.00000000000E+00 0. -1.
          1    1    1    2  502    0 -0.15373627026E+03  0.82025940725E+01  0.92035239892E+03  0.93314021537E+03  0.00000000000E+00 0. -1.
         22    1    3    3    0    0  0.75426804229E+03 -0.49921056313E+03  0.13115304941E+03  0.91396531025E+03  0.00000000000E+00 0. -1.
         22    1    3    3    0    0  0.54387417096E+03 -0.40565538450E+03 -0.31967559753E+01  0.67850248641E+03  0.00000000000E+00 0. -1.
</event>
<event>
 7    1  0.5018917E-005  0.1565207E+04  0.7818608E-02  0.1039297E+00
          2   -1    0    0  502    0  0.00000000000E+00  0.00000000000E+00  0.23146472441E+04  0.23146472441E+04  0.00000000000E+00 0. -1.
          1   -1    0    0  501    0 -0.00000000000E+00 -0.00000000000E+00 -0.21999536520E+04  0.21999536520E+04  0.00000000000E+00 0. -1.
         25    2    1    2    0    0  0.15244599910E+04 -0.59439660285E+01  0.46455710884E+03  0.15985780533E+04  0.12499956121E+03 0.  0.
          2    1    1    2  501    0 -0.15786109060E+04 -0.88757555715E+02 -0.12461314395E+04  0.20131402983E+04  0.00000000000E+00 0. -1.
          1    1    1    2  502    0  0.54150914982E+02  0.94701521743E+02  0.89626792272E+03  0.90288254447E+03  0.00000000000E+00 0. -1.
         22    1    3    3    0    0  0.11500213862E+04 -0.43386611079E+02  0.38864153586E+03  0.12146908373E+04  0.00000000000E+00 0. -1.
         22    1    3    3    0    0  0.37443860477E+03  0.37442645050E+02  0.75915572975E+02  0.38388721603E+03  0.00000000000E+00 0. -1.
</event>
<event>
 7    1  0.5018917E-005  0.1140035E+04  0.7818608E-02  0.1031532E+00
          2   -1    0    0  502    0  0.00000000000E+00  0.00000000000E+00  0.22615526091E+04  0.22615526091E+04  0.00000000000E+00 0. -1.
          1   -1    0    0  501    0 -0.00000000000E+00 -0.00000000000E+00 -0.24913122724E+04  0.24913122724E+04  0.00000000000E+00 0. -1.
         25    2    1    2    0    0  0.11840352183E+04 -0.40943233541E+03 -0.58286205944E+03  0.13874175945E+04  0.12500066229E+03 0.  0.
          2    1    1    2  501    0 -0.10274345217E+04  0.34899722000E+03 -0.13059537863E+04  0.16979210959E+04  0.00000000000E+00 0. -1.
          1    1    1    2  502    0 -0.15660069666E+03  0.60435115411E+02  0.16590561825E+04  0.16675261911E+04  0.00000000000E+00 0. -1.
         22    1    3    3    0    0  0.10223544241E+04 -0.31163958466E+03 -0.47238370527E+03  0.11685350505E+04  0.00000000000E+00 0.  1.
         22    1    3    3    0    0  0.16168079426E+03 -0.97792750748E+02 -0.11047835416E+03  0.21888254401E+03  0.00000000000E+00 0.  1.
</event>
<event>
 7    1  0.5018917E-005  0.6993556E+03  0.7818608E-02  0.1203645E+00
          2   -1    0    0  502    0  0.00000000000E+00  0.00000000000E+00  0.84438129927E+03  0.84438129927E+03  0.00000000000E+00 0. -1.
          1   -1    0    0  501    0 -0.00000000000E+00 -0.00000000000E+00 -0.20444220758E+04  0.20444220758E+04  0.00000000000E+00 0. -1.
         25    2    1    2    0    0  0.85667791665E+02 -0.69115223846E+03  0.30767177002E+03  0.77156816073E+03  0.12500048526E+03 0.  0.
          2    1    1    2  501    0 -0.55259405620E+02  0.69761146783E+03 -0.17438693295E+04  0.18790411386E+04  0.00000000000E+00 0. -1.
          1    1    1    2  502    0 -0.30408386045E+02 -0.64592293626E+01  0.23615678299E+03  0.23819407578E+03  0.00000000000E+00 0. -1.
         22    1    3    3    0    0  0.10274667510E+03 -0.67655768294E+03  0.30401480076E+03  0.74880716921E+03  0.00000000000E+00 0.  1.
         22    1    3    3    0    0 -0.17078883434E+02 -0.14594555528E+02  0.36569692549E+01  0.22760991511E+02  0.00000000000E+00 0.  1.
</event>
<event>
 7    1  0.5018917E-005  0.3475976E+03  0.7818608E-02  0.1196472E+00
          2   -1    0    0  502    0  0.00000000000E+00  0.00000000000E+00  0.18408526887E+04  0.18408526887E+04  0.00000000000E+00 0. -1.
          1   -1    0    0  501    0 -0.00000000000E+00 -0.00000000000E+00 -0.38437453885E+04  0.38437453885E+04  0.00000000000E+00 0. -1.
         25    2    1    2    0    0 -0.33601186986E+03 -0.20739205299E+03  0.26315185209E+03  0.49070316135E+03  0.12500101988E+03 0.  0.
          2    1    1    2  501    0  0.31585144504E+03  0.14285532819E+03 -0.37211286979E+04  0.37372407691E+04  0.00000000000E+00 0. -1.
          1    1    1    2  502    0  0.20160424820E+02  0.64536724798E+02  0.14550841459E+04  0.14566541467E+04  0.00000000000E+00 0. -1.
         22    1    3    3    0    0 -0.26119534880E+03 -0.12555397701E+03  0.13055673117E+03  0.31785511075E+03  0.00000000000E+00 0.  1.
         22    1    3    3    0    0 -0.74816521055E+02 -0.81838075981E+02  0.13259512092E+03  0.17284805060E+03  0.00000000000E+00 0.  1.
</event>
<event>
 7    1  0.5018917E-005  0.3482525E+03  0.7818608E-02  0.1143373E+00
          2   -1    0    0  502    0  0.00000000000E+00  0.00000000000E+00  0.25167522911E+04  0.25167522911E+04  0.00000000000E+00 0. -1.
          1   -1    0    0  501    0 -0.00000000000E+00 -0.00000000000E+00 -0.14767080294E+04  0.14767080294E+04  0.00000000000E+00 0. -1.
         25    2    1    2    0    0  0.40009921890E+03 -0.71299732834E+02 -0.64739957541E+03  0.77454105449E+03  0.12499839189E+03 0.  0.
          2    1    1    2  501    0 -0.29259712929E+03  0.13292945610E+03 -0.73036084627E+03  0.79794127987E+03  0.00000000000E+00 0. -1.
          1    1    1    2  502    0 -0.10750208961E+03 -0.61629723264E+02  0.24178046834E+04  0.24209779861E+04  0.00000000000E+00 0. -1.
         22    1    3    3    0    0  0.30186194766E+03 -0.28019398119E+02 -0.55718121124E+03  0.63431587106E+03  0.00000000000E+00 0. -1.
         22    1    3    3    0    0  0.98237271241E+02 -0.43280334715E+02 -0.90218364167E+02  0.14022518343E+03  0.00000000000E+00 0. -1.
</event>
<event>
 7    1  0.5018917E-005  0.4334364E+03  0.7818608E-02  0.1052893E+00
          2   -1    0    0  502    0  0.00000000000E+00  0.00000000000E+00  0.17664048408E+04  0.17664048408E+04  0.00000000000E+00 0. -1.
          1   -1    0    0  501    0 -0.00000000000E+00 -0.00000000000E+00 -0.15292579920E+04  0.15292579920E+04  0.00000000000E+00 0. -1.
         25    2    1    2    0    0  0.58431225524E+03 -0.46062816953E+03 -0.62029849613E+03  0.97672608964E+03  0.12499803080E+03 0.  0.
          2    1    1    2  501    0 -0.27129155762E+03  0.17714053050E+03 -0.66460941083E+03  0.73938051486E+03  0.00000000000E+00 0. -1.
          1    1    1    2  502    0 -0.31302069761E+03  0.28348763902E+03  0.15220547558E+04  0.15795562283E+04  0.00000000000E+00 0. -1.
         22    1    3    3    0    0  0.52321307564E+03 -0.36252101261E+03 -0.49571981749E+03  0.80679089271E+03  0.00000000000E+00 0.  1.
         22    1    3    3    0    0  0.61099179601E+02 -0.98107156920E+02 -0.12457867863E+03  0.16993519693E+03  0.00000000000E+00 0.  1.
</event>
<event>
 7    1  0.5018917E-005  0.6976385E+03  0.7818608E-02  0.1115568E+00
          2   -1    0    0  502    0  0.00000000000E+00  0.00000000000E+00  0.23874272138E+04  0.23874272138E+04  0.00000000000E+00 0. -1.
          1   -1    0    0  501    0 -0.00000000000E+00 -0.00000000000E+00 -0.43004526066E+03  0.43004526066E+03  0.00000000000E+00 0. -1.
         25    2    1    2    0    0 -0.54397762422E+03  0.49347269829E+03  0.13768368052E+04  0.15654804676E+04  0.12499018710E+03 0.  0.
          2    1    1    2  501    0  0.43217125726E+02 -0.75579925064E+02 -0.20987626010E+03  0.22721815417E+03  0.00000000000E+00 0. -1.
          1    1    1    2  502    0  0.50076049850E+03 -0.41789277322E+03  0.79042140810E+03  0.10247738527E+04  0.00000000000E+00 0. -1.
         22    1    3    3    0    0 -0.14115160924E+03  0.10882862535E+03  0.23404303634E+03  0.29418291817E+03  0.00000000000E+00 0.  1.
         22    1    3    3    0    0 -0.40282601499E+03  0.38464407293E+03  0.11427937688E+04  0.12712975495E+04  0.00000000000E+00 0.  1.
</event>
<event>
 7    1  0.5018917E-005  0.8431205E+03  0.7818608E-02  0.1066622E+00
          2   -1    0    0  502    0  0.00000000000E+00  0.00000000000E+00  0.19252809541E+04  0.19252809541E+04  0.00000000000E+00 0. -1.
          1   -1    0    0  501    0 -0.00000000000E+00 -0.00000000000E+00 -0.12969775895E+04  0.12969775895E+04  0.00000000000E+00 0. -1.
         25    2    1    2    0    0 -0.90000467663E+03  0.71197550339E+02  0.62648778408E+03  0.11059784878E+04  0.12499585135E+03 0.  0.
          2    1    1    2  501    0  0.81379382445E+03 -0.17823518647E+03 -0.88701223227E+03  0.12168890133E+04  0.00000000000E+00 0. -1.
          1    1    1    2  502    0  0.86210852173E+02  0.10703763613E+03  0.88882781276E+03  0.89939104249E+03  0.00000000000E+00 0. -1.
         22    1    3    3    0    0 -0.60393061601E+03 -0.11066053759E+02  0.40723389037E+03  0.72848753453E+03  0.00000000000E+00 0. -1.
         22    1    3    3    0    0 -0.29607406062E+03  0.82263604098E+02  0.21925389371E+03  0.37749095332E+03  0.00000000000E+00 0. -1.
</event>
<event>
 7    1  0.5018917E-005  0.1919754E+03  0.7818608E-02  0.1174393E+00
          2   -1    0    0  502    0  0.00000000000E+00  0.00000000000E+00  0.54203951523E+02  0.54203951523E+02  0.00000000000E+00 0. -1.
          1   -1    0    0  501    0 -0.00000000000E+00 -0.00000000000E+00 -0.56364922382E+04  0.56364922382E+04  0.00000000000E+00 0. -1.
         25    2    1    2    0    0 -0.71305455591E+02  0.17066759293E+03 -0.27048235528E+03  0.35071020321E+03  0.12500018739E+03 0.  0.
          2    1    1    2  501    0 -0.15250723673E+03 -0.35308275967E+02 -0.39608557661E+04  0.39639479728E+04  0.00000000000E+00 0. -1.
          1    1    1    2  502    0  0.22381269232E+03 -0.13535931696E+03 -0.13509501653E+04  0.13760380137E+04  0.00000000000E+00 0. -1.
         22    1    3    3    0    0 -0.91013585255E+02  0.12839501193E+03 -0.25835855948E+03  0.30251925070E+03  0.00000000000E+00 0.  1.
         22    1    3    3    0    0  0.19708129664E+02  0.42272581001E+02 -0.12123795800E+02  0.48190952511E+02  0.00000000000E+00 0.  1.
</event>
<event>
 7    1  0.5018917E-005  0.4870298E+03  0.7818608E-02  0.1146613E+00
          2   -1    0    0  502    0  0.00000000000E+00  0.00000000000E+00  0.38848239752E+03  0.38848239752E+03  0.00000000000E+00 0. -1.
          1   -1    0    0  501    0 -0.00000000000E+00 -0.00000000000E+00 -0.84813190185E+03  0.84813190185E+03  0.00000000000E+00 0. -1.
         25    2    1    2    0    0  0.49602292241E+03  0.13773361964E+03  0.74973635910E+01  0.52980249667E+03  0.12500074190E+03 0.  0.
          2    1    1    2  501    0 -0.83870038417E+02  0.15215908621E+02 -0.11718580553E+03  0.14490762657E+03  0.00000000000E+00 0. -1.
          1    1    1    2  502    0 -0.41215288399E+03 -0.15294952826E+03 -0.34996106238E+03  0.56190417614E+03  0.00000000000E+00 0. -1.
         22    1    3    3    0    0  0.44680761774E+03  0.12506360673E+03  0.45698726156E+02  0.46622561767E+03  0.00000000000E+00 0. -1.
         22    1    3    3    0    0  0.49215304668E+02  0.12670012912E+02 -0.38201362565E+02  0.63576878993E+02  0.00000000000E+00 0. -1.
</event>
<event>
 7    1  0.5018917E-005  0.4157057E+03  0.7818608E-02  0.1171148E+00
          2   -1    0    0  502    0  0.00000000000E+00  0.00000000000E+00  0.89390367590E+03  0.89390367590E+03  0.00000000000E+00 0. -1.
          1   -1    0    0  501    0 -0.00000000000E+00 -0.00000000000E+00 -0.48628840599E+03  0.48628840599E+03  0.00000000000E+00 0. -1.
         25    2    1    2    0    0 -0.44094221374E+03 -0.27139955171E+02 -0.71787737338E+02  0.46469852705E+03  0.12499851513E+03 0.  0.
          2    1    1    2  501    0  0.39256736628E+03 -0.30189479817E+02 -0.35343996566E+02  0.39530967589E+03  0.00000000000E+00 0. -1.
          1    1    1    2  502    0  0.48374847461E+02  0.57329434989E+02  0.51474700381E+03  0.52018387894E+03  0.00000000000E+00 0. -1.
         22    1    3    3    0    0 -0.40869156911E+03 -0.48578232359E+02 -0.38025217184E+02  0.41332137673E+03  0.00000000000E+00 0.  1.
         22    1    3    3    0    0 -0.32250644638E+02  0.21438277188E+02 -0.33762520154E+02  0.51377150324E+02  0.00000000000E+00 0.  1.
</event>
<event>
 7    1  0.5018917E-005  0.2188107E+03  0.7818608E-02  0.1165135E+00
          2   -1    0    0  502    0  0.00000000000E+00  0.00000000000E+00  0.11715373627E+04  0.11715373627E+04  0.00000000000E+00 0. -1.
          1   -1    0    0  501    0 -0.00000000000E+00 -0.00000000000E+00 -0.18181438083E+03  0.18181438083E+03  0.00000000000E+00 0. -1.
         25    2    1    2    0    0  0.14028584999E+03  0.32258191020E+03  0.20440788609E+03  0.42561301723E+03  0.12499859217E+03 0.  0.
          2    1    1    2  501    0 -0.36972657946E+02 -0.14814690309E+03  0.43567995836E+02  0.15878492558E+03  0.00000000000E+00 0. -1.
          1    1    1    2  502    0 -0.10331319205E+03 -0.17443500711E+03  0.74174709994E+03  0.76895380071E+03  0.00000000000E+00 0. -1.
         22    1    3    3    0    0  0.19429957156E+02  0.17944262657E+03  0.64012929421E+02  0.19150674818E+03  0.00000000000E+00 0.  1.
         22    1    3    3    0    0  0.12085589284E+03  0.14313928363E+03  0.14039495667E+03  0.23410626905E+03  0.00000000000E+00 0.  1.
</event>
<event>
 7    1  0.5018917E-005  0.2850830E+03  0.7818608E-02  0.1109280E+00
          2   -1    0    0  502    0  0.00000000000E+00  0.00000000000E+00  0.90423332194E+03  0.90423332194E+03  0.00000000000E+00 0. -1.
          1   -1    0    0  501    0 -0.00000000000E+00 -0.00000000000E+00 -0.22705178445E+04  0.22705178445E+04  0.00000000000E+00 0. -1.
         25    2    1    2    0    0 -0.19516258891E+03  0.15741869063E+03  0.54182570563E+03  0.60997419799E+03  0.12499738659E+03 0.  0.
          2    1    1    2  501    0 -0.22801601899E+03  0.35328925830E+02 -0.20620745124E+04  0.20749435492E+04  0.00000000000E+00 0. -1.
          1    1    1    2  502    0  0.42317860790E+03 -0.19274761646E+03  0.15396428414E+03  0.48983341926E+03  0.00000000000E+00 0. -1.
         22    1    3    3    0    0 -0.10226166153E+03  0.13258788764E+03  0.43567220782E+03  0.46674111458E+03  0.00000000000E+00 0. -1.
         22    1    3    3    0    0 -0.92900927381E+02  0.24830802985E+02  0.10615349781E+03  0.14323308341E+03  0.00000000000E+00 0. -1.
</event>
<event>
 7    1  0.5018917E-005  0.5700526E+03  0.7818608E-02  0.1147360E+00
          2   -1    0    0  502    0  0.00000000000E+00  0.00000000000E+00  0.16020844000E+04  0.16020844000E+04  0.00000000000E+00 0. -1.
          1   -1    0    0  501    0 -0.00000000000E+00 -0.00000000000E+00 -0.68778974486E+03  0.68778974486E+03  0.00000000000E+00 0. -1.
         25    2    1    2    0    0  0.57123791328E+03  0.26198817169E+03  0.59791264223E+03  0.87639917572E+03  0.12500172715E+03 0.  0.
          2    1    1    2  501    0 -0.51509647578E+03 -0.21662132968E+03 -0.40396584873E+03  0.68951982333E+03  0.00000000000E+00 0. -1.
          1    1    1    2  502    0 -0.56141437508E+02 -0.45366842016E+02  0.72034786160E+03  0.72395514576E+03  0.00000000000E+00 0. -1.
         22    1    3    3    0    0  0.53623743869E+03  0.25804138428E+03  0.51758604885E+03  0.78868958698E+03  0.00000000000E+00 0. -1.
         22    1    3    3    0    0  0.35000474598E+02  0.39467874092E+01  0.80326593380E+02  0.87709588740E+02  0.00000000000E+00 0. -1.
</event>
<event>
 7    1  0.5018917E-005  0.8964653E+03  0.7818608E-02  0.1209564E+00
          2   -1    0    0  502    0  0.00000000000E+00  0.00000000000E+00  0.13042002897E+04  0.13042002897E+04  0.00000000000E+00 0. -1.
          1   -1    0    0  501    0 -0.00000000000E+00 -0.00000000000E+00 -0.97697538495E+03  0.97697538495E+03  0.00000000000E+00 0. -1.
         25    2    1    2    0    0  0.86446224562E+03  0.23381370746E+03  0.78719859892E+03  0.11988608372E+04  0.12498739540E+03 0.  0.
          2    1    1    2  501    0 -0.21327710775E+01  0.22657975519E+02 -0.11748396332E+03  0.11966793307E+03  0.00000000000E+00 0. -1.
          1    1    1    2  502    0 -0.86232947455E+03 -0.25647168298E+03 -0.34248973081E+03  0.96264690440E+03  0.00000000000E+00 0. -1.
         22    1    3    3    0    0  0.78139784228E+02 -0.46994508824E+01  0.38561832009E+02  0.87263541103E+02  0.00000000000E+00 0. -1.
         22    1    3    3    0    0  0.78632246139E+03  0.23851315834E+03  0.74863676691E+03  0.11115972961E+04  0.00000000000E+00 0. -1.
</event>
<event>
 7    1  0.5018917E-005  0.6528238E+03  0.7818608E-02  0.1106646E+00
          2   -1    0    0  502    0  0.00000000000E+00  0.00000000000E+00  0.30859896419E+04  0.30859896419E+04  0.00000000000E+00 0. -1.
          1   -1    0    0  501    0 -0.00000000000E+00 -0.00000000000E+00 -0.11618035269E+04  0.11618035269E+04  0.00000000000E+00 0. -1.
         25    2    1    2    0    0  0.47387653069E+03 -0.47898004839E+03 -0.85621909634E+03  0.10966838175E+04  0.12499360631E+03 0.  0.
          2    1    1    2  501    0 -0.38167555229E+03  0.43040988826E+03  0.26469146995E+03  0.63323808586E+03  0.00000000000E+00 0. -1.
          1    1    1    2  502    0 -0.92200978407E+02  0.48570160135E+02  0.25157137413E+04  0.25178712654E+04  0.00000000000E+00 0. -1.
         22    1    3    3    0    0  0.45457388024E+03 -0.43540966708E+03 -0.83183444368E+03  0.10431526890E+04  0.00000000000E+00 0. -1.
         22    1    3    3    0    0  0.19302650450E+02 -0.43570381311E+02 -0.24384652661E+02  0.53531128583E+02  0.00000000000E+00 0. -1.
</event>
<event>
 7    1  0.5018917E-005  0.1596054E+04  0.7818608E-02  0.9754989E-01
          2   -1    0    0  502    0  0.00000000000E+00  0.00000000000E+00  0.27350437292E+04  0.27350437292E+04  0.00000000000E+00 0. -1.
          1   -1    0    0  501    0 -0.00000000000E+00 -0.00000000000E+00 -0.22196363695E+04  0.22196363695E+04  0.00000000000E+00 0. -1.
         25    2    1    2    0    0  0.89391021702E+03 -0.15086374343E+04  0.62572695185E+03  0.18660712031E+04  0.12500052992E+03 0.  0.
          2    1    1    2  501    0 -0.24227682167E+03  0.15628470104E+03 -0.11996777005E+04  0.12338353014E+04  0.00000000000E+00 0. -1.
          1    1    1    2  502    0 -0.65163339535E+03  0.13523527333E+04  0.10893581083E+04  0.18547735941E+04  0.00000000000E+00 0. -1.
         22    1    3    3    0    0  0.48864289259E+03 -0.90387375110E+03  0.41544965930E+03  0.11083131569E+04  0.00000000000E+00 0. -1.
         22    1    3    3    0    0  0.40526732443E+03 -0.60476368325E+03  0.21027729255E+03  0.75775804620E+03  0.00000000000E+00 0. -1.
</event>
<event>
 7    1  0.5018917E-005  0.5348390E+03  0.7818608E-02  0.1261985E+00
          2   -1    0    0  502    0  0.00000000000E+00  0.00000000000E+00  0.12687672229E+04  0.12687672229E+04  0.00000000000E+00 0. -1.
          1   -1    0    0  501    0 -0.00000000000E+00 -0.00000000000E+00 -0.15062218017E+04  0.15062218017E+04  0.00000000000E+00 0. -1.
         25    2    1    2    0    0  0.46835481194E+03 -0.23398043943E+03 -0.30470686130E+03  0.61852584088E+03  0.12499947448E+03 0.  0.
          2    1    1    2  501    0  0.19498023707E+02  0.10846213892E+02 -0.97976194623E+03  0.98001596138E+03  0.00000000000E+00 0. -1.
          1    1    1    2  502    0 -0.48785283564E+03  0.22313422554E+03  0.10470142287E+04  0.11764472224E+04  0.00000000000E+00 0. -1.
         22    1    3    3    0    0  0.14588253784E+03 -0.10248758690E+03 -0.44371458496E+02  0.18372328825E+03  0.00000000000E+00 0.  1.
         22    1    3    3    0    0  0.32247227410E+03 -0.13149285253E+03 -0.26033540280E+03  0.43480255264E+03  0.00000000000E+00 0.  1.
</event>
<event>
 7    1  0.5018917E-005  0.4560855E+03  0.7818608E-02  0.1041403E+00
          2   -1    0    0  502    0  0.00000000000E+00  0.00000000000E+00  0.14209632091E+04  0.14209632091E+04  0.00000000000E+00 0. -1.
          1   -1    0    0  501    0 -0.00000000000E+00 -0.00000000000E+00 -0.69289654476E+03  0.69289654476E+03  0.00000000000E+00 0. -1.
         25    2    1    2    0    0  0.43663735891E+03 -0.59952338814E+03  0.20604652350E+03  0.77984648975E+03  0.12499960641E+03 0.  0.
          2    1    1    2  501    0 -0.16240849191E+03  0.36155020403E+03 -0.25848271208E+03  0.47318958223E+03  0.00000000000E+00 0. -1.
          1    1    1    2  502    0 -0.27422886700E+03  0.23797318411E+03  0.78050285291E+03  0.86082368186E+03  0.00000000000E+00 0. -1.
         22    1    3    3    0    0  0.21683538807E+03 -0.22124067344E+03  0.12919325884E+03  0.33564254682E+03  0.00000000000E+00 0. -1.
         22    1    3    3    0    0  0.21980197084E+03 -0.37828271470E+03  0.76853264654E+02  0.44420394293E+03  0.00000000000E+00 0. -1.
</event>
<event>
 7    1  0.5782809E-005  0.8186077E+03  0.7818608E-02  0.1136860E+00
          2   -1    0    0  502    0  0.00000000000E+00  0.00000000000E+00  0.26570549125E+04  0.26570549125E+04  0.00000000000E+00 0. -1.
          1   -1    0    0  501    0 -0.00000000000E+00 -0.00000000000E+00 -0.14977510500E+04  0.14977510500E+04  0.00000000000E+00 0. -1.
         25    2    1    2    0    0  0.75972960791E+03 -0.18610198503E+03 -0.15249276214E+03  0.80666146900E+03  0.12500262837E+03 0.  0.
          2    1    1    2  501    0 -0.81674780621E+03  0.18680123632E+03 -0.84537291124E+03  0.11902214247E+04  0.00000000000E+00 0. -1.
          1    1    1    2  502    0  0.57018198302E+02 -0.69925128756E+00  0.21571695360E+04  0.21579230688E+04  0.00000000000E+00 0. -1.
         22    1    3    3    0    0  0.27235477663E+03 -0.64571359577E+02  0.59445722189E+01  0.27996771737E+03  0.00000000000E+00 0. -1.
         22    1    3    3    0    0  0.48737483127E+03 -0.12153062545E+03 -0.15843733435E+03  0.52669375162E+03  0.00000000000E+00 0. -1.
</event>
<event>
 7    1  0.5018917E-005  0.1569017E+03  0.7818608E-02  0.1331363E+00
          2   -1    0    0  502    0  0.00000000000E+00  0.00000000000E+00  0.10840338042E+04  0.10840338042E+04  0.00000000000E+00 0. -1.
          1   -1    0    0  501    0 -0.00000000000E+00 -0.00000000000E+00 -0.59126004546E+03  0.59126004546E+03  0.00000000000E+00 0. -1.
         25    2    1    2    0    0  0.17728450253E+03  0.35079791455E+02 -0.33487924998E+03  0.40053881167E+03  0.12500736372E+03 0.  0.
          2    1    1    2  501    0 -0.13841595874E+03 -0.25764781016E+02 -0.20095623476E+03  0.24536953736E+03  0.00000000000E+00 0. -1.
          1    1    1    2  502    0 -0.38868543793E+02 -0.93150104397E+01  0.10286092435E+04  0.10293855007E+04  0.00000000000E+00 0. -1.
         22    1    3    3    0    0  0.18777041951E+03  0.48944250966E+02 -0.26450265662E+03  0.32804713915E+03  0.00000000000E+00 0. -1.
         22    1    3    3    0    0 -0.10485916980E+02 -0.13864459510E+02 -0.70376593361E+02  0.72491672526E+02  0.00000000000E+00 0. -1.
</event>
<event>
 7    1  0.5018917E-005  0.1865778E+03  0.7818608E-02  0.1384398E+00
          2   -1    0    0  502    0  0.00000000000E+00  0.00000000000E+00  0.30932883380E+03  0.30932883380E+03  0.00000000000E+00 0. -1.
          1   -1    0    0  501    0 -0.00000000000E+00 -0.00000000000E+00 -0.29145842059E+03  0.29145842059E+03  0.00000000000E+00 0. -1.
         25    2    1    2    0    0  0.11236294916E+03  0.12635184023E+03 -0.19846900997E+03  0.28914468115E+03  0.12499791536E+03 0.  0.
          2    1    1    2  501    0  0.18042689895E+02  0.11674696804E+02  0.66108799346E+02  0.69514103282E+02  0.00000000000E+00 0. -1.
          1    1    1    2  502    0 -0.13040563906E+03 -0.13802653704E+03  0.15023062384E+03  0.24212846996E+03  0.00000000000E+00 0. -1.
         22    1    3    3    0    0  0.50549205789E+02  0.13649683011E+03 -0.11935564083E+03  0.18823489537E+03  0.00000000000E+00 0. -1.
         22    1    3    3    0    0  0.61813743376E+02 -0.10144989879E+02 -0.79113369140E+02  0.10090978578E+03  0.00000000000E+00 0. -1.
</event>
<event>
 7    1  0.5018917E-005  0.3994364E+03  0.7818608E-02  0.1279138E+00
          2   -1    0    0  502    0  0.00000000000E+00  0.00000000000E+00  0.36445676641E+03  0.36445676641E+03  0.00000000000E+00 0. -1.
          1   -1    0    0  501    0 -0.00000000000E+00 -0.00000000000E+00 -0.22055599131E+04  0.22055599131E+04  0.00000000000E+00 0. -1.
         25    2    1    2    0    0  0.34338840238E+03  0.19612184573E+03 -0.13881218319E+04  0.14487534385E+04  0.12499972871E+03 0.  0.
          2    1    1    2  501    0 -0.36403441010E+03 -0.18147691727E+03 -0.73396476152E+03  0.83914193936E+03  0.00000000000E+00 0. -1.
          1    1    1    2  502    0  0.20646007727E+02 -0.14644928464E+02  0.28098344667E+03  0.28212130169E+03  0.00000000000E+00 0. -1.
         22    1    3    3    0    0  0.18642244262E+03  0.15137262358E+03 -0.65369448126E+03  0.69640754814E+03  0.00000000000E+00 0.  1.
         22    1    3    3    0    0  0.15696595976E+03  0.44749222156E+02 -0.73442735061E+03  0.75234589036E+03  0.00000000000E+00 0.  1.
</event>
<event>
 7    1  0.5018917E-005  0.5883139E+03  0.7818608E-02  0.1203851E+00
          2   -1    0    0  502    0  0.00000000000E+00  0.00000000000E+00  0.48348442977E+04  0.48348442977E+04  0.00000000000E+00 0. -1.
          1   -1    0    0  501    0 -0.00000000000E+00 -0.00000000000E+00 -0.33980863354E+03  0.33980863354E+03  0.00000000000E+00 0. -1.
         25    2    1    2    0    0  0.39971578653E+03 -0.38560370947E+03  0.30214888739E+04  0.30746516768E+04  0.12499994982E+03 0.  0.
          2    1    1    2  501    0 -0.41963766858E+03  0.41663106927E+03 -0.33708426015E+02  0.59229509433E+03  0.00000000000E+00 0. -1.
          1    1    1    2  502    0  0.19921882054E+02 -0.31027359802E+02  0.15072552163E+04  0.15077061602E+04  0.00000000000E+00 0. -1.
         22    1    3    3    0    0  0.39860833876E+03 -0.37722786368E+03  0.28154710476E+04  0.28684606828E+04  0.00000000000E+00 0.  1.
         22    1    3    3    0    0  0.11074477675E+01 -0.83758457956E+01  0.20601782628E+03  0.20619099393E+03  0.00000000000E+00 0.  1.
</event>
<event>
 7    1  0.5018917E-005  0.3401197E+03  0.7818608E-02  0.1179613E+00
          2   -1    0    0  502    0  0.00000000000E+00  0.00000000000E+00  0.93241537273E+03  0.93241537273E+03  0.00000000000E+00 0. -1.
          1   -1    0    0  501    0 -0.00000000000E+00 -0.00000000000E+00 -0.92486944973E+03  0.92486944973E+03  0.00000000000E+00 0. -1.
         25    2    1    2    0    0 -0.17555069391E+03  0.35593850641E+03 -0.10793737979E+02  0.41623496649E+03  0.12499910431E+03 0.  0.
          2    1    1    2  501    0  0.18502843713E+03 -0.27318211858E+03 -0.67045109214E+03  0.74724069711E+03  0.00000000000E+00 0. -1.
          1    1    1    2  502    0 -0.94777432277E+01 -0.82756387823E+02  0.68879075312E+03  0.69380915886E+03  0.00000000000E+00 0. -1.
         22    1    3    3    0    0 -0.43419456052E+02  0.22227041397E+03 -0.24451405493E+02  0.22778774621E+03  0.00000000000E+00 0.  1.
         22    1    3    3    0    0 -0.13213123785E+03  0.13366809243E+03  0.13657667514E+02  0.18844722028E+03  0.00000000000E+00 0.  1.
</event>
<event>
 7    1  0.5018917E-005  0.2847466E+02  0.7818608E-02  0.1630677E+00
          2   -1    0    0  502    0  0.00000000000E+00  0.00000000000E+00  0.10428621098E+04  0.10428621098E+04  0.00000000000E+00 0. -1.
          1   -1    0    0  501    0 -0.00000000000E+00 -0.00000000000E+00 -0.37404990937E+02  0.37404990937E+02  0.00000000000E+00 0. -1.
         25    2    1    2    0    0  0.28286209445E+02  0.95318720459E+01  0.18591688380E+03  0.22601175171E+03  0.12500103199E+03 0.  0.
          2    1    1    2  501    0 -0.24119103852E+02  0.16205371421E+02 -0.48442744553E+01  0.29458652863E+02  0.00000000000E+00 0. -1.
          1    1    1    2  502    0 -0.41671055935E+01 -0.25737243467E+02  0.82438450948E+03  0.82479669613E+03  0.00000000000E+00 0. -1.
         22    1    3    3    0    0  0.42284473575E+02 -0.48389637802E+02  0.12636623731E+03  0.14176727296E+03  0.00000000000E+00 0.  1.
         22    1    3    3    0    0 -0.13998264130E+02  0.57921509847E+02  0.59550646497E+02  0.84244478750E+02  0.00000000000E+00 0.  1.
</event>
<event>
 7    1  0.5018917E-005  0.7104012E+02  0.7818608E-02  0.1372570E+00
          2   -1    0    0  502    0  0.00000000000E+00  0.00000000000E+00  0.25477585303E+03  0.25477585303E+03  0.00000000000E+00 0. -1.
          1   -1    0    0  501    0 -0.00000000000E+00 -0.00000000000E+00 -0.10766757905E+03  0.10766757905E+03  0.00000000000E+00 0. -1.
         25    2    1    2    0    0  0.25335526193E+02  0.67563411730E+02  0.14844500505E+03  0.20704240508E+03  0.12499573788E+03 0.  0.
          2    1    1    2  501    0  0.36835205276E+02 -0.67808486739E+02  0.33510798031E+02  0.84129642851E+02  0.00000000000E+00 0. -1.
          1    1    1    2  502    0 -0.62170731469E+02  0.24507500913E+00 -0.34847529098E+02  0.71271384141E+02  0.00000000000E+00 0. -1.
         22    1    3    3    0    0  0.74536447892E+02  0.26759365809E+02  0.68686110646E+02  0.10483094733E+03  0.00000000000E+00 0. -1.
         22    1    3    3    0    0 -0.49200921699E+02  0.40804045921E+02  0.79758894403E+02  0.10221145775E+03  0.00000000000E+00 0. -1.
</event>
<event>
 7    1  0.5018917E-005  0.5651593E+03  0.7818608E-02  0.1091949E+00
          2   -1    0    0  502    0  0.00000000000E+00  0.00000000000E+00  0.93613736758E+03  0.93613736758E+03  0.00000000000E+00 0. -1.
          1   -1    0    0  501    0 -0.00000000000E+00 -0.00000000000E+00 -0.10475922607E+04  0.10475922607E+04  0.00000000000E+00 0. -1.
         25    2    1    2    0    0 -0.67330911108E+02  0.54545010512E+03  0.10791145073E+03  0.57386179801E+03  0.12499285283E+03 0.  0.
          2    1    1    2  501    0 -0.14563832851E+03 -0.42638437810E+01 -0.66273240442E+03  0.67855946163E+03  0.00000000000E+00 0. -1.
          1    1    1    2  502    0  0.21296923962E+03 -0.54118626134E+03  0.44336606053E+03  0.73130836869E+03  0.00000000000E+00 0. -1.
         22    1    3    3    0    0  0.22431357924E+02  0.19707317508E+02  0.84306152624E+00  0.29870636659E+02  0.00000000000E+00 0.  1.
         22    1    3    3    0    0 -0.89762269032E+02  0.52574278761E+03  0.10706838920E+03  0.54399116135E+03  0.00000000000E+00 0.  1.
</event>
<event>
 7    1  0.5018917E-005  0.1426316E+04  0.7818608E-02  0.1053722E+00
          2   -1    0    0  502    0  0.00000000000E+00  0.00000000000E+00  0.38257270890E+04  0.38257270890E+04  0.00000000000E+00 0. -1.
          1   -1    0    0  501    0 -0.00000000000E+00 -0.00000000000E+00 -0.31513644992E+04  0.31513644992E+04  0.00000000000E+00 0. -1.
         25    2    1    2    0    0  0.13740012204E+04  0.37763611337E+03 -0.25466995737E+04  0.29209232130E+04  0.12500123960E+03 0.  0.
          2    1    1    2  501    0 -0.14092803716E+04 -0.28694716545E+03  0.82478133893E+03  0.16579125726E+04  0.00000000000E+00 0. -1.
          1    1    1    2  502    0  0.35279151154E+02 -0.90688947919E+02  0.23962808246E+04  0.23982558025E+04  0.00000000000E+00 0. -1.
         22    1    3    3    0    0  0.11518852237E+04  0.27134446553E+03 -0.20709116210E+04  0.23851923045E+04  0.00000000000E+00 0.  1.
         22    1    3    3    0    0  0.22211599674E+03  0.10629164785E+03 -0.47578795271E+03  0.53573090853E+03  0.00000000000E+00 0.  1.
</event>
<event>
 7    1  0.5018917E-005  0.9442419E+03  0.7818608E-02  0.1088612E+00
          2   -1    0    0  502    0  0.00000000000E+00  0.00000000000E+00  0.23178553565E+04  0.23178553565E+04  0.00000000000E+00 0. -1.
          1   -1    0    0  501    0 -0.00000000000E+00 -0.00000000000E+00 -0.21952165733E+04  0.21952165733E+04  0.00000000000E+00 0. -1.
         25    2    1    2    0    0 -0.88855359958E+03  0.23248710709E+03 -0.12263411955E+04  0.15372432821E+04  0.12500570543E+03 0.  0.
          2    1    1    2  501    0  0.97476002672E+03 -0.20291702811E+03 -0.50720823715E+03  0.11174044146E+04  0.00000000000E+00 0. -1.
          1    1    1    2  502    0 -0.86206427135E+02 -0.29570078978E+02  0.18561882158E+04  0.18584242331E+04  0.00000000000E+00 0. -1.
         22    1    3    3    0    0 -0.44751210426E+03  0.99330275646E+02 -0.51199905710E+03  0.68722385115E+03  0.00000000000E+00 0.  1.
         22    1    3    3    0    0 -0.44104149532E+03  0.13315683144E+03 -0.71434213838E+03  0.85001943097E+03  0.00000000000E+00 0.  1.
</event>
<event>
 7    1  0.5018917E-005  0.9124757E+03  0.7818608E-02  0.1088657E+00
          2   -1    0    0  502    0  0.00000000000E+00  0.00000000000E+00  0.14388250484E+04  0.14388250484E+04  0.00000000000E+00 0. -1.
          1   -1    0    0  501    0 -0.00000000000E+00 -0.00000000000E+00 -0.33227722404E+04  0.33227722404E+04  0.00000000000E+00 0. -1.
         25    2    1    2    0    0 -0.86974194213E+03  0.24698071054E+03 -0.14311957402E+04  0.16974677329E+04  0.12499976054E+03 0.  0.
          2    1    1    2  501    0  0.21110634983E+02  0.91859081976E+02 -0.15970058327E+04  0.15997847916E+04  0.00000000000E+00 0. -1.
          1    1    1    2  502    0  0.84863130714E+03 -0.33883979252E+03  0.11442543809E+04  0.14643447643E+04  0.00000000000E+00 0. -1.
         22    1    3    3    0    0 -0.43621450000E+03  0.82562062468E+02 -0.61055973275E+03  0.75490580302E+03  0.00000000000E+00 0. -1.
         22    1    3    3    0    0 -0.43352744212E+03  0.16441864808E+03 -0.82063600745E+03  0.94256192987E+03  0.00000000000E+00 0. -1.
</event>
<event>
 7    1  0.5018917E-005  0.2606212E+03  0.7818608E-02  0.1156306E+00
          2   -1    0    0  502    0  0.00000000000E+00  0.00000000000E+00  0.23585377594E+04  0.23585377594E+04  0.00000000000E+00 0. -1.
          1   -1    0    0  501    0 -0.00000000000E+00 -0.00000000000E+00 -0.65221217361E+03  0.65221217361E+03  0.00000000000E+00 0. -1.
         25    2    1    2    0    0 -0.28147479415E+03 -0.86063365206E+01  0.28444295351E+03  0.41932680379E+03  0.12500018323E+03 0.  0.
          2    1    1    2  501    0  0.50520650234E+02  0.13276308806E+03 -0.56741142620E+03  0.58492230274E+03  0.00000000000E+00 0. -1.
          1    1    1    2  502    0  0.23095414391E+03 -0.12415675154E+03  0.19892940585E+04  0.20065008265E+04  0.00000000000E+00 0. -1.
         22    1    3    3    0    0 -0.15717226376E+03  0.50619690508E+02  0.19319401781E+03  0.25414445121E+03  0.00000000000E+00 0.  1.
         22    1    3    3    0    0 -0.12430253039E+03 -0.59226027028E+02  0.91248935702E+02  0.16518235258E+03  0.00000000000E+00 0.  1.
</event>
<event>
 7    1  0.5018917E-005  0.1118976E+04  0.7818608E-02  0.1008953E+00
          2   -1    0    0  502    0  0.00000000000E+00  0.00000000000E+00  0.15982079151E+04  0.15982079151E+04  0.00000000000E+00 0. -1.
          1   -1    0    0  501    0 -0.00000000000E+00 -0.00000000000E+00 -0.26239566368E+04  0.26239566368E+04  0.00000000000E+00 0. -1.
         25    2    1    2    0    0 -0.73788704997E+03 -0.87581374876E+03  0.26149949191E+03  0.11813265161E+04  0.12499332957E+03 0.  0.
          2    1    1    2  501    0 -0.13939134262E+03  0.19617455086E+03 -0.18016642419E+04  0.18176656572E+04  0.00000000000E+00 0. -1.
          1    1    1    2  502    0  0.87727839259E+03  0.67963919790E+03  0.51441602826E+03  0.12231723785E+04  0.00000000000E+00 0. -1.
         22    1    3    3    0    0 -0.66529778959E+03 -0.78069961978E+03  0.19386804487E+03  0.10438859440E+04  0.00000000000E+00 0.  1.
         22    1    3    3    0    0 -0.72589260373E+02 -0.95114128976E+02  0.67631447046E+02  0.13744057218E+03  0.00000000000E+00 0.  1.
</event>
<event>
 7    1  0.5018917E-005  0.3249018E+03  0.7818608E-02  0.1237390E+00
          2   -1    0    0  502    0  0.00000000000E+00  0.00000000000E+00  0.32203543874E+04  0.32203543874E+04  0.00000000000E+00 0. -1.
          1   -1    0    0  501    0 -0.00000000000E+00 -0.00000000000E+00 -0.68144280565E+03  0.68144280565E+03  0.00000000000E+00 0. -1.
         25    2    1    2    0    0 -0.77696254039E+02  0.28602265494E+03 -0.86483306330E+02  0.33309133225E+03  0.12499922526E+03 0.  0.
          2    1    1    2  501    0  0.68831320505E+02 -0.33214285809E+03 -0.41046484574E+03  0.53248288090E+03  0.00000000000E+00 0. -1.
          1    1    1    2  502    0  0.88649335342E+01  0.46120203156E+02  0.30358597338E+04  0.30362229799E+04  0.00000000000E+00 0. -1.
         22    1    3    3    0    0 -0.35540633471E+02  0.33809920124E+01 -0.59610985325E+01  0.36195337133E+02  0.00000000000E+00 0. -1.
         22    1    3    3    0    0 -0.42155620569E+02  0.28264166293E+03 -0.80522207797E+02  0.29689599512E+03  0.00000000000E+00 0. -1.
</event>
<event>
 7    1  0.5018917E-005  0.6925828E+03  0.7818608E-02  0.1166513E+00
          2   -1    0    0  502    0  0.00000000000E+00  0.00000000000E+00  0.12307922681E+04  0.12307922681E+04  0.00000000000E+00 0. -1.
          1   -1    0    0  501    0 -0.00000000000E+00 -0.00000000000E+00 -0.20757874174E+04  0.20757874174E+04  0.00000000000E+00 0. -1.
         25    2    1    2    0    0 -0.69992255149E+03 -0.69337807412E+02 -0.96855055553E+03  0.12035008377E+04  0.12499911209E+03 0.  0.
          2    1    1    2  501    0  0.67370400585E+03  0.10892270690E+03 -0.87148858146E+03  0.11069027018E+04  0.00000000000E+00 0. -1.
          1    1    1    2  502    0  0.26218545638E+02 -0.39584899483E+02  0.99504398776E+03  0.99617614606E+03  0.00000000000E+00 0. -1.
         22    1    3    3    0    0 -0.50986692131E+03 -0.50618222918E+02 -0.79282624637E+03  0.94398089963E+03  0.00000000000E+00 0.  1.
         22    1    3    3    0    0 -0.19005563018E+03 -0.18719584495E+02 -0.17572430916E+03  0.25951993803E+03  0.00000000000E+00 0.  1.
</event>
<event>
 7    1  0.5018917E-005  0.5039245E+03  0.7818608E-02  0.1167896E+00
          2   -1    0    0  502    0  0.00000000000E+00  0.00000000000E+00  0.10136852034E+04  0.10136852034E+04  0.00000000000E+00 0. -1.
          1   -1    0    0  501    0 -0.00000000000E+00 -0.00000000000E+00 -0.69157191227E+03  0.69157191227E+03  0.00000000000E+00 0. -1.
         25    2    1    2    0    0  0.47503229186E+03 -0.24054970091E+03 -0.16772018341E+03  0.57207984338E+03  0.12500180144E+03 0.  0.
          2    1    1    2  501    0 -0.56588933485E+02 -0.30377701647E+02 -0.24050395463E+03  0.24893224850E+03  0.00000000000E+00 0. -1.
          1    1    1    2  502    0 -0.41844335838E+03  0.27092740255E+03  0.73033742918E+03  0.88424502378E+03  0.00000000000E+00 0. -1.
         22    1    3    3    0    0  0.30719332372E+03 -0.15383675253E+03 -0.44258604702E+02  0.34639905983E+03  0.00000000000E+00 0.  1.
         22    1    3    3    0    0  0.16783896815E+03 -0.86712948380E+02 -0.12346157871E+03  0.22568078355E+03  0.00000000000E+00 0.  1.
</event>
<event>
 7    1  0.5018917E-005  0.4381477E+03  0.7818608E-02  0.1183449E+00
          2   -1    0    0  502    0  0.00000000000E+00  0.00000000000E+00  0.46333730332E+04  0.46333730332E+04  0.00000000000E+00 0. -1.
          1   -1    0    0  501    0 -0.00000000000E+00 -0.00000000000E+00 -0.99625082677E+03  0.99625082677E+03  0.00000000000E+00 0. -1.
         25    2    1    2    0    0 -0.42887797644E+03 -0.24557394101E+03  0.12998706432E+04  0.13962558065E+04  0.12499483560E+03 0.  0.
          2    1    1    2  501    0  0.36805063905E+03  0.23389061489E+03 -0.89759988642E+03  0.99792366880E+03  0.00000000000E+00 0. -1.
          1    1    1    2  502    0  0.60827337388E+02  0.11683326118E+02  0.32348514497E+04  0.32354443848E+04  0.00000000000E+00 0. -1.
         22    1    3    3    0    0 -0.25483574265E+03 -0.19078520266E+03  0.94578917535E+03  0.99792655717E+03  0.00000000000E+00 0.  1.
         22    1    3    3    0    0 -0.17404223379E+03 -0.54788738343E+02  0.35408146782E+03  0.39832924930E+03  0.00000000000E+00 0.  1.
</event>
<event>
 7    1  0.5018917E-005  0.5520905E+03  0.7818608E-02  0.1175942E+00
          2   -1    0    0  502    0  0.00000000000E+00  0.00000000000E+00  0.30889485808E+04  0.30889485808E+04  0.00000000000E+00 0. -1.
          1   -1    0    0  501    0 -0.00000000000E+00 -0.00000000000E+00 -0.99925666085E+03  0.99925666085E+03  0.00000000000E+00 0. -1.
         25    2    1    2    0    0  0.22543616173E+01 -0.56632913150E+03  0.11785024390E+04  0.13134790130E+04  0.12500140555E+03 0.  0.
          2    1    1    2  501    0 -0.47880477420E+02  0.23838019375E+02 -0.89074449928E+03  0.89234889717E+03  0.00000000000E+00 0. -1.
          1    1    1    2  502    0  0.45626115803E+02  0.54249111213E+03  0.18019339802E+04  0.18823773315E+04  0.00000000000E+00 0. -1.
         22    1    3    3    0    0  0.32224635886E+02 -0.36018410792E+03  0.62503933424E+03  0.72211161748E+03  0.00000000000E+00 0.  1.
         22    1    3    3    0    0 -0.29970274269E+02 -0.20614502359E+03  0.55346310479E+03  0.59136739549E+03  0.00000000000E+00 0.  1.
</event>
<event>
 7    1  0.5018917E-005  0.1394859E+03  0.7818608E-02  0.1234774E+00
          2   -1    0    0  502    0  0.00000000000E+00  0.00000000000E+00  0.10151198699E+04  0.10151198699E+04  0.00000000000E+00 0. -1.
          1   -1    0    0  501    0 -0.00000000000E+00 -0.00000000000E+00 -0.60455541401E+03  0.60455541401E+03  0.00000000000E+00 0. -1.
         25    2    1    2    0    0  0.71254614496E+02 -0.23739864682E+03  0.26864993766E+03  0.38630972894E+03  0.12500832001E+03 0.  0.
          2    1    1    2  501    0 -0.27740086721E+02  0.13380896906E+03 -0.53244914578E+03  0.54970578081E+03  0.00000000000E+00 0. -1.
          1    1    1    2  502    0 -0.43514527775E+02  0.10358967776E+03  0.67436366404E+03  0.68365977419E+03  0.00000000000E+00 0. -1.
         22    1    3    3    0    0  0.56227393863E+02 -0.13274964858E+03  0.23438500758E+03  0.27517325597E+03  0.00000000000E+00 0. -1.
         22    1    3    3    0    0  0.15027220634E+02 -0.10464899824E+03  0.34264930075E+02  0.11113647298E+03  0.00000000000E+00 0. -1.
</event>
<event>
 7    1  0.5018917E-005  0.1243226E+03  0.7818608E-02  0.1281155E+00
          2   -1    0    0  502    0  0.00000000000E+00  0.00000000000E+00  0.34336563033E+04  0.34336563033E+04  0.00000000000E+00 0. -1.
          1   -1    0    0  501    0 -0.00000000000E+00 -0.00000000000E+00 -0.38028907063E+02  0.38028907063E+02  0.00000000000E+00 0. -1.
         25    2    1    2    0    0  0.81727877333E+02  0.14068947978E+02  0.46235670770E+03  0.48608106694E+03  0.12499478887E+03 0.  0.
          2    1    1    2  501    0  0.36671097658E+02 -0.70854156469E+02  0.39804476539E+02  0.89159840988E+02  0.00000000000E+00 0. -1.
          1    1    1    2  502    0 -0.11839897499E+03  0.56785208491E+02  0.28934662120E+04  0.28964443025E+04  0.00000000000E+00 0. -1.
         22    1    3    3    0    0  0.41357742062E+02 -0.19673634378E+02  0.41054003769E+02  0.61505657817E+02  0.00000000000E+00 0.  1.
         22    1    3    3    0    0  0.40370135271E+02  0.33742582356E+02  0.42130270393E+03  0.42457540912E+03  0.00000000000E+00 0.  1.
</event>
<event>
 7    1  0.5018917E-005  0.8052246E+03  0.7818608E-02  0.1052861E+00
          2   -1    0    0  502    0  0.00000000000E+00  0.00000000000E+00  0.13453359796E+04  0.13453359796E+04  0.00000000000E+00 0. -1.
          1   -1    0    0  501    0 -0.00000000000E+00 -0.00000000000E+00 -0.17197694055E+04  0.17197694055E+04  0.00000000000E+00 0. -1.
         25    2    1    2    0    0  0.53635580295E+03 -0.64621955308E+03 -0.26511611095E+02  0.84947324152E+03  0.12499865759E+03 0.  0.
          2    1    1    2  501    0  0.87624319139E+02  0.15088474720E+03 -0.11037517554E+04  0.11174579033E+04  0.00000000000E+00 0. -1.
          1    1    1    2  502    0 -0.62398012209E+03  0.49533480588E+03  0.75582994064E+03  0.10981742402E+04  0.00000000000E+00 0. -1.
         22    1    3    3    0    0  0.13863877034E+03 -0.94759870268E+02  0.12837359087E+02  0.16841894028E+03  0.00000000000E+00 0.  1.
         22    1    3    3    0    0  0.39771703260E+03 -0.55145968281E+03 -0.39348970182E+02  0.68105430124E+03  0.00000000000E+00 0.  1.
</event>
<event>
 7    1  0.5018917E-005  0.3583474E+03  0.7818608E-02  0.1120336E+00
          2   -1    0    0  502    0  0.00000000000E+00  0.00000000000E+00  0.14484154727E+04  0.14484154727E+04  0.00000000000E+00 0. -1.
          1   -1    0    0  501    0 -0.00000000000E+00 -0.00000000000E+00 -0.26853798175E+03  0.26853798175E+03  0.00000000000E+00 0. -1.
         25    2    1    2    0    0 -0.36993801257E+03  0.29388978849E+03  0.67477627907E+03  0.83317068785E+03  0.12500010947E+03 0.  0.
          2    1    1    2  501    0  0.21419154095E+03 -0.25880252925E+03 -0.18433326192E+02  0.33644695403E+03  0.00000000000E+00 0. -1.
          1    1    1    2  502    0  0.15574647161E+03 -0.35087259241E+02  0.52353453809E+03  0.54733581260E+03  0.00000000000E+00 0. -1.
         22    1    3    3    0    0 -0.19069156667E+02  0.69893233386E+02  0.99168711776E+02  0.12281339587E+03  0.00000000000E+00 0.  1.
         22    1    3    3    0    0 -0.35086885590E+03  0.22399655510E+03  0.57560756730E+03  0.71035729198E+03  0.00000000000E+00 0.  1.
</event>
<event>
 7    1  0.5018917E-005  0.1459847E+04  0.7818608E-02  0.1054029E+00
          2   -1    0    0  502    0  0.00000000000E+00  0.00000000000E+00  0.17278042874E+04  0.17278042874E+04  0.00000000000E+00 0. -1.
          1   -1    0    0  501    0 -0.00000000000E+00 -0.00000000000E+00 -0.48715724816E+04  0.48715724816E+04  0.00000000000E+00 0. -1.
         25    2    1    2    0    0  0.12439077761E+04  0.88033866352E+03 -0.35095897426E+03  0.15687867884E+04  0.12496826768E+03 0.  0.
          2    1    1    2  501    0 -0.79802868763E+02 -0.50915908803E+02 -0.34542890529E+04  0.34555858821E+04  0.00000000000E+00 0. -1.
          1    1    1    2  502    0 -0.11641049073E+04 -0.82942275471E+03  0.66147983290E+03  0.15750040986E+04  0.00000000000E+00 0. -1.
         22    1    3    3    0    0  0.96142640106E+03  0.71012209959E+03 -0.32115507344E+03  0.12376407807E+04  0.00000000000E+00 0.  1.
         22    1    3    3    0    0  0.28248137503E+03  0.17021656393E+03 -0.29803900819E+02  0.33114600764E+03  0.00000000000E+00 0.  1.
</event>
<event>
 7    1  0.5018917E-005  0.1992941E+03  0.7818608E-02  0.1178580E+00
          2   -1    0    0  502    0  0.00000000000E+00  0.00000000000E+00  0.15457598288E+04  0.15457598288E+04  0.00000000000E+00 0. -1.
          1   -1    0    0  501    0 -0.00000000000E+00 -0.00000000000E+00 -0.66763180881E+02  0.66763180881E+02  0.00000000000E+00 0. -1.
         25    2    1    2    0    0  0.22094597323E+03 -0.17891915795E+03  0.59943666628E+03  0.67511403600E+03  0.12500182624E+03 0.  0.
          2    1    1    2  501    0 -0.15204667100E+03  0.52677922132E+02  0.30180276705E+03  0.34202056055E+03  0.00000000000E+00 0. -1.
          1    1    1    2  502    0 -0.68899302230E+02  0.12624123582E+03  0.57775721456E+03  0.59538841310E+03  0.00000000000E+00 0. -1.
         22    1    3    3    0    0  0.33515279367E+02 -0.12404700152E+02  0.20249915915E+03  0.20562845132E+03  0.00000000000E+00 0.  1.
         22    1    3    3    0    0  0.18743069386E+03 -0.16651445780E+03  0.39693750713E+03  0.46948558468E+03  0.00000000000E+00 0.  1.
</event>
<event>
 7    1  0.5018917E-005  0.2660350E+03  0.7818608E-02  0.1277298E+00
          2   -1    0    0  502    0  0.00000000000E+00  0.00000000000E+00  0.16805743593E+04  0.16805743593E+04  0.00000000000E+00 0. -1.
          1   -1    0    0  501    0 -0.00000000000E+00 -0.00000000000E+00 -0.88015127132E+03  0.88015127132E+03  0.00000000000E+00 0. -1.
         25    2    1    2    0    0  0.26093297405E+03 -0.10860813412E+03 -0.44283772154E+03  0.54001123224E+03  0.12500055836E+03 0.  0.
          2    1    1    2  501    0 -0.30526720965E+02 -0.23752222420E+02 -0.37691453118E+03  0.37889393315E+03  0.00000000000E+00 0. -1.
          1    1    1    2  502    0 -0.23040625308E+03  0.13236035654E+03  0.16201753407E+04  0.16418204653E+04  0.00000000000E+00 0. -1.
         22    1    3    3    0    0  0.25213326848E+03 -0.11761480441E+03 -0.35380041055E+03  0.45008794451E+03  0.00000000000E+00 0.  1.
         22    1    3    3    0    0  0.87997055691E+01  0.90066702965E+01 -0.89037310993E+02  0.89923287733E+02  0.00000000000E+00 0.  1.
</event>
<event>
 7    1  0.5018917E-005  0.2307067E+03  0.7818608E-02  0.1212404E+00
          2   -1    0    0  502    0  0.00000000000E+00  0.00000000000E+00  0.53601536778E+03  0.53601536778E+03  0.00000000000E+00 0. -1.
          1   -1    0    0  501    0 -0.00000000000E+00 -0.00000000000E+00 -0.71703859468E+03  0.71703859468E+03  0.00000000000E+00 0. -1.
         25    2    1    2    0    0  0.18454320225E+03 -0.22217057291E+03 -0.37875195331E+02  0.31697671903E+03  0.12499501198E+03 0.  0.
          2    1    1    2  501    0 -0.81733036065E+02  0.26088140695E+02 -0.50479874914E+03  0.51203774998E+03  0.00000000000E+00 0. -1.
          1    1    1    2  502    0 -0.10281016619E+03  0.19608243221E+03  0.36165071757E+03  0.42403949346E+03  0.00000000000E+00 0. -1.
         22    1    3    3    0    0  0.15950848108E+03 -0.20515886551E+03  0.10307702934E+02  0.26007568971E+03  0.00000000000E+00 0.  1.
         22    1    3    3    0    0  0.25034721170E+02 -0.17011707394E+02 -0.48182898266E+02  0.56901029321E+02  0.00000000000E+00 0.  1.
</event>
<event>
 7    1  0.5018917E-005  0.4114445E+03  0.7818608E-02  0.1203764E+00
          2   -1    0    0  502    0  0.00000000000E+00  0.00000000000E+00  0.15495901973E+04  0.15495901973E+04  0.00000000000E+00 0. -1.
          1   -1    0    0  501    0 -0.00000000000E+00 -0.00000000000E+00 -0.18424080328E+04  0.18424080328E+04  0.00000000000E+00 0. -1.
         25    2    1    2    0    0  0.34870498745E+03 -0.23233236207E+03  0.21102538279E+03  0.48552333413E+03  0.12501080380E+03 0.  0.
          2    1    1    2  501    0  0.18446377227E+02  0.49443637730E+02 -0.16697166698E+04  0.16705504182E+04  0.00000000000E+00 0. -1.
          1    1    1    2  502    0 -0.36715136468E+03  0.18288872434E+03  0.11658734515E+04  0.12359244778E+04  0.00000000000E+00 0. -1.
         22    1    3    3    0    0  0.22943746809E+03 -0.10865596870E+03  0.70263496760E+02  0.26340962449E+03  0.00000000000E+00 0. -1.
         22    1    3    3    0    0  0.11926751936E+03 -0.12367639337E+03  0.14076188603E+03  0.22211370964E+03  0.00000000000E+00 0. -1.
</event>
<event>
 7    1  0.5018917E-005  0.9406980E+03  0.7818608E-02  0.1184366E+00
          2   -1    0    0  502    0  0.00000000000E+00  0.00000000000E+00  0.15204296120E+04  0.15204296120E+04  0.00000000000E+00 0. -1.
          1   -1    0    0  501    0 -0.00000000000E+00 -0.00000000000E+00 -0.95701764430E+03  0.95701764430E+03  0.00000000000E+00 0. -1.
         25    2    1    2    0    0 -0.46535609467E+03  0.80501968586E+03  0.31779153966E+03  0.99057073367E+03  0.12500370500E+03 0.  0.
          2    1    1    2  501    0  0.88044600435E+01  0.27164406857E+02 -0.35987199829E+03  0.36100315604E+03  0.00000000000E+00 0. -1.
          1    1    1    2  502    0  0.45655163463E+03 -0.83218409272E+03  0.60549242635E+03  0.11258733666E+04  0.00000000000E+00 0. -1.
         22    1    3    3    0    0 -0.31368112197E+03  0.53493827907E+03  0.14885190548E+03  0.63773952242E+03  0.00000000000E+00 0. -1.
         22    1    3    3    0    0 -0.15167497270E+03  0.27008140679E+03  0.16893963418E+03  0.35283121125E+03  0.00000000000E+00 0. -1.
</event>
<event>
 7    1  0.5018917E-005  0.5923613E+03  0.7818608E-02  0.1251425E+00
          2   -1    0    0  502    0  0.00000000000E+00  0.00000000000E+00  0.12244712000E+03  0.12244712000E+03  0.00000000000E+00 0. -1.
          1   -1    0    0  501    0 -0.00000000000E+00 -0.00000000000E+00 -0.38624253957E+04  0.38624253957E+04  0.00000000000E+00 0. -1.
         25    2    1    2    0    0 -0.15918508917E+03 -0.58478767922E+03 -0.24577805314E+04  0.25344873129E+04  0.12499710497E+03 0.  0.
          2    1    1    2  501    0 -0.55888704741E+01  0.21650911821E+02 -0.33792362608E+03  0.33866262640E+03  0.00000000000E+00 0. -1.
          1    1    1    2  502    0  0.16477395965E+03  0.56313676740E+03 -0.94427411822E+03  0.11117225764E+04  0.00000000000E+00 0. -1.
         22    1    3    3    0    0 -0.18953721132E+02 -0.29828838760E+03 -0.12593850399E+04  0.12943669821E+04  0.00000000000E+00 0. -1.
         22    1    3    3    0    0 -0.14023136804E+03 -0.28649929163E+03 -0.11983954915E+04  0.12401203307E+04  0.00000000000E+00 0. -1.
</event>
<event>
 7    1  0.5018917E-005  0.5433296E+03  0.7818608E-02  0.1078731E+00
          2   -1    0    0  502    0  0.00000000000E+00  0.00000000000E+00  0.11022615482E+04  0.11022615482E+04  0.00000000000E+00 0. -1.
          1   -1    0    0  501    0 -0.00000000000E+00 -0.00000000000E+00 -0.13478087011E+04  0.13478087011E+04  0.00000000000E+00 0. -1.
         25    2    1    2    0    0  0.19299055741E+03  0.61425661320E+03 -0.13883724898E+03  0.67041543115E+03  0.12499810599E+03 0.  0.
          2    1    1    2  501    0 -0.40111057076E+02 -0.51779888800E+03 -0.86017927632E+03  0.10048049426E+04  0.00000000000E+00 0. -1.
          1    1    1    2  502    0 -0.15287950034E+03 -0.96457725207E+02  0.75346937247E+03  0.77484987554E+03  0.00000000000E+00 0. -1.
         22    1    3    3    0    0  0.42829855834E+02  0.25215771606E+03 -0.10659207673E+03  0.27709164755E+03  0.00000000000E+00 0.  1.
         22    1    3    3    0    0  0.15016070158E+03  0.36209889715E+03 -0.32245172251E+02  0.39332378360E+03  0.00000000000E+00 0.  1.
</event>
<event>
 7    1  0.5018917E-005  0.1094380E+03  0.7818608E-02  0.1288236E+00
          2   -1    0    0  502    0  0.00000000000E+00  0.00000000000E+00  0.13707908006E+04  0.13707908006E+04  0.00000000000E+00 0. -1.
          1   -1    0    0  501    0 -0.00000000000E+00 -0.00000000000E+00 -0.18360481580E+03  0.18360481580E+03  0.00000000000E+00 0. -1.
         25    2    1    2    0    0  0.35129735307E+02 -0.22151976818E+02  0.59300979621E+03  0.60747119526E+03  0.12504329764E+03 0.  0.
          2    1    1    2  501    0 -0.11052909847E+03 -0.16589614130E+02 -0.15603760745E+03  0.19193653077E+03  0.00000000000E+00 0. -1.
          1    1    1    2  502    0  0.75399363164E+02  0.38741590948E+02  0.75021379608E+03  0.75498789041E+03  0.00000000000E+00 0. -1.
         22    1    3    3    0    0 -0.71983546913E+01 -0.52546447207E+02  0.11513539388E+03  0.12676397102E+03  0.00000000000E+00 0.  1.
         22    1    3    3    0    0  0.42328089998E+02  0.30394470389E+02  0.47787440233E+03  0.48070722423E+03  0.00000000000E+00 0.  1.
</event>
<event>
 7    1  0.5018917E-005  0.6096060E+03  0.7818608E-02  0.1181761E+00
          2   -1    0    0  502    0  0.00000000000E+00  0.00000000000E+00  0.10998739647E+04  0.10998739647E+04  0.00000000000E+00 0. -1.
          1   -1    0    0  501    0 -0.00000000000E+00 -0.00000000000E+00 -0.12913019798E+04  0.12913019798E+04  0.00000000000E+00 0. -1.
         25    2    1    2    0    0 -0.34198314730E+03  0.48868610465E+03 -0.53052498627E+03  0.80799010872E+03  0.12499869123E+03 0.  0.
          2    1    1    2  501    0  0.32823044852E+03 -0.53191871925E+03 -0.46423111366E+03  0.77857772773E+03  0.00000000000E+00 0. -1.
          1    1    1    2  502    0  0.13752698783E+02  0.43232614602E+02  0.80332808484E+03  0.80460810807E+03  0.00000000000E+00 0. -1.
         22    1    3    3    0    0 -0.41709183144E+02  0.15501047741E+03 -0.14088160938E+03  0.21357792940E+03  0.00000000000E+00 0. -1.
         22    1    3    3    0    0 -0.30027396416E+03  0.33367562724E+03 -0.38964337689E+03  0.59441217931E+03  0.00000000000E+00 0. -1.
</event>
<event>
 7    1  0.5018917E-005  0.8622080E+03  0.7818608E-02  0.1142886E+00
          2   -1    0    0  502    0  0.00000000000E+00  0.00000000000E+00  0.13797164558E+04  0.13797164558E+04  0.00000000000E+00 0. -1.
          1   -1    0    0  501    0 -0.00000000000E+00 -0.00000000000E+00 -0.84857429898E+03  0.84857429898E+03  0.00000000000E+00 0. -1.
         25    2    1    2    0    0 -0.85061813992E+03 -0.21344203715E+03 -0.14315495876E+03  0.89734436814E+03  0.12499939854E+03 0.  0.
          2    1    1    2  501    0  0.82391227842E+03  0.17076653256E+03  0.21440887628E+03  0.86831089904E+03  0.00000000000E+00 0. -1.
          1    1    1    2  502    0  0.26705861505E+02  0.42675504584E+02  0.45988823927E+03  0.46263548756E+03  0.00000000000E+00 0. -1.
         22    1    3    3    0    0 -0.37200736469E+03 -0.47161149555E+02 -0.17864484446E+02  0.37541016663E+03  0.00000000000E+00 0.  1.
         22    1    3    3    0    0 -0.47861077524E+03 -0.16628088759E+03 -0.12529047431E+03  0.52193420151E+03  0.00000000000E+00 0.  1.
</event>
<event>
 7    1  0.5018917E-005  0.5488497E+03  0.7818608E-02  0.1150419E+00
          2   -1    0    0  502    0  0.00000000000E+00  0.00000000000E+00  0.90038236352E+03  0.90038236352E+03  0.00000000000E+00 0. -1.
          1   -1    0    0  501    0 -0.00000000000E+00 -0.00000000000E+00 -0.34313827369E+04  0.34313827369E+04  0.00000000000E+00 0. -1.
         25    2    1    2    0    0 -0.15099960550E+03 -0.56350120783E+03 -0.10967439283E+03  0.60662010237E+03  0.12499993625E+03 0.  0.
          2    1    1    2  501    0  0.19803020984E+03  0.50859519447E+03 -0.30469051067E+04  0.30954023592E+04  0.00000000000E+00 0. -1.
          1    1    1    2  502    0 -0.47030604333E+02  0.54906013361E+02  0.62557912621E+03  0.62974263885E+03  0.00000000000E+00 0. -1.
         22    1    3    3    0    0 -0.27191659463E+02 -0.92809216711E+01 -0.60636469385E+01  0.29364769122E+02  0.00000000000E+00 0. -1.
         22    1    3    3    0    0 -0.12380794604E+03 -0.55422028616E+03 -0.10361074590E+03  0.57725533324E+03  0.00000000000E+00 0. -1.
</event>
<event>
 7    1  0.5018917E-005  0.7240853E+03  0.7818608E-02  0.1200681E+00
          2   -1    0    0  502    0  0.00000000000E+00  0.00000000000E+00  0.21422578610E+04  0.21422578610E+04  0.00000000000E+00 0. -1.
          1   -1    0    0  501    0 -0.00000000000E+00 -0.00000000000E+00 -0.10325566919E+04  0.10325566919E+04  0.00000000000E+00 0. -1.
         25    2    1    2    0    0 -0.38421368807E+03 -0.62004211882E+03  0.33683861433E+03  0.81311634142E+03  0.12500218147E+03 0.  0.
          2    1    1    2  501    0 -0.21488358817E+02  0.22349118282E+02 -0.71082365994E+03  0.71149947870E+03  0.00000000000E+00 0. -1.
          1    1    1    2  502    0  0.40570204689E+03  0.59769300053E+03  0.14836862148E+04  0.16501987328E+04  0.00000000000E+00 0. -1.
         22    1    3    3    0    0 -0.11331395454E+03 -0.29811897432E+03  0.15849163352E+03  0.35613841838E+03  0.00000000000E+00 0.  1.
         22    1    3    3    0    0 -0.27089973353E+03 -0.32192314449E+03  0.17834698080E+03  0.45697792304E+03  0.00000000000E+00 0.  1.
</event>
<event>
 7    1  0.5018917E-005  0.3750347E+02  0.7818608E-02  0.1535734E+00
          2   -1    0    0  502    0  0.00000000000E+00  0.00000000000E+00  0.11414693123E+04  0.11414693123E+04  0.00000000000E+00 0. -1.
          1   -1    0    0  501    0 -0.00000000000E+00 -0.00000000000E+00 -0.27156518853E+03  0.27156518853E+03  0.00000000000E+00 0. -1.
         25    2    1    2    0    0 -0.65332525128E+02 -0.17556560669E+02  0.12901568624E+03  0.19194955258E+03  0.12499204686E+03 0.  0.
          2    1    1    2  501    0  0.30100661187E+02  0.21980166337E+02 -0.23832804870E+03  0.24122486670E+03  0.00000000000E+00 0. -1.
          1    1    1    2  502    0  0.35231863941E+02 -0.44236056679E+01  0.97921648626E+03  0.97986008159E+03  0.00000000000E+00 0. -1.
         22    1    3    3    0    0 -0.30412314747E+02  0.38918877148E+02  0.11347087200E+03  0.12375470366E+03  0.00000000000E+00 0.  1.
         22    1    3    3    0    0 -0.34920210381E+02 -0.56475437817E+02  0.15544814243E+02  0.68194848922E+02  0.00000000000E+00 0.  1.
</event>
<event>
 7    1  0.5018917E-005  0.1386959E+04  0.7818608E-02  0.1053685E+00
          2   -1    0    0  502    0  0.00000000000E+00  0.00000000000E+00  0.36838292666E+04  0.36838292666E+04  0.00000000000E+00 0. -1.
          1   -1    0    0  501    0 -0.00000000000E+00 -0.00000000000E+00 -0.13559823076E+04  0.13559823076E+04  0.00000000000E+00 0. -1.
         25    2    1    2    0    0  0.11718271563E+04  0.77006758570E+03 -0.62926148988E+03  0.15420046935E+04  0.12500192480E+03 0.  0.
          2    1    1    2  501    0 -0.11514295424E+04 -0.67204389152E+03  0.13846255546E+04  0.19221396696E+04  0.00000000000E+00 0. -1.
          1    1    1    2  502    0 -0.20397613953E+02 -0.98023694179E+02  0.15724828943E+04  0.15756672111E+04  0.00000000000E+00 0. -1.
         22    1    3    3    0    0  0.99741524408E+03  0.64641053808E+03 -0.58034116892E+03  0.13226789577E+04  0.00000000000E+00 0. -1.
         22    1    3    3    0    0  0.17441191222E+03  0.12365704762E+03 -0.48920320955E+02  0.21932573573E+03  0.00000000000E+00 0. -1.
</event>
<event>
 7    1  0.5018917E-005  0.4012576E+03  0.7818608E-02  0.1204682E+00
          2   -1    0    0  502    0  0.00000000000E+00  0.00000000000E+00  0.23161216210E+03  0.23161216210E+03  0.00000000000E+00 0. -1.
          1   -1    0    0  501    0 -0.00000000000E+00 -0.00000000000E+00 -0.13503426058E+04  0.13503426058E+04  0.00000000000E+00 0. -1.
         25    2    1    2    0    0 -0.32019084443E+03 -0.26203973278E+03 -0.25820019393E+03  0.50346763670E+03  0.12500129057E+03 0.  0.
          2    1    1    2  501    0  0.49599702018E+02 -0.20262366254E+02 -0.61375450376E+03  0.61608869882E+03  0.00000000000E+00 0. -1.
          1    1    1    2  502    0  0.27059114241E+03  0.28230209904E+03 -0.24677574603E+03  0.46239843242E+03  0.00000000000E+00 0. -1.
         22    1    3    3    0    0 -0.15573893585E+03 -0.18940421490E+03 -0.19363403612E+03  0.31244633572E+03  0.00000000000E+00 0. -1.
         22    1    3    3    0    0 -0.16445190857E+03 -0.72635517880E+02 -0.64566157818E+02  0.19102130098E+03  0.00000000000E+00 0. -1.
</event>
<event>
 7    1  0.5018917E-005  0.7615182E+03  0.7818608E-02  0.1127466E+00
          2   -1    0    0  502    0  0.00000000000E+00  0.00000000000E+00  0.70647773916E+03  0.70647773916E+03  0.00000000000E+00 0. -1.
          1   -1    0    0  501    0 -0.00000000000E+00 -0.00000000000E+00 -0.26657992422E+04  0.26657992422E+04  0.00000000000E+00 0. -1.
         25    2    1    2    0    0  0.64551810173E+03 -0.47042819407E+03  0.31761667830E+03  0.86862052209E+03  0.12499980651E+03 0.  0.
          2    1    1    2  501    0 -0.57924486034E+03  0.48875824550E+03 -0.23072272806E+04  0.24285194986E+04  0.00000000000E+00 0. -1.
          1    1    1    2  502    0 -0.66273241385E+02 -0.18330051436E+02  0.30289099330E+02  0.75136960596E+02  0.00000000000E+00 0. -1.
         22    1    3    3    0    0  0.23866282449E+02  0.62883930202E+01  0.14512195659E+02  0.28631226791E+02  0.00000000000E+00 0.  1.
         22    1    3    3    0    0  0.62165181928E+03 -0.47671658709E+03  0.30310448264E+03  0.83998929530E+03  0.00000000000E+00 0.  1.
</event>
<event>
 7    1  0.5018917E-005  0.1378156E+03  0.7818608E-02  0.1389285E+00
          2   -1    0    0  502    0  0.00000000000E+00  0.00000000000E+00  0.57141928880E+03  0.57141928880E+03  0.00000000000E+00 0. -1.
          1   -1    0    0  501    0 -0.00000000000E+00 -0.00000000000E+00 -0.47563662966E+03  0.47563662966E+03  0.00000000000E+00 0. -1.
         25    2    1    2    0    0 -0.12518232774E+03 -0.37471031118E+02  0.35575580942E+03  0.39907819606E+03  0.12500606897E+03 0.  0.
          2    1    1    2  501    0 -0.21641213929E+02  0.17717345643E+02 -0.42516647837E+03  0.42608541492E+03  0.00000000000E+00 0. -1.
          1    1    1    2  502    0  0.14682354167E+03  0.19753685476E+02  0.16519332809E+03  0.22189230749E+03  0.00000000000E+00 0. -1.
         22    1    3    3    0    0 -0.10302111046E+03  0.25826727855E+02  0.15903142130E+03  0.19123640352E+03  0.00000000000E+00 0. -1.
         22    1    3    3    0    0 -0.22161217283E+02 -0.63297758973E+02  0.19672438812E+03  0.20784179254E+03  0.00000000000E+00 0. -1.
</event>
<event>
 7    1  0.5483903E-005  0.7933168E+02  0.7818608E-02  0.1391744E+00
          2   -1    0    0  502    0  0.00000000000E+00  0.00000000000E+00  0.18704195176E+04  0.18704195176E+04  0.00000000000E+00 0. -1.
          1   -1    0    0  501    0 -0.00000000000E+00 -0.00000000000E+00 -0.33109669125E+03  0.33109669125E+03  0.00000000000E+00 0. -1.
         25    2    1    2    0    0 -0.32116690834E+02  0.14845135183E+01 -0.85205625391E+02  0.15465271621E+03  0.12499511359E+03 0.  0.
          2    1    1    2  501    0 -0.47058543589E+02  0.74055354546E+01 -0.20760403101E+03  0.21299948867E+03  0.00000000000E+00 0. -1.
          1    1    1    2  502    0  0.79175234422E+02 -0.88900489729E+01  0.18321324828E+04  0.18338640040E+04  0.00000000000E+00 0. -1.
         22    1    3    3    0    0  0.24770913232E+02 -0.10883432215E+02  0.20520674579E+02  0.33957993526E+02  0.00000000000E+00 0.  1.
         22    1    3    3    0    0 -0.56887604066E+02  0.12367945733E+02 -0.10572629997E+03  0.12069472268E+03  0.00000000000E+00 0.  1.
</event>
<event>
 7    1  0.5018917E-005  0.5642406E+03  0.7818608E-02  0.1081750E+00
          2   -1    0    0  502    0  0.00000000000E+00  0.00000000000E+00  0.25116497253E+04  0.25116497253E+04  0.00000000000E+00 0. -1.
          1   -1    0    0  501    0 -0.00000000000E+00 -0.00000000000E+00 -0.19904989882E+04  0.19904989882E+04  0.00000000000E+00 0. -1.
         25    2    1    2    0    0 -0.24539080169E+03  0.53506007193E+03  0.22550803239E+04  0.23339925239E+04  0.12501163380E+03 0.  0.
          2    1    1    2  501    0  0.11092556456E+03 -0.12501582934E+03 -0.17285322439E+04  0.17365935496E+04  0.00000000000E+00 0. -1.
          1    1    1    2  502    0  0.13446523713E+03 -0.41004424259E+03 -0.53973428080E+01  0.43156263994E+03  0.00000000000E+00 0. -1.
         22    1    3    3    0    0 -0.43024389745E+02  0.18209425050E+02  0.17607009731E+03  0.18216300514E+03  0.00000000000E+00 0.  1.
         22    1    3    3    0    0 -0.20236641194E+03  0.51685064688E+03  0.20790102265E+04  0.21518295188E+04  0.00000000000E+00 0.  1.
</event>
<event>
 7    1  0.5018917E-005  0.3202054E+03  0.7818608E-02  0.1116219E+00
          2   -1    0    0  502    0  0.00000000000E+00  0.00000000000E+00  0.59010543854E+03  0.59010543854E+03  0.00000000000E+00 0. -1.
          1   -1    0    0  501    0 -0.00000000000E+00 -0.00000000000E+00 -0.33681361280E+04  0.33681361280E+04  0.00000000000E+00 0. -1.
         25    2    1    2    0    0  0.15781147755E+03  0.46168119634E+03 -0.47106666221E+03  0.68962473266E+03  0.12499792857E+03 0.  0.
          2    1    1    2  501    0 -0.58688385652E+02 -0.30177581265E+03 -0.27605217004E+04  0.27775876271E+04  0.00000000000E+00 0. -1.
          1    1    1    2  502    0 -0.99123091903E+02 -0.15990538369E+03  0.45355767314E+03  0.49102920681E+03  0.00000000000E+00 0. -1.
         22    1    3    3    0    0  0.61616009913E+02  0.10940856428E+03 -0.58082919080E+02  0.13834880594E+03  0.00000000000E+00 0.  1.
         22    1    3    3    0    0  0.96195467641E+02  0.35227263206E+03 -0.41298374313E+03  0.55127592673E+03  0.00000000000E+00 0.  1.
</event>
<event>
 7    1  0.5018917E-005  0.2828368E+03  0.7818608E-02  0.1159611E+00
          2   -1    0    0  502    0  0.00000000000E+00  0.00000000000E+00  0.26204573398E+04  0.26204573398E+04  0.00000000000E+00 0. -1.
          1   -1    0    0  501    0 -0.00000000000E+00 -0.00000000000E+00 -0.17869577741E+04  0.17869577741E+04  0.00000000000E+00 0. -1.
         25    2    1    2    0    0 -0.22590553512E+03  0.15355725098E+03  0.97040081464E+03  0.10158323068E+04  0.12499757745E+03 0.  0.
          2    1    1    2  501    0 -0.68893078211E+02 -0.10542083354E+03 -0.17482509816E+04  0.17527810197E+04  0.00000000000E+00 0. -1.
          1    1    1    2  502    0  0.29479861333E+03 -0.48136417433E+02  0.16113497327E+04  0.16388017873E+04  0.00000000000E+00 0. -1.
         22    1    3    3    0    0 -0.82520900988E+02 -0.33288756811E+01  0.36438381619E+03  0.37362594398E+03  0.00000000000E+00 0. -1.
         22    1    3    3    0    0 -0.14338463413E+03  0.15688612666E+03  0.60601699844E+03  0.64220636282E+03  0.00000000000E+00 0. -1.
</event>
<event>
 7    1  0.5018917E-005  0.6118114E+03  0.7818608E-02  0.1143386E+00
          2   -1    0    0  502    0  0.00000000000E+00  0.00000000000E+00  0.45036366663E+03  0.45036366663E+03  0.00000000000E+00 0. -1.
          1   -1    0    0  501    0 -0.00000000000E+00 -0.00000000000E+00 -0.45807163798E+04  0.45807163798E+04  0.00000000000E+00 0. -1.
         25    2    1    2    0    0  0.17833788003E+03  0.60913117969E+03 -0.14299407854E+04  0.15694587874E+04  0.12500016818E+03 0.  0.
          2    1    1    2  501    0 -0.10967850045E+03 -0.59302536075E+03 -0.30479287869E+04  0.31070208146E+04  0.00000000000E+00 0. -1.
          1    1    1    2  502    0 -0.68659379581E+02 -0.16105818941E+02  0.34751685917E+03  0.35460044446E+03  0.00000000000E+00 0. -1.
         22    1    3    3    0    0  0.14865440012E+03  0.54088760155E+03 -0.13403196032E+04  0.14529673661E+04  0.00000000000E+00 0. -1.
         22    1    3    3    0    0  0.29683479915E+02  0.68243578147E+02 -0.89621182156E+02  0.11649142127E+03  0.00000000000E+00 0. -1.
</event>
<event>
 7    1  0.5018917E-005  0.1207052E+04  0.7818608E-02  0.1112677E+00
          2   -1    0    0  502    0  0.00000000000E+00  0.00000000000E+00  0.24295446927E+04  0.24295446927E+04  0.00000000000E+00 0. -1.
          1   -1    0    0  501    0 -0.00000000000E+00 -0.00000000000E+00 -0.10140352395E+04  0.10140352395E+04  0.00000000000E+00 0. -1.
         25    2    1    2    0    0  0.49151232689E+03  0.11191118219E+04  0.13602695755E+03  0.12361732791E+04  0.12500162125E+03 0.  0.
          2    1    1    2  501    0 -0.44106914005E+03 -0.11057130225E+04  0.30149015722E+03  0.12280226338E+04  0.00000000000E+00 0. -1.
          1    1    1    2  502    0 -0.50443186841E+02 -0.13398799483E+02  0.97799233849E+03  0.97938401920E+03  0.00000000000E+00 0. -1.
         22    1    3    3    0    0  0.65408346598E+01 -0.21863452113E+01  0.18807036672E+01  0.71484032982E+01  0.00000000000E+00 0. -1.
         22    1    3    3    0    0  0.48497149223E+03  0.11212981672E+04  0.13414625388E+03  0.12290248758E+04  0.00000000000E+00 0. -1.
</event>
<event>
 7    1  0.5018917E-005  0.6669191E+03  0.7818608E-02  0.1233565E+00
          2   -1    0    0  502    0  0.00000000000E+00  0.00000000000E+00  0.10266626937E+04  0.10266626937E+04  0.00000000000E+00 0. -1.
          1   -1    0    0  501    0 -0.00000000000E+00 -0.00000000000E+00 -0.53480798486E+03  0.53480798486E+03  0.00000000000E+00 0. -1.
         25    2    1    2    0    0 -0.55450789064E+02 -0.67354935558E+03  0.29645727938E+03  0.74850205314E+03  0.12499952259E+03 0.  0.
          2    1    1    2  501    0  0.72528188743E+02  0.65698266647E+03  0.46963902465E+02  0.66264030238E+03  0.00000000000E+00 0. -1.
          1    1    1    2  502    0 -0.17077399679E+02  0.16566689109E+02  0.14843352697E+03  0.15032832301E+03  0.00000000000E+00 0. -1.
         22    1    3    3    0    0  0.21834508206E+02 -0.23466685100E+03  0.56454222608E+02  0.24234759325E+03  0.00000000000E+00 0. -1.
         22    1    3    3    0    0 -0.77285297270E+02 -0.43888250459E+03  0.24000305677E+03  0.50615445989E+03  0.00000000000E+00 0. -1.
</event>
<event>
 7    1  0.5018917E-005  0.1378394E+03  0.7818608E-02  0.1230489E+00
          2   -1    0    0  502    0  0.00000000000E+00  0.00000000000E+00  0.27022611859E+04  0.27022611859E+04  0.00000000000E+00 0. -1.
          1   -1    0    0  501    0 -0.00000000000E+00 -0.00000000000E+00 -0.69359432008E+03  0.69359432008E+03  0.00000000000E+00 0. -1.
         25    2    1    2    0    0  0.23396354439E+03 -0.72360809027E+02  0.12460395332E+04  0.12760147472E+04  0.12499635975E+03 0.  0.
          2    1    1    2  501    0 -0.11516770671E+03  0.74747816101E+02 -0.66917588372E+03  0.68311580280E+03  0.00000000000E+00 0. -1.
          1    1    1    2  502    0 -0.11879583768E+03 -0.23870070739E+01  0.14318032163E+04  0.14367249560E+04  0.00000000000E+00 0. -1.
         22    1    3    3    0    0  0.30224856774E+02  0.20274068275E+01  0.44809601294E+03  0.44911879181E+03  0.00000000000E+00 0.  1.
         22    1    3    3    0    0  0.20373868761E+03 -0.74388215854E+02  0.79794352029E+03  0.82689595540E+03  0.00000000000E+00 0.  1.
</event>
<event>
 7    1  0.5018917E-005  0.1979168E+03  0.7818608E-02  0.1186382E+00
          2   -1    0    0  502    0  0.00000000000E+00  0.00000000000E+00  0.29367097465E+04  0.29367097465E+04  0.00000000000E+00 0. -1.
          1   -1    0    0  501    0 -0.00000000000E+00 -0.00000000000E+00 -0.81670129082E+03  0.81670129082E+03  0.00000000000E+00 0. -1.
         25    2    1    2    0    0 -0.19327791701E+03  0.10330191659E+03  0.21430023715E+04  0.21578024772E+04  0.12499890813E+03 0.  0.
          2    1    1    2  501    0  0.11335540949E+03  0.69013606697E+02 -0.79222934224E+03  0.80326811058E+03  0.00000000000E+00 0. -1.
          1    1    1    2  502    0  0.79922507523E+02 -0.17231552328E+03  0.76923542642E+03  0.79234044957E+03  0.00000000000E+00 0. -1.
         22    1    3    3    0    0 -0.20066024183E+03  0.84881850774E+02  0.20878760577E+04  0.20992131606E+04  0.00000000000E+00 0.  1.
         22    1    3    3    0    0  0.73823248255E+01  0.18420065812E+02  0.55126313767E+02  0.58589316551E+02  0.00000000000E+00 0.  1.
</event>
<event>
 7    1  0.5018917E-005  0.4099776E+03  0.7818608E-02  0.1098860E+00
          2   -1    0    0  502    0  0.00000000000E+00  0.00000000000E+00  0.44205261870E+03  0.44205261870E+03  0.00000000000E+00 0. -1.
          1   -1    0    0  501    0 -0.00000000000E+00 -0.00000000000E+00 -0.18011447509E+04  0.18011447509E+04  0.00000000000E+00 0. -1.
         25    2    1    2    0    0 -0.26550279096E+03 -0.38143857209E+03  0.19045449626E+03  0.51757590711E+03  0.12499915275E+03 0.  0.
          2    1    1    2  501    0  0.19256648835E+02  0.18247000018E+03 -0.13246237141E+04  0.13372711406E+04  0.00000000000E+00 0. -1.
          1    1    1    2  502    0  0.24624614212E+03  0.19896857192E+03 -0.22492291435E+03  0.38835032190E+03  0.00000000000E+00 0. -1.
         22    1    3    3    0    0 -0.23707354033E+03 -0.30764509960E+03  0.20179299610E+03  0.43768685622E+03  0.00000000000E+00 0.  1.
         22    1    3    3    0    0 -0.28429250626E+02 -0.73793472491E+02 -0.11338499837E+02  0.79889050890E+02  0.00000000000E+00 0.  1.
</event>
<event>
 7    1  0.5018917E-005  0.3548396E+03  0.7818608E-02  0.1305989E+00
          2   -1    0    0  502    0  0.00000000000E+00  0.00000000000E+00  0.14829251432E+04  0.14829251432E+04  0.00000000000E+00 0. -1.
          1   -1    0    0  501    0 -0.00000000000E+00 -0.00000000000E+00 -0.14326939187E+04  0.14326939187E+04  0.00000000000E+00 0. -1.
         25    2    1    2    0    0  0.27503037069E+03 -0.20640240095E+03  0.13939022192E+03  0.39153176013E+03  0.12499531713E+03 0.  0.
          2    1    1    2  501    0  0.21138684802E+02  0.67193946998E+01 -0.12803251917E+04  0.12805173138E+04  0.00000000000E+00 0. -1.
          1    1    1    2  502    0 -0.29616905550E+03  0.19968300625E+03  0.11911661943E+04  0.12435699879E+04  0.00000000000E+00 0. -1.
         22    1    3    3    0    0  0.83429034104E+02 -0.22656997964E+02 -0.98154844823E+01  0.87006247040E+02  0.00000000000E+00 0.  1.
         22    1    3    3    0    0  0.19160133659E+03 -0.18374540298E+03  0.14920570640E+03  0.30452551309E+03  0.00000000000E+00 0.  1.
</event>
<event>
 7    1  0.5018917E-005  0.8605222E+03  0.7818608E-02  0.1076742E+00
          2   -1    0    0  502    0  0.00000000000E+00  0.00000000000E+00  0.16590721983E+04  0.16590721983E+04  0.00000000000E+00 0. -1.
          1   -1    0    0  501    0 -0.00000000000E+00 -0.00000000000E+00 -0.30324430259E+04  0.30324430259E+04  0.00000000000E+00 0. -1.
         25    2    1    2    0    0  0.93568388440E+02  0.91941797717E+03 -0.48060177492E+03  0.10491352972E+04  0.12498938283E+03 0.  0.
          2    1    1    2  501    0 -0.16613537605E+03 -0.82732669886E+03 -0.21863255087E+04  0.23435207829E+04  0.00000000000E+00 0. -1.
          1    1    1    2  502    0  0.72566987607E+02 -0.92091278312E+02  0.12935564560E+04  0.12988591441E+04  0.00000000000E+00 0. -1.
         22    1    3    3    0    0 -0.16286361038E+02  0.45709825848E+03 -0.23532385913E+03  0.51437474873E+03  0.00000000000E+00 0. -1.
         22    1    3    3    0    0  0.10985474948E+03  0.46231971869E+03 -0.24527791579E+03  0.53476054852E+03  0.00000000000E+00 0. -1.
</event>
<event>
 7    1  0.5018917E-005  0.3714144E+03  0.7818608E-02  0.1220397E+00
          2   -1    0    0  502    0  0.00000000000E+00  0.00000000000E+00  0.24686394975E+03  0.24686394975E+03  0.00000000000E+00 0. -1.
          1   -1    0    0  501    0 -0.00000000000E+00 -0.00000000000E+00 -0.98624210470E+03  0.98624210470E+03  0.00000000000E+00 0. -1.
         25    2    1    2    0    0 -0.36537914013E+03  0.17743467716E+03 -0.10946174695E+03  0.43885626903E+03  0.12501187993E+03 0.  0.
          2    1    1    2  501    0  0.33318731829E+03 -0.14052232043E+03 -0.64797745024E+03  0.74204790117E+03  0.00000000000E+00 0. -1.
          1    1    1    2  502    0  0.32191821839E+02 -0.36912356729E+02  0.18061042250E+02  0.52201884255E+02  0.00000000000E+00 0. -1.
         22    1    3    3    0    0 -0.24767286888E+02 -0.14374706063E+02 -0.26978250126E+02  0.39343063608E+02  0.00000000000E+00 0. -1.
         22    1    3    3    0    0 -0.34061185324E+03  0.19180938323E+03 -0.82483496829E+02  0.39951320542E+03  0.00000000000E+00 0. -1.
</event>
<event>
 7    1  0.5241284E-005  0.3908370E+03  0.7818608E-02  0.1160489E+00
          2   -1    0    0  502    0  0.00000000000E+00  0.00000000000E+00  0.18122537337E+04  0.18122537337E+04  0.00000000000E+00 0. -1.
          1   -1    0    0  501    0 -0.00000000000E+00 -0.00000000000E+00 -0.10727163615E+04  0.10727163615E+04  0.00000000000E+00 0. -1.
         25    2    1    2    0    0 -0.39864173154E+03  0.24497965981E+03  0.61189844571E+02  0.48815916634E+03  0.12499964303E+03 0.  0.
          2    1    1    2  501    0  0.87167587248E+02 -0.23227446080E+02 -0.83298925774E+03  0.83785965771E+03  0.00000000000E+00 0. -1.
          1    1    1    2  502    0  0.31147414429E+03 -0.22175221373E+03  0.15113367854E+04  0.15589512711E+04  0.00000000000E+00 0. -1.
         22    1    3    3    0    0 -0.20439400942E+02 -0.14197761578E+02 -0.34994009983E+01  0.25131481295E+02  0.00000000000E+00 0.  1.
         22    1    3    3    0    0 -0.37820233060E+03  0.25917742139E+03  0.64689245570E+02  0.46302768505E+03  0.00000000000E+00 0.  1.
</event>
<event>
 7    1  0.5018917E-005  0.1080769E+04  0.7818608E-02  0.1095912E+00
          2   -1    0    0  502    0  0.00000000000E+00  0.00000000000E+00  0.31101595611E+04  0.31101595611E+04  0.00000000000E+00 0. -1.
          1   -1    0    0  501    0 -0.00000000000E+00 -0.00000000000E+00 -0.12239140782E+04  0.12239140782E+04  0.00000000000E+00 0. -1.
         25    2    1    2    0    0 -0.10111211486E+04 -0.45344247010E+03 -0.16494628401E+03  0.11273019624E+04  0.12500554830E+03 0.  0.
          2    1    1    2  501    0  0.45213113146E+01  0.72188348699E+02 -0.46469937925E+03  0.47029470869E+03  0.00000000000E+00 0. -1.
          1    1    1    2  502    0  0.10065998373E+04  0.38125412140E+03  0.25158911462E+04  0.27364769681E+04  0.00000000000E+00 0. -1.
         22    1    3    3    0    0 -0.53815884830E+03 -0.28902763783E+03 -0.45668584987E+02  0.61256635648E+03  0.00000000000E+00 0.  1.
         22    1    3    3    0    0 -0.47296230029E+03 -0.16441483226E+03 -0.11927769902E+03  0.51473560597E+03  0.00000000000E+00 0.  1.
</event>
<event>
 7    1  0.5018917E-005  0.2284617E+03  0.7818608E-02  0.1166181E+00
          2   -1    0    0  502    0  0.00000000000E+00  0.00000000000E+00  0.26174703523E+04  0.26174703523E+04  0.00000000000E+00 0. -1.
          1   -1    0    0  501    0 -0.00000000000E+00 -0.00000000000E+00 -0.34109572302E+03  0.34109572302E+03  0.00000000000E+00 0. -1.
         25    2    1    2    0    0  0.24676986984E+03  0.26943273888E+02  0.23156477350E+04  0.23322671684E+04  0.12499761467E+03 0.  0.
          2    1    1    2  501    0 -0.20072879452E+03  0.11001278634E+03 -0.27005851296E+03  0.35401477727E+03  0.00000000000E+00 0. -1.
          1    1    1    2  502    0 -0.46041075319E+02 -0.13695606023E+03  0.23078540732E+03  0.27228412969E+03  0.00000000000E+00 0. -1.
         22    1    3    3    0    0  0.23912738885E+03 -0.46130816680E+01  0.18345151524E+04  0.18500402788E+04  0.00000000000E+00 0.  1.
         22    1    3    3    0    0  0.76424809829E+01  0.31556355556E+02  0.48113258253E+03  0.48222688961E+03  0.00000000000E+00 0.  1.
</event>
<event>
 7    1  0.5018917E-005  0.4998267E+02  0.7818608E-02  0.1528882E+00
          2   -1    0    0  502    0  0.00000000000E+00  0.00000000000E+00  0.73661018397E+03  0.73661018397E+03  0.00000000000E+00 0. -1.
          1   -1    0    0  501    0 -0.00000000000E+00 -0.00000000000E+00 -0.14043759233E+03  0.14043759233E+03  0.00000000000E+00 0. -1.
         25    2    1    2    0    0  0.74962477351E+01  0.50753604272E+02  0.23593076495E+03  0.27188052320E+03  0.12499428375E+03 0.  0.
          2    1    1    2  501    0  0.25038264963E+02 -0.12242478468E+02 -0.11953893022E+03  0.12274505623E+03  0.00000000000E+00 0. -1.
          1    1    1    2  502    0 -0.32534512698E+02 -0.38511125804E+02  0.47978075692E+03  0.48242219687E+03  0.00000000000E+00 0. -1.
         22    1    3    3    0    0 -0.51042514302E+02  0.33164901729E+02  0.17619812578E+03  0.18641627746E+03  0.00000000000E+00 0. -1.
         22    1    3    3    0    0  0.58538762037E+02  0.17588702543E+02  0.59732639161E+02  0.85464245736E+02  0.00000000000E+00 0. -1.
</event>
<event>
 7    1  0.5018917E-005  0.4623230E+03  0.7818608E-02  0.1192790E+00
          2   -1    0    0  502    0  0.00000000000E+00  0.00000000000E+00  0.46501706623E+03  0.46501706623E+03  0.00000000000E+00 0. -1.
          1   -1    0    0  501    0 -0.00000000000E+00 -0.00000000000E+00 -0.93778792647E+03  0.93778792647E+03  0.00000000000E+00 0. -1.
         25    2    1    2    0    0 -0.43660314283E+03 -0.58426481346E+02 -0.13008413087E+03  0.47600693647E+03  0.12499905763E+03 0.  0.
          2    1    1    2  501    0  0.47372047594E+03  0.20695250324E+02 -0.54225347137E+03  0.72033201368E+03  0.00000000000E+00 0. -1.
          1    1    1    2  502    0 -0.37117333109E+02  0.37731231022E+02  0.19956674200E+03  0.20646604255E+03  0.00000000000E+00 0. -1.
         22    1    3    3    0    0 -0.23718726035E+03 -0.70018009386E+01 -0.97570193098E+01  0.23749109691E+03  0.00000000000E+00 0.  1.
         22    1    3    3    0    0 -0.19941588249E+03 -0.51424680407E+02 -0.12032711156E+03  0.23851583956E+03  0.00000000000E+00 0.  1.
</event>
<event>
 7    1  0.5018917E-005  0.3393257E+03  0.7818608E-02  0.1194488E+00
          2   -1    0    0  502    0  0.00000000000E+00  0.00000000000E+00  0.90611161269E+03  0.90611161269E+03  0.00000000000E+00 0. -1.
          1   -1    0    0  501    0 -0.00000000000E+00 -0.00000000000E+00 -0.46976471164E+03  0.46976471164E+03  0.00000000000E+00 0. -1.
         25    2    1    2    0    0  0.38090748980E+03  0.16476106212E+01  0.12354722536E+03  0.41950313503E+03  0.12500293196E+03 0.  0.
          2    1    1    2  501    0 -0.55574507865E+02 -0.43832863974E+02 -0.27459892862E+03  0.28357435972E+03  0.00000000000E+00 0. -1.
          1    1    1    2  502    0 -0.32533298194E+03  0.42185253353E+02  0.58739860431E+03  0.67279882957E+03  0.00000000000E+00 0. -1.
         22    1    3    3    0    0  0.24939211742E+02 -0.31773271112E+02  0.28862694277E+02  0.49644336640E+02  0.00000000000E+00 0. -1.
         22    1    3    3    0    0  0.35596827806E+03  0.33420881734E+02  0.94684531086E+02  0.36985879839E+03  0.00000000000E+00 0. -1.
</event>
<event>
 7    1  0.5018917E-005  0.1102739E+03  0.7818608E-02  0.1350484E+00
          2   -1    0    0  502    0  0.00000000000E+00  0.00000000000E+00  0.93422509009E+03  0.93422509009E+03  0.00000000000E+00 0. -1.
          1   -1    0    0  501    0 -0.00000000000E+00 -0.00000000000E+00 -0.31380134323E+03  0.31380134323E+03  0.00000000000E+00 0. -1.
         25    2    1    2    0    0  0.68113257661E+02 -0.72979770700E+02 -0.99953461637E+01  0.16028226893E+03  0.12500014395E+03 0.  0.
          2    1    1    2  501    0 -0.35034700086E+02 -0.33102301463E+02 -0.22247779962E+03  0.22763910889E+03  0.00000000000E+00 0. -1.
          1    1    1    2  502    0 -0.33078557575E+02  0.10608207216E+03  0.85289689265E+03  0.86010505550E+03  0.00000000000E+00 0. -1.
         22    1    3    3    0    0  0.10266867411E+02 -0.67681712717E+02  0.43669511564E+02  0.81198824148E+02  0.00000000000E+00 0.  1.
         22    1    3    3    0    0  0.57846390250E+02 -0.52980579834E+01 -0.53664857728E+02  0.79083444780E+02  0.00000000000E+00 0.  1.
</event>
<event>
 7    1  0.5018917E-005  0.2747421E+03  0.7818608E-02  0.1276611E+00
          2   -1    0    0  502    0  0.00000000000E+00  0.00000000000E+00  0.14527788880E+04  0.14527788880E+04  0.00000000000E+00 0. -1.
          1   -1    0    0  501    0 -0.00000000000E+00 -0.00000000000E+00 -0.11873220098E+04  0.11873220098E+04  0.00000000000E+00 0. -1.
         25    2    1    2    0    0  0.30177653726E+03 -0.62738485962E+01 -0.21185984313E+02  0.32738853238E+03  0.12500386228E+03 0.  0.
          2    1    1    2  501    0 -0.29706228025E+02  0.23212573584E+02 -0.99838129705E+03  0.99909283746E+03  0.00000000000E+00 0. -1.
          1    1    1    2  502    0 -0.27207030923E+03 -0.16938724987E+02  0.12850241596E+04  0.13136195280E+04  0.00000000000E+00 0. -1.
         22    1    3    3    0    0  0.26843075931E+03  0.36936922850E+02 -0.72539103323E+01  0.27105724124E+03  0.00000000000E+00 0. -1.
         22    1    3    3    0    0  0.33345777948E+02 -0.43210771446E+02 -0.13932073980E+02  0.56331291138E+02  0.00000000000E+00 0. -1.
</event>
<event>
 7    1  0.5018917E-005  0.2275444E+03  0.7818608E-02  0.1284918E+00
          2   -1    0    0  502    0  0.00000000000E+00  0.00000000000E+00  0.30804963972E+04  0.30804963972E+04  0.00000000000E+00 0. -1.
          1   -1    0    0  501    0 -0.00000000000E+00 -0.00000000000E+00 -0.30947354529E+03  0.30947354529E+03  0.00000000000E+00 0. -1.
         25    2    1    2    0    0  0.21284529795E+03  0.74115782274E+02  0.28992673343E+04  0.29106996889E+04  0.12500133325E+03 0.  0.
          2    1    1    2  501    0  0.41840912713E+02  0.43302232576E+01 -0.19911854235E+03  0.20351316105E+03  0.00000000000E+00 0. -1.
          1    1    1    2  502    0 -0.25468621066E+03 -0.78446005532E+02  0.70874059924E+02  0.27575709248E+03  0.00000000000E+00 0. -1.
         22    1    3    3    0    0  0.22512318469E+03  0.50199593729E+02  0.25609150178E+04  0.25712810379E+04  0.00000000000E+00 0.  1.
         22    1    3    3    0    0 -0.12277886746E+02  0.23916188545E+02  0.33835231647E+03  0.33941865099E+03  0.00000000000E+00 0.  1.
</event>
<event>
 7    1  0.5018917E-005  0.2117778E+03  0.7818608E-02  0.1241373E+00
          2   -1    0    0  502    0  0.00000000000E+00  0.00000000000E+00  0.10557524460E+04  0.10557524460E+04  0.00000000000E+00 0. -1.
          1   -1    0    0  501    0 -0.00000000000E+00 -0.00000000000E+00 -0.32251233694E+03  0.32251233694E+03  0.00000000000E+00 0. -1.
         25    2    1    2    0    0  0.23498099467E+02  0.21573000357E+03 -0.86473736086E+02  0.26494217739E+03  0.12500022084E+03 0.  0.
          2    1    1    2  501    0 -0.88838092070E+02 -0.19296468215E+03 -0.67896788686E+02  0.22301916750E+03  0.00000000000E+00 0. -1.
          1    1    1    2  502    0  0.65339992603E+02 -0.22765321421E+02  0.88761063383E+03  0.89030343803E+03  0.00000000000E+00 0. -1.
         22    1    3    3    0    0  0.55118864023E+02  0.11442011384E+03  0.16198839781E+01  0.12701447023E+03  0.00000000000E+00 0. -1.
         22    1    3    3    0    0 -0.31620764556E+02  0.10130988973E+03 -0.88093620064E+02  0.13792770717E+03  0.00000000000E+00 0. -1.
</event>
<event>
 7    1  0.5018917E-005  0.5001011E+03  0.7818608E-02  0.1240930E+00
          2   -1    0    0  502    0  0.00000000000E+00  0.00000000000E+00  0.41733798390E+03  0.41733798390E+03  0.00000000000E+00 0. -1.
          1   -1    0    0  501    0 -0.00000000000E+00 -0.00000000000E+00 -0.13117052321E+04  0.13117052321E+04  0.00000000000E+00 0. -1.
         25    2    1    2    0    0 -0.34038139423E+03 -0.34800657343E+03 -0.47594738251E+03  0.69218435121E+03  0.12500078577E+03 0.  0.
          2    1    1    2  501    0 -0.29171223746E+02  0.39142067360E+01 -0.52080757602E+03  0.52163858422E+03  0.00000000000E+00 0. -1.
          1    1    1    2  502    0  0.36955261798E+03  0.34409236670E+03  0.10238771034E+03  0.51522028056E+03  0.00000000000E+00 0. -1.
         22    1    3    3    0    0 -0.12728053706E+03 -0.12213056877E+03 -0.93842860870E+02  0.19980664023E+03  0.00000000000E+00 0. -1.
         22    1    3    3    0    0 -0.21310085717E+03 -0.22587600467E+03 -0.38210452164E+03  0.49237771098E+03  0.00000000000E+00 0. -1.
</event>
<event>
 7    1  0.8567083E-005  0.1572519E+04  0.7818608E-02  0.1090202E+00
          2   -1    0    0  502    0  0.00000000000E+00  0.00000000000E+00  0.35227990094E+04  0.35227990094E+04  0.00000000000E+00 0. -1.
          1   -1    0    0  501    0 -0.00000000000E+00 -0.00000000000E+00 -0.13797148478E+04  0.13797148478E+04  0.00000000000E+00 0. -1.
         25    2    1    2    0    0 -0.10706037443E+04 -0.11149113732E+04  0.46183245451E+03  0.16180657351E+04  0.12501103745E+03 0.  0.
          2    1    1    2  501    0  0.10848051153E+04  0.11665802531E+04 -0.93005872792E+01  0.15930468060E+04  0.00000000000E+00 0. -1.
          1    1    1    2  502    0 -0.14201371068E+02 -0.51668879877E+02  0.16905522944E+04  0.16914013161E+04  0.00000000000E+00 0. -1.
         22    1    3    3    0    0 -0.23633094722E+03 -0.20044841374E+03  0.52543569933E+02  0.31431307629E+03  0.00000000000E+00 0. -1.
         22    1    3    3    0    0 -0.83427279706E+03 -0.91446295949E+03  0.40928888457E+03  0.13037526588E+04  0.00000000000E+00 0. -1.
</event>
<event>
 7    1  0.5018917E-005  0.9027090E+03  0.7818608E-02  0.1109228E+00
          2   -1    0    0  502    0  0.00000000000E+00  0.00000000000E+00  0.30106858604E+04  0.30106858604E+04  0.00000000000E+00 0. -1.
          1   -1    0    0  501    0 -0.00000000000E+00 -0.00000000000E+00 -0.19122717352E+04  0.19122717352E+04  0.00000000000E+00 0. -1.
         25    2    1    2    0    0  0.66507554032E+03 -0.53799639655E+03  0.83552402903E+03  0.12022862591E+04  0.12500499433E+03 0.  0.
          2    1    1    2  501    0 -0.67263952609E+03  0.61052031882E+03 -0.16088096642E+04  0.18475517658E+04  0.00000000000E+00 0. -1.
          1    1    1    2  502    0  0.75639857714E+01 -0.72523922269E+02  0.18716997604E+04  0.18731195707E+04  0.00000000000E+00 0. -1.
         22    1    3    3    0    0  0.14141433944E+03 -0.15810888527E+03  0.15071239699E+03  0.26021272376E+03  0.00000000000E+00 0.  1.
         22    1    3    3    0    0  0.52366120088E+03 -0.37988751127E+03  0.68481163204E+03  0.94207353530E+03  0.00000000000E+00 0.  1.
</event>
<event>
 7    1  0.5018917E-005  0.1338395E+03  0.7818608E-02  0.1299063E+00
          2   -1    0    0  502    0  0.00000000000E+00  0.00000000000E+00  0.96644580295E+03  0.96644580295E+03  0.00000000000E+00 0. -1.
          1   -1    0    0  501    0 -0.00000000000E+00 -0.00000000000E+00 -0.41156370360E+02  0.41156370360E+02  0.00000000000E+00 0. -1.
         25    2    1    2    0    0 -0.13562656772E+03 -0.72901444480E+02  0.58203388785E+03  0.61489669988E+03  0.12500127376E+03 0.  0.
          2    1    1    2  501    0  0.58590346151E+02 -0.22235337230E+02  0.74286641875E+02  0.97189217740E+02  0.00000000000E+00 0. -1.
          1    1    1    2  502    0  0.77036221567E+02  0.95136781710E+02  0.26896890287E+03  0.29551625569E+03  0.00000000000E+00 0. -1.
         22    1    3    3    0    0 -0.11140177650E+03 -0.30375550004E+01  0.44971983545E+03  0.46332225604E+03  0.00000000000E+00 0.  1.
         22    1    3    3    0    0 -0.24224791219E+02 -0.69863889480E+02  0.13231405240E+03  0.15157444384E+03  0.00000000000E+00 0.  1.
</event>
<event>
 7    1  0.5319426E-005  0.1456186E+04  0.7818608E-02  0.1111478E+00
          2   -1    0    0  502    0  0.00000000000E+00  0.00000000000E+00  0.19547053219E+04  0.19547053219E+04  0.00000000000E+00 0. -1.
          1   -1    0    0  501    0 -0.00000000000E+00 -0.00000000000E+00 -0.27765620292E+04  0.27765620292E+04  0.00000000000E+00 0. -1.
         25    2    1    2    0    0  0.14979702877E+03  0.14426898642E+04 -0.83545453568E+03  0.16785119363E+04  0.12499937988E+03 0.  0.
          2    1    1    2  501    0 -0.10834745277E+03 -0.14572310778E+04 -0.11677845450E+04  0.18705566893E+04  0.00000000000E+00 0. -1.
          1    1    1    2  502    0 -0.41449576000E+02  0.14541213556E+02  0.11813823734E+04  0.11821987254E+04  0.00000000000E+00 0. -1.
         22    1    3    3    0    0  0.87347105487E+02  0.11305558763E+04 -0.69988130716E+03  0.13325239023E+04  0.00000000000E+00 0. -1.
         22    1    3    3    0    0  0.62449923282E+02  0.31213398794E+03 -0.13557322852E+03  0.34598803395E+03  0.00000000000E+00 0. -1.
</event>
<event>
 7    1  0.5018917E-005  0.1619779E+04  0.7818608E-02  0.1112620E+00
          2   -1    0    0  502    0  0.00000000000E+00  0.00000000000E+00  0.20504759402E+04  0.20504759402E+04  0.00000000000E+00 0. -1.
          1   -1    0    0  501    0 -0.00000000000E+00 -0.00000000000E+00 -0.20745386679E+04  0.20745386679E+04  0.00000000000E+00 0. -1.
         25    2    1    2    0    0 -0.16176941108E+04 -0.25492682220E+02  0.99221607313E+03  0.19020256567E+04  0.12499900000E+03 0.  0.
          2    1    1    2  501    0 -0.56798967923E+01 -0.38505002173E+02 -0.52395135349E+03  0.52539501068E+03  0.00000000000E+00 0. -1.
          1    1    1    2  502    0  0.16233740076E+04  0.63997684393E+02 -0.49232744737E+03  0.16975939407E+04  0.00000000000E+00 0. -1.
         22    1    3    3    0    0 -0.12157397438E+04  0.24911338722E+02  0.78056348034E+03  0.14449647214E+04  0.00000000000E+00 0.  1.
         22    1    3    3    0    0 -0.40195436702E+03 -0.50404020942E+02  0.21165259279E+03  0.45706093525E+03  0.00000000000E+00 0.  1.
</event>
<event>
 7    1  0.5018917E-005  0.1785977E+03  0.7818608E-02  0.1344306E+00
          2   -1    0    0  502    0  0.00000000000E+00  0.00000000000E+00  0.13600220406E+04  0.13600220406E+04  0.00000000000E+00 0. -1.
          1   -1    0    0  501    0 -0.00000000000E+00 -0.00000000000E+00 -0.44682977368E+03  0.44682977368E+03  0.00000000000E+00 0. -1.
         25    2    1    2    0    0 -0.18283646548E+03  0.17365609190E+01 -0.23050364518E+03  0.31967169743E+03  0.12500349972E+03 0.  0.
          2    1    1    2  501    0  0.17334973795E+03  0.28172667877E+02 -0.12659918979E+03  0.21649754206E+03  0.00000000000E+00 0. -1.
          1    1    1    2  502    0  0.94867275319E+01 -0.29909228796E+02  0.12702951019E+04  0.12706825748E+04  0.00000000000E+00 0. -1.
         22    1    3    3    0    0 -0.63522451805E+02 -0.28934560157E+02 -0.14930512265E+02  0.71380885756E+02  0.00000000000E+00 0.  1.
         22    1    3    3    0    0 -0.11931401368E+03  0.30671121076E+02 -0.21557313291E+03  0.24829081167E+03  0.00000000000E+00 0.  1.
</event>
<event>
 7    1  0.5018917E-005  0.1934134E+03  0.7818608E-02  0.1199047E+00
          2   -1    0    0  502    0  0.00000000000E+00  0.00000000000E+00  0.52116229102E+03  0.52116229102E+03  0.00000000000E+00 0. -1.
          1   -1    0    0  501    0 -0.00000000000E+00 -0.00000000000E+00 -0.88012390917E+03  0.88012390917E+03  0.00000000000E+00 0. -1.
         25    2    1    2    0    0 -0.11644452569E+03 -0.26248458902E+03 -0.96704020540E+02  0.32777123376E+03  0.12499930821E+03 0.  0.
          2    1    1    2  501    0  0.30618509273E+02  0.18128881783E+03 -0.64617859243E+03  0.67182579728E+03  0.00000000000E+00 0. -1.
          1    1    1    2  502    0  0.85826016420E+02  0.81195771195E+02  0.38392099482E+03  0.40168916915E+03  0.00000000000E+00 0. -1.
         22    1    3    3    0    0 -0.19023525862E+02 -0.13140487740E+03 -0.97034258092E+02  0.16445298290E+03  0.00000000000E+00 0. -1.
         22    1    3    3    0    0 -0.97420999831E+02 -0.13107971163E+03  0.33023755263E+00  0.16331825086E+03  0.00000000000E+00 0. -1.
</event>
<event>
 7    1  0.5018917E-005  0.5726315E+03  0.7818608E-02  0.1198615E+00
          2   -1    0    0  502    0  0.00000000000E+00  0.00000000000E+00  0.25995050162E+04  0.25995050162E+04  0.00000000000E+00 0. -1.
          1   -1    0    0  501    0 -0.00000000000E+00 -0.00000000000E+00 -0.10243282615E+04  0.10243282615E+04  0.00000000000E+00 0. -1.
         25    2    1    2    0    0 -0.38295223256E+03 -0.37438149238E+03 -0.52818523717E+03  0.76250799371E+03  0.12499952573E+03 0.  0.
          2    1    1    2  501    0 -0.21080932203E+02 -0.34104473368E+02 -0.34455847592E+03  0.34688335811E+03  0.00000000000E+00 0. -1.
          1    1    1    2  502    0  0.40403316476E+03  0.40848596575E+03  0.24479204677E+04  0.25144419259E+04  0.00000000000E+00 0. -1.
         22    1    3    3    0    0 -0.11607426127E+03 -0.43534436706E+02 -0.13804015391E+03  0.18553588710E+03  0.00000000000E+00 0.  1.
         22    1    3    3    0    0 -0.26687797129E+03 -0.33084705568E+03 -0.39014508326E+03  0.57697210661E+03  0.00000000000E+00 0.  1.
</event>
<event>
 7    1  0.5018917E-005  0.5159010E+03  0.7818608E-02  0.1039291E+00
          2   -1    0    0  502    0  0.00000000000E+00  0.00000000000E+00  0.15121426366E+04  0.15121426366E+04  0.00000000000E+00 0. -1.
          1   -1    0    0  501    0 -0.00000000000E+00 -0.00000000000E+00 -0.97271672496E+03  0.97271672496E+03  0.00000000000E+00 0. -1.
         25    2    1    2    0    0 -0.69430834072E+03 -0.38280692029E+03  0.79706942139E+03  0.11311717983E+04  0.12499905824E+03 0.  0.
          2    1    1    2  501    0  0.36754719448E+03  0.33002416549E+03 -0.66526422598E+03  0.82860327078E+03  0.00000000000E+00 0. -1.
          1    1    1    2  502    0  0.32676114624E+03  0.52782754806E+02  0.40762071624E+03  0.52508429248E+03  0.00000000000E+00 0. -1.
         22    1    3    3    0    0 -0.50094730561E+03 -0.22625231596E+03  0.49373794634E+03  0.73886092949E+03  0.00000000000E+00 0. -1.
         22    1    3    3    0    0 -0.19336103511E+03 -0.15655460433E+03  0.30333147505E+03  0.39231086882E+03  0.00000000000E+00 0. -1.
</event>
<event>
 7    1  0.5018917E-005  0.2319113E+03  0.7818608E-02  0.1266390E+00
          2   -1    0    0  502    0  0.00000000000E+00  0.00000000000E+00  0.84974040442E+03  0.84974040442E+03  0.00000000000E+00 0. -1.
          1   -1    0    0  501    0 -0.00000000000E+00 -0.00000000000E+00 -0.22360480577E+03  0.22360480577E+03  0.00000000000E+00 0. -1.
         25    2    1    2    0    0  0.18778281768E+03 -0.19043837861E+03  0.39054995690E+03  0.48957458872E+03  0.12499938570E+03 0.  0.
          2    1    1    2  501    0 -0.14024768296E+03  0.17740167347E+03 -0.98071050724E+02  0.24649279364E+03  0.00000000000E+00 0. -1.
          1    1    1    2  502    0 -0.47535134718E+02  0.13036705137E+02  0.33365669247E+03  0.33727782782E+03  0.00000000000E+00 0. -1.
         22    1    3    3    0    0  0.13842197282E+02 -0.33524266912E+02  0.14795722697E+03  0.15233786105E+03  0.00000000000E+00 0.  1.
         22    1    3    3    0    0  0.17394062040E+03 -0.15691411170E+03  0.24259272993E+03  0.33723672767E+03  0.00000000000E+00 0.  1.
</event>
<event>
 7    1  0.5018917E-005  0.1251088E+04  0.7818608E-02  0.1100603E+00
          2   -1    0    0  502    0  0.00000000000E+00  0.00000000000E+00  0.29212362527E+04  0.29212362527E+04  0.00000000000E+00 0. -1.
          1   -1    0    0  501    0 -0.00000000000E+00 -0.00000000000E+00 -0.15766329798E+04  0.15766329798E+04  0.00000000000E+00 0. -1.
         25    2    1    2    0    0  0.77370556767E+03  0.96889060269E+03  0.33307333250E+03  0.12899348915E+04  0.12499949602E+03 0.  0.
          2    1    1    2  501    0 -0.73885394606E+03 -0.10162267755E+04 -0.73818199217E+03  0.14572352818E+04  0.00000000000E+00 0. -1.
          1    1    1    2  502    0 -0.34851621608E+02  0.47336172858E+02  0.17497119326E+04  0.17506990592E+04  0.00000000000E+00 0. -1.
         22    1    3    3    0    0  0.21397853566E+03  0.20419678758E+03  0.43045101469E+02  0.29889132229E+03  0.00000000000E+00 0.  1.
         22    1    3    3    0    0  0.55972703201E+03  0.76469381511E+03  0.29002823103E+03  0.99104356919E+03  0.00000000000E+00 0.  1.
</event>
<event>
 7    1  0.5018917E-005  0.5073224E+02  0.7818608E-02  0.1448373E+00
          2   -1    0    0  502    0  0.00000000000E+00  0.00000000000E+00  0.12423924189E+03  0.12423924189E+03  0.00000000000E+00 0. -1.
          1   -1    0    0  501    0 -0.00000000000E+00 -0.00000000000E+00 -0.17922674267E+04  0.17922674267E+04  0.00000000000E+00 0. -1.
         25    2    1    2    0    0  0.43960387305E+02 -0.26923283445E+02 -0.37144781157E+03  0.39529356789E+03  0.12500459694E+03 0.  0.
          2    1    1    2  501    0 -0.41731542368E+02 -0.24089177201E+02 -0.14026582438E+04  0.14034856462E+04  0.00000000000E+00 0. -1.
          1    1    1    2  502    0 -0.22288449367E+01  0.51012460647E+02  0.10607787064E+03  0.11772745445E+03  0.00000000000E+00 0. -1.
         22    1    3    3    0    0 -0.30327740495E+02 -0.43397965183E+02 -0.21357415673E+03  0.22003880487E+03  0.00000000000E+00 0. -1.
         22    1    3    3    0    0  0.74288127800E+02  0.16474681738E+02 -0.15787365484E+03  0.17525476303E+03  0.00000000000E+00 0. -1.
</event>
<event>
 7    1  0.5018917E-005  0.2335120E+03  0.7818608E-02  0.1292519E+00
          2   -1    0    0  502    0  0.00000000000E+00  0.00000000000E+00  0.13160094899E+04  0.13160094899E+04  0.00000000000E+00 0. -1.
          1   -1    0    0  501    0 -0.00000000000E+00 -0.00000000000E+00 -0.75319133595E+03  0.75319133595E+03  0.00000000000E+00 0. -1.
         25    2    1    2    0    0 -0.22047466188E+03 -0.15377853164E+03  0.25290381383E+03  0.38967069796E+03  0.12500400183E+03 0.  0.
          2    1    1    2  501    0  0.18573901126E+03  0.13796179182E+03 -0.66488090710E+03  0.70398796647E+03  0.00000000000E+00 0. -1.
          1    1    1    2  502    0  0.34735650622E+02  0.15816739813E+02  0.97479524725E+03  0.97554216144E+03  0.00000000000E+00 0. -1.
         22    1    3    3    0    0 -0.10601787016E+03 -0.13486157627E+03  0.10289429204E+03  0.20003666885E+03  0.00000000000E+00 0.  1.
         22    1    3    3    0    0 -0.11445679172E+03 -0.18916955365E+02  0.15000952179E+03  0.18963402911E+03  0.00000000000E+00 0.  1.
</event>
<event>
 7    1  0.5018917E-005  0.7210076E+03  0.7818608E-02  0.1207127E+00
          2   -1    0    0  502    0  0.00000000000E+00  0.00000000000E+00  0.67612894716E+03  0.67612894716E+03  0.00000000000E+00 0. -1.
          1   -1    0    0  501    0 -0.00000000000E+00 -0.00000000000E+00 -0.12194240915E+04  0.12194240915E+04  0.00000000000E+00 0. -1.
         25    2    1    2    0    0  0.20105494558E+03 -0.67326435389E+03 -0.51725920130E+03  0.88141321981E+03  0.12499680546E+03 0.  0.
          2    1    1    2  501    0 -0.63916076897E+01 -0.28332295577E+02 -0.25053555861E+03  0.25221347654E+03  0.00000000000E+00 0. -1.
          1    1    1    2  502    0 -0.19466333789E+03  0.70159664946E+03  0.22449961560E+03  0.76192634228E+03  0.00000000000E+00 0. -1.
         22    1    3    3    0    0  0.79628935301E+02 -0.14528029182E+03 -0.17293367731E+03  0.23948525482E+03  0.00000000000E+00 0. -1.
         22    1    3    3    0    0  0.12142601028E+03 -0.52798406207E+03 -0.34432552399E+03  0.64192796500E+03  0.00000000000E+00 0. -1.
</event>
<event>
 7    1  0.5018917E-005  0.8501604E+02  0.7818608E-02  0.1447166E+00
          2   -1    0    0  502    0  0.00000000000E+00  0.00000000000E+00  0.15485916325E+04  0.15485916325E+04  0.00000000000E+00 0. -1.
          1   -1    0    0  501    0 -0.00000000000E+00 -0.00000000000E+00 -0.33668405214E+03  0.33668405214E+03  0.00000000000E+00 0. -1.
         25    2    1    2    0    0  0.80199616452E+02 -0.16017516786E+02  0.84599279689E+02  0.17165063117E+03  0.12497344412E+03 0.  0.
          2    1    1    2  501    0 -0.84451734027E+02 -0.12680677914E+02 -0.28678718963E+03  0.29923199546E+03  0.00000000000E+00 0. -1.
          1    1    1    2  502    0  0.42521175748E+01  0.28698194700E+02  0.14140954903E+04  0.14143930580E+04  0.00000000000E+00 0. -1.
         22    1    3    3    0    0 -0.23789151415E+02 -0.25344626289E+02  0.51481493404E+02  0.62117774991E+02  0.00000000000E+00 0.  1.
         22    1    3    3    0    0  0.10398876787E+03  0.93271095027E+01  0.33117786285E+02  0.10953285618E+03  0.00000000000E+00 0.  1.
</event>
<event>
 7    1  0.5018917E-005  0.4827413E+03  0.7818608E-02  0.1171331E+00
          2   -1    0    0  502    0  0.00000000000E+00  0.00000000000E+00  0.11802925250E+04  0.11802925250E+04  0.00000000000E+00 0. -1.
          1   -1    0    0  501    0 -0.00000000000E+00 -0.00000000000E+00 -0.30862958479E+03  0.30862958479E+03  0.00000000000E+00 0. -1.
         25    2    1    2    0    0  0.17993739738E+03  0.48603539245E+03  0.50332018074E+03  0.73318725876E+03  0.12499792953E+03 0.  0.
          2    1    1    2  501    0 -0.25006035318E+02 -0.59412638541E+02 -0.89988424552E+02  0.11069363114E+03  0.00000000000E+00 0. -1.
          1    1    1    2  502    0 -0.15493136206E+03 -0.42662275391E+03  0.45833118404E+03  0.64504121990E+03  0.00000000000E+00 0. -1.
         22    1    3    3    0    0  0.11487042971E+03  0.42140372715E+03  0.44992966665E+03  0.62706699946E+03  0.00000000000E+00 0. -1.
         22    1    3    3    0    0  0.65066967664E+02  0.64631665301E+02  0.53390514086E+02  0.10612025930E+03  0.00000000000E+00 0. -1.
</event>
<event>
 7    1  0.5018917E-005  0.5064790E+03  0.7818608E-02  0.1045121E+00
          2   -1    0    0  502    0  0.00000000000E+00  0.00000000000E+00  0.41918092970E+03  0.41918092970E+03  0.00000000000E+00 0. -1.
          1   -1    0    0  501    0 -0.00000000000E+00 -0.00000000000E+00 -0.16162631714E+04  0.16162631714E+04  0.00000000000E+00 0. -1.
         25    2    1    2    0    0  0.74541856624E+03 -0.28923756411E+02 -0.73805950017E+03  0.10568079384E+04  0.12500308141E+03 0.  0.
          2    1    1    2  501    0 -0.30669496442E+03 -0.44124483801E+02 -0.43388228359E+03  0.53316283374E+03  0.00000000000E+00 0. -1.
          1    1    1    2  502    0 -0.43872360182E+03  0.73048240212E+02 -0.25140457976E+02  0.44547332897E+03  0.00000000000E+00 0. -1.
         22    1    3    3    0    0  0.15424298816E+03  0.37837145768E+02 -0.12101531237E+03  0.19966786127E+03  0.00000000000E+00 0. -1.
         22    1    3    3    0    0  0.59117557807E+03 -0.66760902179E+02 -0.61704418780E+03  0.85714007716E+03  0.00000000000E+00 0. -1.
</event>
<event>
 7    1  0.5018917E-005  0.8195675E+03  0.7818608E-02  0.1044663E+00
          2   -1    0    0  502    0  0.00000000000E+00  0.00000000000E+00  0.16739544627E+04  0.16739544627E+04  0.00000000000E+00 0. -1.
          1   -1    0    0  501    0 -0.00000000000E+00 -0.00000000000E+00 -0.12830910781E+04  0.12830910781E+04  0.00000000000E+00 0. -1.
         25    2    1    2    0    0  0.72871821461E+03 -0.35760103346E+03  0.15891126939E+03  0.83653240923E+03  0.12499977882E+03 0.  0.
          2    1    1    2  501    0 -0.80825826233E+03  0.18202531011E+03 -0.75137538949E+03  0.11184719970E+04  0.00000000000E+00 0. -1.
          1    1    1    2  502    0  0.79540047717E+02  0.17557572335E+03  0.98332750470E+03  0.10020411345E+04  0.00000000000E+00 0. -1.
         22    1    3    3    0    0  0.71657869239E+03 -0.36778841271E+03  0.15585278115E+03  0.82039224051E+03  0.00000000000E+00 0.  1.
         22    1    3    3    0    0  0.12139522227E+02  0.10187379244E+02  0.30584882333E+01  0.16140168712E+02  0.00000000000E+00 0.  1.
</event>
<event>
 7    1  0.5018917E-005  0.2074057E+03  0.7818608E-02  0.1193691E+00
          2   -1    0    0  502    0  0.00000000000E+00  0.00000000000E+00  0.11539629089E+04  0.11539629089E+04  0.00000000000E+00 0. -1.
          1   -1    0    0  501    0 -0.00000000000E+00 -0.00000000000E+00 -0.24565436300E+03  0.24565436300E+03  0.00000000000E+00 0. -1.
         25    2    1    2    0    0 -0.26896528824E+03 -0.15840089659E+03  0.42997766195E+03  0.54584022931E+03  0.12501038292E+03 0.  0.
          2    1    1    2  501    0  0.16327408694E+03  0.10864499110E+03 -0.12937394939E+03  0.23494633502E+03  0.00000000000E+00 0. -1.
          1    1    1    2  502    0  0.10569120130E+03  0.49755905489E+02  0.60770483337E+03  0.61883070760E+03  0.00000000000E+00 0. -1.
         22    1    3    3    0    0 -0.10478639415E+03 -0.13331120877E+03  0.20097022394E+03  0.26294694844E+03  0.00000000000E+00 0.  1.
         22    1    3    3    0    0 -0.16417889409E+03 -0.25089687824E+02  0.22900743801E+03  0.28289328087E+03  0.00000000000E+00 0.  1.
</event>
<event>
 7    1  0.5018917E-005  0.2007836E+03  0.7818608E-02  0.1194892E+00
          2   -1    0    0  502    0  0.00000000000E+00  0.00000000000E+00  0.13076590776E+04  0.13076590776E+04  0.00000000000E+00 0. -1.
          1   -1    0    0  501    0 -0.00000000000E+00 -0.00000000000E+00 -0.96109743392E+02  0.96109743392E+02  0.00000000000E+00 0. -1.
         25    2    1    2    0    0  0.60863304729E+02 -0.28268942774E+03  0.37881098010E+03  0.49268648345E+03  0.12499823162E+03 0.  0.
          2    1    1    2  501    0 -0.67067151419E+02  0.98410825947E+02  0.10001983179E+03  0.15552061026E+03  0.00000000000E+00 0. -1.
          1    1    1    2  502    0  0.62038466894E+01  0.18427860180E+03  0.73271852231E+03  0.75556172728E+03  0.00000000000E+00 0. -1.
         22    1    3    3    0    0  0.65201580193E+02 -0.22246220826E+03  0.20777893719E+03  0.31130815425E+03  0.00000000000E+00 0.  1.
         22    1    3    3    0    0 -0.43382754642E+01 -0.60227219486E+02  0.17103204291E+03  0.18137832920E+03  0.00000000000E+00 0.  1.
</event>
<event>
 7    1  0.5018917E-005  0.2661472E+03  0.7818608E-02  0.1259607E+00
          2   -1    0    0  502    0  0.00000000000E+00  0.00000000000E+00  0.99574734507E+03  0.99574734507E+03  0.00000000000E+00 0. -1.
          1   -1    0    0  501    0 -0.00000000000E+00 -0.00000000000E+00 -0.65233807380E+03  0.65233807380E+03  0.00000000000E+00 0. -1.
         25    2    1    2    0    0 -0.63210238929E+02  0.27452532375E+03  0.72636147060E+03  0.78904088575E+03  0.12499938295E+03 0.  0.
          2    1    1    2  501    0  0.18921965704E+02 -0.41813683947E+02 -0.56089398095E+03  0.56276858727E+03  0.00000000000E+00 0. -1.
          1    1    1    2  502    0  0.44288273225E+02 -0.23271163980E+03  0.17794178162E+03  0.29627594585E+03  0.00000000000E+00 0. -1.
         22    1    3    3    0    0 -0.84765854627E+00  0.72836050404E+02  0.75985024746E+02  0.10525935944E+03  0.00000000000E+00 0. -1.
         22    1    3    3    0    0 -0.62362580383E+02  0.20168927334E+03  0.65037644585E+03  0.68378152631E+03  0.00000000000E+00 0. -1.
</event>
<event>
 7    1  0.5018917E-005  0.2603823E+03  0.7818608E-02  0.1240450E+00
          2   -1    0    0  502    0  0.00000000000E+00  0.00000000000E+00  0.15339674164E+04  0.15339674164E+04  0.00000000000E+00 0. -1.
          1   -1    0    0  501    0 -0.00000000000E+00 -0.00000000000E+00 -0.60905855911E+03  0.60905855911E+03  0.00000000000E+00 0. -1.
         25    2    1    2    0    0 -0.22767186824E+03  0.36657455858E+02  0.26445910866E+03  0.37248003760E+03  0.12499803838E+03 0.  0.
          2    1    1    2  501    0  0.26357809904E+03  0.73611964723E+01 -0.52301231114E+03  0.58572133230E+03  0.00000000000E+00 0. -1.
          1    1    1    2  502    0 -0.35906230801E+02 -0.44018652331E+02  0.11834620598E+04  0.11848246056E+04  0.00000000000E+00 0. -1.
         22    1    3    3    0    0 -0.14598674008E+03 -0.36812644569E+02  0.17459091055E+03  0.23054128725E+03  0.00000000000E+00 0. -1.
         22    1    3    3    0    0 -0.81685128155E+02  0.73470100427E+02  0.89868198102E+02  0.14193875034E+03  0.00000000000E+00 0. -1.
</event>
<event>
 7    1  0.5018917E-005  0.1375208E+04  0.7818608E-02  0.1016915E+00
          2   -1    0    0  502    0  0.00000000000E+00  0.00000000000E+00  0.19035553151E+04  0.19035553151E+04  0.00000000000E+00 0. -1.
          1   -1    0    0  501    0 -0.00000000000E+00 -0.00000000000E+00 -0.20129594919E+04  0.20129594919E+04  0.00000000000E+00 0. -1.
         25    2    1    2    0    0 -0.88342522025E+03  0.10900027734E+04 -0.31475181470E+03  0.14433433392E+04  0.12500049757E+03 0.  0.
          2    1    1    2  501    0  0.97751966737E+03 -0.94448737537E+03 -0.71555591787E+03  0.15361059123E+04  0.00000000000E+00 0. -1.
          1    1    1    2  502    0 -0.94094447115E+02 -0.14551539799E+03  0.92090355578E+03  0.93706555538E+03  0.00000000000E+00 0. -1.
         22    1    3    3    0    0 -0.28356432546E+03  0.26230369855E+03 -0.78147386181E+02  0.39410527898E+03  0.00000000000E+00 0. -1.
         22    1    3    3    0    0 -0.59986089479E+03  0.82769907481E+03 -0.23660442852E+03  0.10492380603E+04  0.00000000000E+00 0. -1.
</event>
<event>
 7    1  0.5018917E-005  0.1274038E+03  0.7818608E-02  0.1313866E+00
          2   -1    0    0  502    0  0.00000000000E+00  0.00000000000E+00  0.68907189394E+03  0.68907189394E+03  0.00000000000E+00 0. -1.
          1   -1    0    0  501    0 -0.00000000000E+00 -0.00000000000E+00 -0.76954055340E+02  0.76954055340E+02  0.00000000000E+00 0. -1.
         25    2    1    2    0    0  0.86207668053E+02  0.23854449873E+02  0.43549487345E+03  0.46182497766E+03  0.12500291350E+03 0.  0.
          2    1    1    2  501    0 -0.11149765609E+03 -0.75511273972E+02  0.18479598873E+02  0.13592341735E+03  0.00000000000E+00 0. -1.
          1    1    1    2  502    0  0.25289988037E+02  0.51656824099E+02  0.15814336628E+03  0.16827755426E+03  0.00000000000E+00 0. -1.
         22    1    3    3    0    0  0.11804555113E+02  0.54516648128E+02  0.29222801544E+03  0.29750399233E+03  0.00000000000E+00 0.  1.
         22    1    3    3    0    0  0.74403112940E+02 -0.30662198255E+02  0.14326685801E+03  0.16432098533E+03  0.00000000000E+00 0.  1.
</event>
<event>
 7    1  0.5018917E-005  0.9986955E+03  0.7818608E-02  0.1075224E+00
          2   -1    0    0  502    0  0.00000000000E+00  0.00000000000E+00  0.36053935582E+04  0.36053935582E+04  0.00000000000E+00 0. -1.
          1   -1    0    0  501    0 -0.00000000000E+00 -0.00000000000E+00 -0.26098866205E+04  0.26098866205E+04  0.00000000000E+00 0. -1.
         25    2    1    2    0    0  0.89311301008E+03  0.59823411016E+03 -0.42311118332E+03  0.11619727154E+04  0.12499047367E+03 0.  0.
          2    1    1    2  501    0 -0.80610547605E+03 -0.54287134969E+03 -0.16864967160E+04  0.19464805454E+04  0.00000000000E+00 0. -1.
          1    1    1    2  502    0 -0.87007534029E+02 -0.55362760476E+02  0.31051148371E+04  0.31068269179E+04  0.00000000000E+00 0. -1.
         22    1    3    3    0    0  0.94447581993E+02  0.10716400886E+03 -0.79176768373E+02  0.16332002691E+03  0.00000000000E+00 0.  1.
         22    1    3    3    0    0  0.79866542808E+03  0.49107010131E+03 -0.34393441494E+03  0.99865268847E+03  0.00000000000E+00 0.  1.
</event>
<event>
 7    1  0.5018917E-005  0.2817722E+03  0.7818608E-02  0.1205240E+00
          2   -1    0    0  502    0  0.00000000000E+00  0.00000000000E+00  0.14944962471E+04  0.14944962471E+04  0.00000000000E+00 0. -1.
          1   -1    0    0  501    0 -0.00000000000E+00 -0.00000000000E+00 -0.26946775508E+03  0.26946775508E+03  0.00000000000E+00 0. -1.
         25    2    1    2    0    0 -0.19565037461E+03  0.21891139507E+03  0.13386206643E+04  0.13761287572E+04  0.12499522240E+03 0.  0.
          2    1    1    2  501    0  0.32410950288E+02 -0.68567972223E+02 -0.14506125889E+03  0.16369118896E+03  0.00000000000E+00 0. -1.
          1    1    1    2  502    0  0.16323942433E+03 -0.15034342285E+03  0.31469086693E+02  0.22414405606E+03  0.00000000000E+00 0. -1.
         22    1    3    3    0    0 -0.11479487204E+03  0.15711273226E+03  0.60599194709E+03  0.63646564183E+03  0.00000000000E+00 0. -1.
         22    1    3    3    0    0 -0.80855502571E+02  0.61798662815E+02  0.73262871717E+03  0.73966311537E+03  0.00000000000E+00 0. -1.
</event>
<event>
 7    1  0.5018917E-005  0.1297993E+04  0.7818608E-02  0.1141019E+00
          2   -1    0    0  502    0  0.00000000000E+00  0.00000000000E+00  0.15009892505E+04  0.15009892505E+04  0.00000000000E+00 0. -1.
          1   -1    0    0  501    0 -0.00000000000E+00 -0.00000000000E+00 -0.33815724519E+04  0.33815724519E+04  0.00000000000E+00 0. -1.
         25    2    1    2    0    0 -0.75505748398E+03  0.10710820504E+04 -0.19749863870E+04  0.23735050513E+04  0.12500574653E+03 0.  0.
          2    1    1    2  501    0  0.74079192049E+03 -0.10399995285E+04 -0.86933906726E+03  0.15447077726E+04  0.00000000000E+00 0. -1.
          1    1    1    2  502    0  0.14265563491E+02 -0.31082521929E+02  0.96374225292E+03  0.96434887854E+03  0.00000000000E+00 0. -1.
         22    1    3    3    0    0 -0.29625048887E+03  0.35920324009E+03 -0.61506775383E+03  0.77142702938E+03  0.00000000000E+00 0. -1.
         22    1    3    3    0    0 -0.45880699510E+03  0.71187881033E+03 -0.13599186332E+04  0.16020780219E+04  0.00000000000E+00 0. -1.
</event>
<event>
 7    1  0.5018917E-005  0.4934274E+03  0.7818608E-02  0.1021766E+00
          2   -1    0    0  502    0  0.00000000000E+00  0.00000000000E+00  0.17020805070E+04  0.17020805070E+04  0.00000000000E+00 0. -1.
          1   -1    0    0  501    0 -0.00000000000E+00 -0.00000000000E+00 -0.14650812223E+04  0.14650812223E+04  0.00000000000E+00 0. -1.
         25    2    1    2    0    0  0.75403468269E+03  0.42367919852E+03  0.10271236848E+03  0.87991532985E+03  0.12501516349E+03 0.  0.
          2    1    1    2  501    0 -0.44842565806E+03 -0.95105141587E+02 -0.98223005201E+03  0.10839310097E+04  0.00000000000E+00 0. -1.
          1    1    1    2  502    0 -0.30560902463E+03 -0.32857405694E+03  0.11165169682E+04  0.12033153897E+04  0.00000000000E+00 0. -1.
         22    1    3    3    0    0  0.39185331735E+03  0.26587401304E+03  0.77753667220E+01  0.47360159360E+03  0.00000000000E+00 0. -1.
         22    1    3    3    0    0  0.36218136533E+03  0.15780518549E+03  0.94937001760E+02  0.40631373625E+03  0.00000000000E+00 0. -1.
</event>
<event>
 7    1  0.5018917E-005  0.2186303E+03  0.7818608E-02  0.1241356E+00
          2   -1    0    0  502    0  0.00000000000E+00  0.00000000000E+00  0.65493370347E+03  0.65493370347E+03  0.00000000000E+00 0. -1.
          1   -1    0    0  501    0 -0.00000000000E+00 -0.00000000000E+00 -0.99606600233E+03  0.99606600233E+03  0.00000000000E+00 0. -1.
         25    2    1    2    0    0  0.22200249551E+03 -0.72666436134E+02 -0.79443618793E+03  0.83744832431E+03  0.12500128095E+03 0.  0.
          2    1    1    2  501    0 -0.18735734910E+03  0.15278118943E+02 -0.12862568532E+03  0.22777349298E+03  0.00000000000E+00 0. -1.
          1    1    1    2  502    0 -0.34645146411E+02  0.57388317191E+02  0.58192957439E+03  0.58577788851E+03  0.00000000000E+00 0. -1.
         22    1    3    3    0    0  0.22476555364E+03 -0.66990755203E+02 -0.61968935739E+03  0.66258751501E+03  0.00000000000E+00 0.  1.
         22    1    3    3    0    0 -0.27630581276E+01 -0.56756809308E+01 -0.17474683054E+03  0.17486080930E+03  0.00000000000E+00 0.  1.
</event>
<event>
 7    1  0.5018917E-005  0.4689336E+03  0.7818608E-02  0.1189907E+00
          2   -1    0    0  502    0  0.00000000000E+00  0.00000000000E+00  0.70326854599E+03  0.70326854599E+03  0.00000000000E+00 0. -1.
          1   -1    0    0  501    0 -0.00000000000E+00 -0.00000000000E+00 -0.25924673928E+04  0.25924673928E+04  0.00000000000E+00 0. -1.
         25    2    1    2    0    0 -0.47155075578E+03  0.28536402391E+02 -0.28366786246E+03  0.56503727330E+03  0.12500088993E+03 0.  0.
          2    1    1    2  501    0  0.99772186656E+01  0.52934062445E+02 -0.20700792652E+04  0.20707799796E+04  0.00000000000E+00 0. -1.
          1    1    1    2  502    0  0.46157353711E+03 -0.81470464836E+02  0.46454828080E+03  0.65991868590E+03  0.00000000000E+00 0. -1.
         22    1    3    3    0    0 -0.24395445400E+03 -0.47649692788E+02 -0.13866693662E+03  0.28462745504E+03  0.00000000000E+00 0.  1.
         22    1    3    3    0    0 -0.22759630178E+03  0.76186095179E+02 -0.14500092583E+03  0.28040981826E+03  0.00000000000E+00 0.  1.
</event>
<event>
 7    1  0.5018917E-005  0.3166940E+03  0.7818608E-02  0.1215314E+00
          2   -1    0    0  502    0  0.00000000000E+00  0.00000000000E+00  0.30311966720E+04  0.30311966720E+04  0.00000000000E+00 0. -1.
          1   -1    0    0  501    0 -0.00000000000E+00 -0.00000000000E+00 -0.83102731672E+03  0.83102731672E+03  0.00000000000E+00 0. -1.
         25    2    1    2    0    0 -0.20505064673E+03 -0.28066395179E+03  0.24511182740E+03  0.44330937192E+03  0.12500147894E+03 0.  0.
          2    1    1    2  501    0  0.22170520359E+03  0.22239633217E+03 -0.69788387824E+03  0.76528114662E+03  0.00000000000E+00 0. -1.
          1    1    1    2  502    0 -0.16654556861E+02  0.58267619624E+02  0.26529414061E+04  0.26536334702E+04  0.00000000000E+00 0. -1.
         22    1    3    3    0    0 -0.72984278559E+02 -0.22878882803E+02  0.76417078279E+02  0.10811899948E+03  0.00000000000E+00 0. -1.
         22    1    3    3    0    0 -0.13206636817E+03 -0.25778506899E+03  0.16869474912E+03  0.33519037244E+03  0.00000000000E+00 0. -1.
</event>
<event>
 7    1  0.5018917E-005  0.3693762E+03  0.7818608E-02  0.1108837E+00
          2   -1    0    0  502    0  0.00000000000E+00  0.00000000000E+00  0.28619539303E+04  0.28619539303E+04  0.00000000000E+00 0. -1.
          1   -1    0    0  501    0 -0.00000000000E+00 -0.00000000000E+00 -0.33163798539E+03  0.33163798539E+03  0.00000000000E+00 0. -1.
         25    2    1    2    0    0  0.23221527447E+03 -0.18928623907E+03  0.10787519598E+03  0.34207345647E+03  0.12499591081E+03 0.  0.
          2    1    1    2  501    0 -0.41121774097E+03  0.18362508292E+03  0.28892272016E+02  0.45127925384E+03  0.00000000000E+00 0. -1.
          1    1    1    2  502    0  0.17900246651E+03  0.56611561516E+01  0.23935484769E+04  0.24002392054E+04  0.00000000000E+00 0. -1.
         22    1    3    3    0    0  0.20128883556E+03 -0.16077983302E+03  0.13615940239E+03  0.29138759906E+03  0.00000000000E+00 0.  1.
         22    1    3    3    0    0  0.30926438910E+02 -0.28506406047E+02 -0.28284206411E+02  0.50685857413E+02  0.00000000000E+00 0.  1.
</event>
<event>
 7    1  0.5018917E-005  0.2591610E+03  0.7818608E-02  0.1224550E+00
          2   -1    0    0  502    0  0.00000000000E+00  0.00000000000E+00  0.28606205404E+02  0.28606205404E+02  0.00000000000E+00 0. -1.
          1   -1    0    0  501    0 -0.00000000000E+00 -0.00000000000E+00 -0.35815915897E+04  0.35815915897E+04  0.00000000000E+00 0. -1.
         25    2    1    2    0    0  0.23974993947E+03  0.13809242355E+03 -0.19526507470E+04  0.19761121150E+04  0.12499840017E+03 0.  0.
          2    1    1    2  501    0 -0.56940878526E+02  0.35705101463E+02 -0.53975670172E+03  0.54392500859E+03  0.00000000000E+00 0. -1.
          1    1    1    2  502    0 -0.18280906095E+03 -0.17379752502E+03 -0.10605779356E+04  0.10901606716E+04  0.00000000000E+00 0. -1.
         22    1    3    3    0    0  0.94815811390E+02  0.12458901244E+03 -0.91430329787E+03  0.92761143838E+03  0.00000000000E+00 0. -1.
         22    1    3    3    0    0  0.14493412808E+03  0.13503411117E+02 -0.10383474492E+04  0.10485006766E+04  0.00000000000E+00 0. -1.
</event>
<event>
 7    1  0.5018917E-005  0.6902641E+03  0.7818608E-02  0.1176451E+00
          2   -1    0    0  502    0  0.00000000000E+00  0.00000000000E+00  0.14382351932E+04  0.14382351932E+04  0.00000000000E+00 0. -1.
          1   -1    0    0  501    0 -0.00000000000E+00 -0.00000000000E+00 -0.19613479231E+04  0.19613479231E+04  0.00000000000E+00 0. -1.
         25    2    1    2    0    0  0.57236031166E+03  0.40201445224E+03 -0.10811257950E+03  0.71869754079E+03  0.12500351643E+03 0.  0.
          2    1    1    2  501    0 -0.58556785752E+03 -0.36158340283E+03 -0.14709997580E+04  0.16240297291E+04  0.00000000000E+00 0. -1.
          1    1    1    2  502    0  0.13207545851E+02 -0.40431049405E+02  0.10559996076E+04  0.10568558465E+04  0.00000000000E+00 0. -1.
         22    1    3    3    0    0  0.53618080161E+03  0.40747419848E+03 -0.10837658983E+03  0.68210743997E+03  0.00000000000E+00 0.  1.
         22    1    3    3    0    0  0.36179510051E+02 -0.54597462402E+01  0.26401032671E+00  0.36590100820E+02  0.00000000000E+00 0.  1.
</event>
<event>
 7    1  0.5018917E-005  0.2753880E+03  0.7818608E-02  0.1194085E+00
          2   -1    0    0  502    0  0.00000000000E+00  0.00000000000E+00  0.10303004455E+04  0.10303004455E+04  0.00000000000E+00 0. -1.
          1   -1    0    0  501    0 -0.00000000000E+00 -0.00000000000E+00 -0.28890114739E+03  0.28890114739E+03  0.00000000000E+00 0. -1.
         25    2    1    2    0    0  0.23588427320E+03 -0.24577835357E+03  0.34041769243E+03  0.49755183903E+03  0.12500095110E+03 0.  0.
          2    1    1    2  501    0 -0.57092416529E+02  0.66440487100E+02 -0.17320629024E+03  0.19409868966E+03  0.00000000000E+00 0. -1.
          1    1    1    2  502    0 -0.17879185667E+03  0.17933786647E+03  0.57418789597E+03  0.62755106425E+03  0.00000000000E+00 0. -1.
         22    1    3    3    0    0  0.18005458407E+03 -0.17899551404E+03  0.16809238382E+03  0.30448989604E+03  0.00000000000E+00 0.  1.
         22    1    3    3    0    0  0.55829689131E+02 -0.66782839531E+02  0.17232530861E+03  0.19306194299E+03  0.00000000000E+00 0.  1.
</event>
<event>
 7    1  0.5018917E-005  0.5171340E+03  0.7818608E-02  0.1149861E+00
          2   -1    0    0  502    0  0.00000000000E+00  0.00000000000E+00  0.26851633008E+04  0.26851633008E+04  0.00000000000E+00 0. -1.
          1   -1    0    0  501    0 -0.00000000000E+00 -0.00000000000E+00 -0.21304985734E+04  0.21304985734E+04  0.00000000000E+00 0. -1.
         25    2    1    2    0    0 -0.15201630655E+03  0.52311829244E+03  0.50529967166E+03  0.75346828115E+03  0.12499994872E+03 0.  0.
          2    1    1    2  501    0  0.75129272460E+02 -0.17923312956E+02 -0.19738912834E+04  0.19754018455E+04  0.00000000000E+00 0. -1.
          1    1    1    2  502    0  0.76887034094E+02 -0.50519497948E+03  0.20232563392E+04  0.20867917475E+04  0.00000000000E+00 0. -1.
         22    1    3    3    0    0 -0.15412755408E+03  0.41402712347E+03  0.45197042970E+03  0.63202138510E+03  0.00000000000E+00 0.  1.
         22    1    3    3    0    0  0.21112475306E+01  0.10909116897E+03  0.53329241954E+02  0.12144689605E+03  0.00000000000E+00 0.  1.
</event>
<event>
 7    1  0.5018917E-005  0.1426639E+03  0.7818608E-02  0.1225540E+00
          2   -1    0    0  502    0  0.00000000000E+00  0.00000000000E+00  0.68219523248E+03  0.68219523248E+03  0.00000000000E+00 0. -1.
          1   -1    0    0  501    0 -0.00000000000E+00 -0.00000000000E+00 -0.10409984441E+04  0.10409984441E+04  0.00000000000E+00 0. -1.
         25    2    1    2    0    0 -0.13703693225E+03 -0.14968169240E+02 -0.91486763388E+03  0.93360145290E+03  0.12500287376E+03 0.  0.
          2    1    1    2  501    0  0.20851691439E+03 -0.82464179786E+02  0.38016526857E+01  0.22426345466E+03  0.00000000000E+00 0. -1.
          1    1    1    2  502    0 -0.71479982142E+02  0.97432349026E+02  0.55226276954E+03  0.56532876904E+03  0.00000000000E+00 0. -1.
         22    1    3    3    0    0 -0.98640407619E+02 -0.55092780013E+02 -0.39698648491E+03  0.41275103105E+03  0.00000000000E+00 0.  1.
         22    1    3    3    0    0 -0.38396524627E+02  0.40124610773E+02 -0.51788114897E+03  0.52085042186E+03  0.00000000000E+00 0.  1.
</event>
<event>
 7    1  0.5018917E-005  0.4546975E+02  0.7818608E-02  0.1511374E+00
          2   -1    0    0  502    0  0.00000000000E+00  0.00000000000E+00  0.78945070644E+03  0.78945070644E+03  0.00000000000E+00 0. -1.
          1   -1    0    0  501    0 -0.00000000000E+00 -0.00000000000E+00 -0.38839993308E+03  0.38839993308E+03  0.00000000000E+00 0. -1.
         25    2    1    2    0    0  0.88255576711E+01  0.78101282297E+02 -0.63262005543E+02  0.16063197236E+03  0.12499139344E+03 0.  0.
          2    1    1    2  501    0 -0.29278606113E+01 -0.44168216967E+02 -0.27427715152E+03  0.27782613197E+03  0.00000000000E+00 0. -1.
          1    1    1    2  502    0 -0.58976970598E+01 -0.33933065330E+02  0.73858993043E+03  0.73939253518E+03  0.00000000000E+00 0. -1.
         22    1    3    3    0    0  0.23459314635E+02 -0.26542667062E+02 -0.38082829782E+02  0.52011100182E+02  0.00000000000E+00 0. -1.
         22    1    3    3    0    0 -0.14633756964E+02  0.10464394936E+03 -0.25179175761E+02  0.10862087218E+03  0.00000000000E+00 0. -1.
</event>
<event>
 7    1  0.5018917E-005  0.3057116E+03  0.7818608E-02  0.1230840E+00
          2   -1    0    0  502    0  0.00000000000E+00  0.00000000000E+00  0.11664176717E+04  0.11664176717E+04  0.00000000000E+00 0. -1.
          1   -1    0    0  501    0 -0.00000000000E+00 -0.00000000000E+00 -0.48693203279E+03  0.48693203279E+03  0.00000000000E+00 0. -1.
         25    2    1    2    0    0  0.27533546344E+03  0.19541384565E+03 -0.23156244063E+02  0.36077504417E+03  0.12500492932E+03 0.  0.
          2    1    1    2  501    0 -0.52643489590E+02  0.88352348921E+01 -0.26940538695E+03  0.27464278780E+03  0.00000000000E+00 0. -1.
          1    1    1    2  502    0 -0.22269197385E+03 -0.20424908054E+03  0.97204726994E+03  0.10179318725E+04  0.00000000000E+00 0. -1.
         22    1    3    3    0    0  0.13001874994E+03  0.13321547489E+03 -0.65156069577E+02  0.19722208671E+03  0.00000000000E+00 0. -1.
         22    1    3    3    0    0  0.14531671350E+03  0.62198370767E+02  0.41999825514E+02  0.16355295745E+03  0.00000000000E+00 0. -1.
</event>
<event>
 7    1  0.9344809E-005  0.5070266E+03  0.7818608E-02  0.1142954E+00
          2   -1    0    0  502    0  0.00000000000E+00  0.00000000000E+00  0.17485431838E+04  0.17485431838E+04  0.00000000000E+00 0. -1.
          1   -1    0    0  501    0 -0.00000000000E+00 -0.00000000000E+00 -0.13838545556E+04  0.13838545556E+04  0.00000000000E+00 0. -1.
         25    2    1    2    0    0  0.64739720211E+02 -0.53114395809E+03 -0.48584550959E+03  0.73346681810E+03  0.12499031355E+03 0.  0.
          2    1    1    2  501    0 -0.81548708995E+02  0.25823432401E+02 -0.73231419715E+03  0.73729310654E+03  0.00000000000E+00 0. -1.
          1    1    1    2  502    0  0.16808988783E+02  0.50532052568E+03  0.15828483350E+04  0.16616378148E+04  0.00000000000E+00 0. -1.
         22    1    3    3    0    0  0.70968977852E+02 -0.13288357632E+03 -0.14781652386E+03  0.21105536098E+03  0.00000000000E+00 0. -1.
         22    1    3    3    0    0 -0.62292576410E+01 -0.39826038177E+03 -0.33802898573E+03  0.52241145712E+03  0.00000000000E+00 0. -1.
</event>
<event>
 7    1  0.5018917E-005  0.5600214E+03  0.7818608E-02  0.1142414E+00
          2   -1    0    0  502    0  0.00000000000E+00  0.00000000000E+00  0.21497008138E+04  0.21497008138E+04  0.00000000000E+00 0. -1.
          1   -1    0    0  501    0 -0.00000000000E+00 -0.00000000000E+00 -0.24608750457E+04  0.24608750457E+04  0.00000000000E+00 0. -1.
         25    2    1    2    0    0 -0.51053285784E+03 -0.30822752630E+03  0.75450483005E+03  0.96982008306E+03  0.12500179211E+03 0.  0.
          2    1    1    2  501    0  0.44090506014E+03  0.34326991133E+03 -0.23188186525E+04  0.23851942158E+04  0.00000000000E+00 0. -1.
          1    1    1    2  502    0  0.69627797694E+02 -0.35042385026E+02  0.12531395906E+04  0.12555615606E+04  0.00000000000E+00 0. -1.
         22    1    3    3    0    0 -0.34620043202E+03 -0.14608929494E+03  0.51090755109E+03  0.63421080643E+03  0.00000000000E+00 0. -1.
         22    1    3    3    0    0 -0.16433242581E+03 -0.16213823136E+03  0.24359727896E+03  0.33560927663E+03  0.00000000000E+00 0. -1.
</event>
<event>
 7    1  0.5018917E-005  0.2473835E+03  0.7818608E-02  0.1179762E+00
          2   -1    0    0  502    0  0.00000000000E+00  0.00000000000E+00  0.91591858439E+03  0.91591858439E+03  0.00000000000E+00 0. -1.
          1   -1    0    0  501    0 -0.00000000000E+00 -0.00000000000E+00 -0.10986211637E+04  0.10986211637E+04  0.00000000000E+00 0. -1.
         25    2    1    2    0    0  0.29714161598E+03  0.18860579927E+03  0.15211516175E+02  0.37379332991E+03  0.12499910320E+03 0.  0.
          2    1    1    2  501    0 -0.19348785429E+03 -0.14036029011E+03 -0.89908339474E+03  0.93031688768E+03  0.00000000000E+00 0. -1.
          1    1    1    2  502    0 -0.10365376169E+03 -0.48245509151E+02  0.70116929929E+03  0.71042953045E+03  0.00000000000E+00 0. -1.
         22    1    3    3    0    0  0.15565041885E+03  0.16847574953E+03  0.23903155209E+02  0.23061329514E+03  0.00000000000E+00 0. -1.
         22    1    3    3    0    0  0.14149119713E+03  0.20130049735E+02 -0.86916390335E+01  0.14318003477E+03  0.00000000000E+00 0. -1.
</event>
<event>
 7    1  0.5018917E-005  0.9916942E+03  0.7818608E-02  0.1147515E+00
          2   -1    0    0  502    0  0.00000000000E+00  0.00000000000E+00  0.30976688988E+04  0.30976688988E+04  0.00000000000E+00 0. -1.
          1   -1    0    0  501    0 -0.00000000000E+00 -0.00000000000E+00 -0.10102442234E+04  0.10102442234E+04  0.00000000000E+00 0. -1.
         25    2    1    2    0    0 -0.77165896030E+03  0.59562939438E+03  0.41111322765E+03  0.10652965045E+04  0.12494250731E+03 0.  0.
          2    1    1    2  501    0  0.81159388357E+03 -0.58465892778E+03 -0.31668478398E+03  0.10491901382E+04  0.00000000000E+00 0. -1.
          1    1    1    2  502    0 -0.39934923272E+02 -0.10970466609E+02  0.19929962318E+04  0.19934264795E+04  0.00000000000E+00 0. -1.
         22    1    3    3    0    0 -0.60782132079E+03  0.40075638494E+03  0.31220841485E+03  0.79216572280E+03  0.00000000000E+00 0.  1.
         22    1    3    3    0    0 -0.16383763952E+03  0.19487300944E+03  0.98904812799E+02  0.27313078172E+03  0.00000000000E+00 0.  1.
</event>
<event>
 7    1  0.5018917E-005  0.2775608E+03  0.7818608E-02  0.1115412E+00
          2   -1    0    0  502    0  0.00000000000E+00  0.00000000000E+00  0.18069965058E+04  0.18069965058E+04  0.00000000000E+00 0. -1.
          1   -1    0    0  501    0 -0.00000000000E+00 -0.00000000000E+00 -0.85438914700E+03  0.85438914700E+03  0.00000000000E+00 0. -1.
         25    2    1    2    0    0  0.43392114590E+03 -0.21158175841E+03  0.93668541481E+03  0.10611594576E+04  0.12500170712E+03 0.  0.
          2    1    1    2  501    0 -0.26224010087E+03  0.75199769399E+02 -0.75287303074E+03  0.80077629600E+03  0.00000000000E+00 0. -1.
          1    1    1    2  502    0 -0.17168104503E+03  0.13638198901E+03  0.76879497470E+03  0.79944989917E+03  0.00000000000E+00 0. -1.
         22    1    3    3    0    0  0.83294155993E+02  0.10001661757E+02  0.15503654316E+03  0.17627898166E+03  0.00000000000E+00 0.  1.
         22    1    3    3    0    0  0.35062698991E+03 -0.22158342016E+03  0.78164887165E+03  0.88488047594E+03  0.00000000000E+00 0.  1.
</event>
<event>
 7    1  0.5018917E-005  0.2339846E+03  0.7818608E-02  0.1207809E+00
          2   -1    0    0  502    0  0.00000000000E+00  0.00000000000E+00  0.34371616587E+03  0.34371616587E+03  0.00000000000E+00 0. -1.
          1   -1    0    0  501    0 -0.00000000000E+00 -0.00000000000E+00 -0.59819346100E+03  0.59819346100E+03  0.00000000000E+00 0. -1.
         25    2    1    2    0    0 -0.27206240871E+03 -0.14752862045E+03  0.24753251713E+02  0.33469385883E+03  0.12499843034E+03 0.  0.
          2    1    1    2  501    0  0.20100236413E+03  0.94198270865E+02 -0.39989279648E+03  0.45737240111E+03  0.00000000000E+00 0. -1.
          1    1    1    2  502    0  0.71060044579E+02  0.53330349583E+02  0.12066224964E+03  0.14984336692E+03  0.00000000000E+00 0. -1.
         22    1    3    3    0    0 -0.13309736127E+03 -0.27065931008E+02 -0.36867069065E+02  0.14073611114E+03  0.00000000000E+00 0.  1.
         22    1    3    3    0    0 -0.13896504744E+03 -0.12046268944E+03  0.61620320778E+02  0.19395774769E+03  0.00000000000E+00 0.  1.
</event>
<event>
 7    1  0.5018917E-005  0.7494623E+03  0.7818608E-02  0.1052198E+00
          2   -1    0    0  502    0  0.00000000000E+00  0.00000000000E+00  0.95956549251E+03  0.95956549251E+03  0.00000000000E+00 0. -1.
          1   -1    0    0  501    0 -0.00000000000E+00 -0.00000000000E+00 -0.33915426985E+04  0.33915426985E+04  0.00000000000E+00 0. -1.
         25    2    1    2    0    0 -0.42354210285E+03 -0.77018553314E+03 -0.60795547993E+03  0.10760150712E+04  0.12499959810E+03 0.  0.
          2    1    1    2  501    0  0.16325839586E+03  0.95693594349E+02 -0.23647305372E+04  0.23722902608E+04  0.00000000000E+00 0. -1.
          1    1    1    2  502    0  0.26028370699E+03  0.67449193879E+03  0.54070881121E+03  0.90280285896E+03  0.00000000000E+00 0. -1.
         22    1    3    3    0    0 -0.30181504659E+02 -0.11970736481E+03 -0.50639466649E+02  0.13343587222E+03  0.00000000000E+00 0.  1.
         22    1    3    3    0    0 -0.39336059819E+03 -0.65047816833E+03 -0.55731601328E+03  0.94257919897E+03  0.00000000000E+00 0.  1.
</event>
<event>
 7    1  0.5018917E-005  0.2068839E+03  0.7818608E-02  0.1202615E+00
          2   -1    0    0  502    0  0.00000000000E+00  0.00000000000E+00  0.84277401696E+03  0.84277401696E+03  0.00000000000E+00 0. -1.
          1   -1    0    0  501    0 -0.00000000000E+00 -0.00000000000E+00 -0.11371914783E+04  0.11371914783E+04  0.00000000000E+00 0. -1.
         25    2    1    2    0    0 -0.15835507064E+03  0.24658169011E+03 -0.26716066683E+03  0.41578721041E+03  0.12500129657E+03 0.  0.
          2    1    1    2  501    0  0.77758478517E+02 -0.17732859046E+03 -0.78015183081E+03  0.80382130421E+03  0.00000000000E+00 0. -1.
          1    1    1    2  502    0  0.80596592128E+02 -0.69253099653E+02  0.75289503625E+03  0.76035698069E+03  0.00000000000E+00 0. -1.
         22    1    3    3    0    0 -0.13078954205E+03  0.16917298100E+03 -0.25488702273E+03  0.33270526922E+03  0.00000000000E+00 0.  1.
         22    1    3    3    0    0 -0.27565528595E+02  0.77408709107E+02 -0.12273644099E+02  0.83081941190E+02  0.00000000000E+00 0.  1.
</event>
<event>
 7    1  0.5018917E-005  0.2591041E+03  0.7818608E-02  0.1332786E+00
          2   -1    0    0  502    0  0.00000000000E+00  0.00000000000E+00  0.53367652827E+03  0.53367652827E+03  0.00000000000E+00 0. -1.
          1   -1    0    0  501    0 -0.00000000000E+00 -0.00000000000E+00 -0.26002001556E+03  0.26002001556E+03  0.00000000000E+00 0. -1.
         25    2    1    2    0    0  0.23460810530E+03  0.13788069909E+03  0.65733252519E+02  0.30658942899E+03  0.12499666885E+03 0.  0.
          2    1    1    2  501    0 -0.21072723238E+03 -0.13684245312E+03 -0.25419692953E+02  0.25254303442E+03  0.00000000000E+00 0. -1.
          1    1    1    2  502    0 -0.23880872920E+02 -0.10382459660E+01  0.23334295314E+03  0.23456408043E+03  0.00000000000E+00 0. -1.
         22    1    3    3    0    0  0.65296333789E+02  0.10900285762E+03  0.37870045060E+02  0.13258723351E+03  0.00000000000E+00 0.  1.
         22    1    3    3    0    0  0.16931177152E+03  0.28877841468E+02  0.27863207459E+02  0.17400219548E+03  0.00000000000E+00 0.  1.
</event>
<event>
 7    1  0.5018917E-005  0.3770170E+03  0.7818608E-02  0.1095378E+00
          2   -1    0    0  502    0  0.00000000000E+00  0.00000000000E+00  0.10867457484E+04  0.10867457484E+04  0.00000000000E+00 0. -1.
          1   -1    0    0  501    0 -0.00000000000E+00 -0.00000000000E+00 -0.77510538013E+03  0.77510538013E+03  0.00000000000E+00 0. -1.
         25    2    1    2    0    0 -0.34664843518E+03 -0.79331270348E+02 -0.53758425548E+03  0.65656717886E+03  0.12500016218E+03 0.  0.
          2    1    1    2  501    0  0.55456511492E+03  0.60189479873E+02  0.33596937595E+03  0.65118404598E+03  0.00000000000E+00 0. -1.
          1    1    1    2  502    0 -0.20791667974E+03  0.19141790475E+02  0.51325524782E+03  0.55409990369E+03  0.00000000000E+00 0. -1.
         22    1    3    3    0    0 -0.13521846146E+03  0.26537586490E+02 -0.23670721616E+03  0.27389520259E+03  0.00000000000E+00 0. -1.
         22    1    3    3    0    0 -0.21142997371E+03 -0.10586885684E+03 -0.30087703932E+03  0.38267197627E+03  0.00000000000E+00 0. -1.
</event>
<event>
 7    1  0.5018917E-005  0.5007465E+03  0.7818608E-02  0.1120065E+00
          2   -1    0    0  502    0  0.00000000000E+00  0.00000000000E+00  0.51599344288E+03  0.51599344288E+03  0.00000000000E+00 0. -1.
          1   -1    0    0  501    0 -0.00000000000E+00 -0.00000000000E+00 -0.42215544379E+04  0.42215544379E+04  0.00000000000E+00 0. -1.
         25    2    1    2    0    0 -0.35219241410E+03  0.38617788271E+03 -0.96272559896E+03  0.11025592205E+04  0.12499360809E+03 0.  0.
          2    1    1    2  501    0  0.24698392980E+03 -0.43170556675E+03 -0.31617713515E+04  0.32006513146E+04  0.00000000000E+00 0. -1.
          1    1    1    2  502    0  0.10520848429E+03  0.45527684041E+02  0.41893595546E+03  0.43433734580E+03  0.00000000000E+00 0. -1.
         22    1    3    3    0    0 -0.33451118737E+03  0.30007590629E+03 -0.79653404061E+03  0.91455440618E+03  0.00000000000E+00 0. -1.
         22    1    3    3    0    0 -0.17681226726E+02  0.86101976419E+02 -0.16619155835E+03  0.18800481427E+03  0.00000000000E+00 0. -1.
</event>
<event>
 7    1  0.5018917E-005  0.1464848E+03  0.7818608E-02  0.1281212E+00
          2   -1    0    0  502    0  0.00000000000E+00  0.00000000000E+00  0.35488478707E+03  0.35488478707E+03  0.00000000000E+00 0. -1.
          1   -1    0    0  501    0 -0.00000000000E+00 -0.00000000000E+00 -0.18239979683E+04  0.18239979683E+04  0.00000000000E+00 0. -1.
         25    2    1    2    0    0 -0.13863667902E+03 -0.13068518031E+03 -0.11479865481E+04  0.11703831686E+04  0.12499960679E+03 0.  0.
          2    1    1    2  501    0  0.96254141083E+02  0.77925372089E+02 -0.65562747640E+03  0.66722156073E+03  0.00000000000E+00 0. -1.
          1    1    1    2  502    0  0.42382537940E+02  0.52759808219E+02  0.33450084326E+03  0.34127802600E+03  0.00000000000E+00 0. -1.
         22    1    3    3    0    0 -0.12060244860E+03 -0.91942528516E+02 -0.10762540825E+04  0.10868860241E+04  0.00000000000E+00 0. -1.
         22    1    3    3    0    0 -0.18034230425E+02 -0.38742651792E+02 -0.71732465582E+02  0.83497144582E+02  0.00000000000E+00 0. -1.
</event>
<event>
 7    1  0.5018917E-005  0.5642218E+02  0.7818608E-02  0.1424308E+00
          2   -1    0    0  502    0  0.00000000000E+00  0.00000000000E+00  0.29147503091E+03  0.29147503091E+03  0.00000000000E+00 0. -1.
          1   -1    0    0  501    0 -0.00000000000E+00 -0.00000000000E+00 -0.56393102526E+03  0.56393102526E+03  0.00000000000E+00 0. -1.
         25    2    1    2    0    0 -0.35241466685E+02 -0.62905829275E+01 -0.34933484449E+03  0.37275160698E+03  0.12500957772E+03 0.  0.
          2    1    1    2  501    0  0.23963152539E+02  0.61574049586E+02 -0.19452909093E+03  0.20544382074E+03  0.00000000000E+00 0. -1.
          1    1    1    2  502    0  0.11278314146E+02 -0.55283466659E+02  0.27140794107E+03  0.27721062846E+03  0.00000000000E+00 0. -1.
         22    1    3    3    0    0  0.85926336209E+01  0.45078189254E+02 -0.23920164445E+03  0.24356375594E+03  0.00000000000E+00 0. -1.
         22    1    3    3    0    0 -0.43834100306E+02 -0.51368772181E+02 -0.11013320004E+03  0.12918785104E+03  0.00000000000E+00 0. -1.
</event>
<event>
 7    1  0.5018917E-005  0.3855480E+03  0.7818608E-02  0.1193644E+00
          2   -1    0    0  502    0  0.00000000000E+00  0.00000000000E+00  0.98583367626E+03  0.98583367626E+03  0.00000000000E+00 0. -1.
          1   -1    0    0  501    0 -0.00000000000E+00 -0.00000000000E+00 -0.15432890651E+04  0.15432890651E+04  0.00000000000E+00 0. -1.
         25    2    1    2    0    0 -0.40892092889E+03 -0.14880628826E+03 -0.31433603772E+03  0.55117218705E+03  0.12499599059E+03 0.  0.
          2    1    1    2  501    0  0.34848782724E+03  0.13145719919E+03 -0.10780904691E+04  0.11406155445E+04  0.00000000000E+00 0. -1.
          1    1    1    2  502    0  0.60433101653E+02  0.17349089068E+02  0.83497111797E+03  0.83733500973E+03  0.00000000000E+00 0. -1.
         22    1    3    3    0    0  0.53765930955E+01 -0.27708921061E+01  0.51921530729E+01  0.79714521833E+01  0.00000000000E+00 0.  1.
         22    1    3    3    0    0 -0.41429752199E+03 -0.14603539615E+03 -0.31952819079E+03  0.54320073487E+03  0.00000000000E+00 0.  1.
</event>
<event>
 7    1  0.5018917E-005  0.4174243E+03  0.7818608E-02  0.1250339E+00
          2   -1    0    0  502    0  0.00000000000E+00  0.00000000000E+00  0.53518314020E+03  0.53518314020E+03  0.00000000000E+00 0. -1.
          1   -1    0    0  501    0 -0.00000000000E+00 -0.00000000000E+00 -0.10746411137E+04  0.10746411137E+04  0.00000000000E+00 0. -1.
         25    2    1    2    0    0 -0.35029380909E+03  0.27678546964E+03  0.33211222092E+03  0.57030924473E+03  0.12505262269E+03 0.  0.
          2    1    1    2  501    0  0.32703436562E+03 -0.25469567795E+03 -0.90362745207E+03  0.99416494447E+03  0.00000000000E+00 0. -1.
          1    1    1    2  502    0  0.23259443475E+02 -0.22089791694E+02  0.32057257606E+02  0.45350064753E+02  0.00000000000E+00 0. -1.
         22    1    3    3    0    0 -0.28923401682E+03  0.22443700623E+03  0.32504071488E+03  0.48957098829E+03  0.00000000000E+00 0. -1.
         22    1    3    3    0    0 -0.61059792277E+02  0.52348463414E+02  0.70715060446E+01  0.80738256437E+02  0.00000000000E+00 0. -1.
</event>
<event>
 7    1  0.5018917E-005  0.3281343E+03  0.7818608E-02  0.1173297E+00
          2   -1    0    0  502    0  0.00000000000E+00  0.00000000000E+00  0.30525094351E+04  0.30525094351E+04  0.00000000000E+00 0. -1.
          1   -1    0    0  501    0 -0.00000000000E+00 -0.00000000000E+00 -0.11689889481E+04  0.11689889481E+04  0.00000000000E+00 0. -1.
         25    2    1    2    0    0 -0.72132160617E+02 -0.35560735006E+03  0.13496696357E+04  0.14031723305E+04  0.12499931046E+03 0.  0.
          2    1    1    2  501    0  0.82001265607E+02  0.43301178410E+02 -0.11257520313E+04  0.11295648877E+04  0.00000000000E+00 0. -1.
          1    1    1    2  502    0 -0.98691049893E+01  0.31230617165E+03  0.16596028826E+04  0.16887611649E+04  0.00000000000E+00 0. -1.
         22    1    3    3    0    0 -0.66877377451E+02 -0.12981911449E+03  0.70836015191E+03  0.72325631067E+03  0.00000000000E+00 0. -1.
         22    1    3    3    0    0 -0.52547831662E+01 -0.22578823557E+03  0.64130948379E+03  0.67991601987E+03  0.00000000000E+00 0. -1.
</event>
<event>
 7    1  0.5018917E-005  0.4055672E+02  0.7818608E-02  0.1520964E+00
          2   -1    0    0  502    0  0.00000000000E+00  0.00000000000E+00  0.13361342551E+04  0.13361342551E+04  0.00000000000E+00 0. -1.
          1   -1    0    0  501    0 -0.00000000000E+00 -0.00000000000E+00 -0.21525286950E+02  0.21525286950E+02  0.00000000000E+00 0. -1.
         25    2    1    2    0    0  0.40514981328E+02  0.42926978063E+02  0.52400225216E+03  0.54193122531E+03  0.12500761395E+03 0.  0.
          2    1    1    2  501    0 -0.39520286269E+02 -0.67371478797E+01  0.20975654530E+02  0.45246218309E+02  0.00000000000E+00 0. -1.
          1    1    1    2  502    0 -0.99469505877E+00 -0.36189830183E+02  0.76963106148E+03  0.77048209844E+03  0.00000000000E+00 0. -1.
         22    1    3    3    0    0  0.53469856447E+02  0.23050547981E+02  0.51207791978E+03  0.51537767631E+03  0.00000000000E+00 0. -1.
         22    1    3    3    0    0 -0.12954875119E+02  0.19876430082E+02  0.11924332377E+02  0.26553549005E+02  0.00000000000E+00 0. -1.
</event>
<event>
 7    1  0.5018917E-005  0.7230186E+03  0.7818608E-02  0.1061927E+00
          2   -1    0    0  502    0  0.00000000000E+00  0.00000000000E+00  0.16517768951E+04  0.16517768951E+04  0.00000000000E+00 0. -1.
          1   -1    0    0  501    0 -0.00000000000E+00 -0.00000000000E+00 -0.14200471800E+04  0.14200471800E+04  0.00000000000E+00 0. -1.
         25    2    1    2    0    0 -0.60221381734E+03 -0.88625873300E+02  0.13626826057E+03  0.63616272957E+03  0.12497180662E+03 0.  0.
          2    1    1    2  501    0 -0.17105263803E+03  0.15572876244E+01 -0.10428542264E+04  0.10567905978E+04  0.00000000000E+00 0. -1.
          1    1    1    2  502    0  0.77326645536E+03  0.87068585676E+02  0.11383156809E+04  0.13788707478E+04  0.00000000000E+00 0. -1.
         22    1    3    3    0    0 -0.14444288032E+03  0.23798314043E+02  0.61981036794E+02  0.15897092297E+03  0.00000000000E+00 0. -1.
         22    1    3    3    0    0 -0.45777093701E+03 -0.11242418734E+03  0.74287223774E+02  0.47719180660E+03  0.00000000000E+00 0. -1.
</event>
<event>
 7    1  0.5018917E-005  0.1349057E+04  0.7818608E-02  0.1117100E+00
          2   -1    0    0  502    0  0.00000000000E+00  0.00000000000E+00  0.15183370423E+04  0.15183370423E+04  0.00000000000E+00 0. -1.
          1   -1    0    0  501    0 -0.00000000000E+00 -0.00000000000E+00 -0.29999545648E+04  0.29999545648E+04  0.00000000000E+00 0. -1.
         25    2    1    2    0    0  0.81234716086E+03 -0.10621773936E+04  0.59416458722E+03  0.14685998559E+04  0.12500102018E+03 0.  0.
          2    1    1    2  501    0  0.54670872924E+01 -0.43822948514E+02 -0.15904467152E+04  0.15910597392E+04  0.00000000000E+00 0. -1.
          1    1    1    2  502    0 -0.81781424816E+03  0.11060003421E+04 -0.48533539440E+03  0.14586320119E+04  0.00000000000E+00 0. -1.
         22    1    3    3    0    0  0.77843915500E+03 -0.10438152522E+04  0.56135294749E+03  0.14179685929E+04  0.00000000000E+00 0. -1.
         22    1    3    3    0    0  0.33908005866E+02 -0.18362141336E+02  0.32811639723E+02  0.50631263045E+02  0.00000000000E+00 0. -1.
</event>
<event>
 7    1  0.5018917E-005  0.3407018E+03  0.7818608E-02  0.1126298E+00
          2   -1    0    0  502    0  0.00000000000E+00  0.00000000000E+00  0.19699986283E+04  0.19699986283E+04  0.00000000000E+00 0. -1.
          1   -1    0    0  501    0 -0.00000000000E+00 -0.00000000000E+00 -0.14279443820E+04  0.14279443820E+04  0.00000000000E+00 0. -1.
         25    2    1    2    0    0 -0.31629154103E+03  0.26056961442E+03 -0.10722392573E+04  0.11546681768E+04  0.12499884317E+03 0.  0.
          2    1    1    2  501    0  0.19466172964E+03 -0.16300562894E+03 -0.25947453372E+03  0.36303038124E+03  0.00000000000E+00 0. -1.
          1    1    1    2  502    0  0.12162981139E+03 -0.97563985484E+02  0.18737680373E+04  0.18802444522E+04  0.00000000000E+00 0. -1.
         22    1    3    3    0    0 -0.11631275058E+03  0.60971620920E+02 -0.49301621709E+03  0.51020700193E+03  0.00000000000E+00 0. -1.
         22    1    3    3    0    0 -0.19997879045E+03  0.19959799350E+03 -0.57922304023E+03  0.64446117491E+03  0.00000000000E+00 0. -1.
</event>
<event>
 7    1  0.5018917E-005  0.2604829E+03  0.7818608E-02  0.1268637E+00
          2   -1    0    0  502    0  0.00000000000E+00  0.00000000000E+00  0.23497684787E+03  0.23497684787E+03  0.00000000000E+00 0. -1.
          1   -1    0    0  501    0 -0.00000000000E+00 -0.00000000000E+00 -0.55141081007E+03  0.55141081007E+03  0.00000000000E+00 0. -1.
         25    2    1    2    0    0  0.27056500851E+03  0.10689307235E+03  0.27888505196E+01  0.31664550754E+03  0.12500018802E+03 0.  0.
          2    1    1    2  501    0 -0.22770457080E+03 -0.10945758194E+03 -0.33873662269E+03  0.42257878952E+03  0.00000000000E+00 0. -1.
          1    1    1    2  502    0 -0.42860437714E+02  0.25645095829E+01  0.19513809964E+02  0.47163360883E+02  0.00000000000E+00 0. -1.
         22    1    3    3    0    0  0.22936167775E+03  0.61376398520E+02  0.45634412515E+02  0.24177746198E+03  0.00000000000E+00 0. -1.
         22    1    3    3    0    0  0.41203330767E+02  0.45516673833E+02 -0.42845561996E+02  0.74868045559E+02  0.00000000000E+00 0. -1.
</event>
<event>
 7    1  0.5018917E-005  0.3008484E+03  0.7818608E-02  0.1157183E+00
          2   -1    0    0  502    0  0.00000000000E+00  0.00000000000E+00  0.18257186691E+04  0.18257186691E+04  0.00000000000E+00 0. -1.
          1   -1    0    0  501    0 -0.00000000000E+00 -0.00000000000E+00 -0.12820311334E+03  0.12820311334E+03  0.00000000000E+00 0. -1.
         25    2    1    2    0    0  0.36070807844E+03  0.12341532383E+03  0.65602690833E+03  0.76898599071E+03  0.12500595766E+03 0.  0.
          2    1    1    2  501    0 -0.23900713327E+03 -0.12831264387E+03  0.20602089134E+03  0.34063639265E+03  0.00000000000E+00 0. -1.
          1    1    1    2  502    0 -0.12170094517E+03  0.48973200438E+01  0.83546775613E+03  0.84429939911E+03  0.00000000000E+00 0. -1.
         22    1    3    3    0    0  0.27827986088E+03  0.85824605317E+02  0.58638782326E+03  0.65471843041E+03  0.00000000000E+00 0.  1.
         22    1    3    3    0    0  0.82428217556E+02  0.37590718512E+02  0.69639085068E+02  0.11426756030E+03  0.00000000000E+00 0.  1.
</event>
<event>
 7    1  0.5018917E-005  0.3986410E+03  0.7818608E-02  0.1198747E+00
          2   -1    0    0  502    0  0.00000000000E+00  0.00000000000E+00  0.18939854963E+04  0.18939854963E+04  0.00000000000E+00 0. -1.
          1   -1    0    0  501    0 -0.00000000000E+00 -0.00000000000E+00 -0.84129153121E+03  0.84129153121E+03  0.00000000000E+00 0. -1.
         25    2    1    2    0    0 -0.34820438872E+03  0.57145261962E+02  0.20966380845E+03  0.42906420283E+03  0.12500120113E+03 0.  0.
          2    1    1    2  501    0 -0.54662190963E+02  0.17873394317E+02 -0.70373661714E+03  0.70608260115E+03  0.00000000000E+00 0. -1.
          1    1    1    2  502    0  0.40286657969E+03 -0.75018656279E+02  0.15467667738E+04  0.16001302236E+04  0.00000000000E+00 0. -1.
         22    1    3    3    0    0 -0.22377609021E+02  0.36400839284E+02  0.33650961220E+01  0.42861432057E+02  0.00000000000E+00 0. -1.
         22    1    3    3    0    0 -0.32582677970E+03  0.20744422679E+02  0.20629871233E+03  0.38620277077E+03  0.00000000000E+00 0. -1.
</event>
<event>
 7    1  0.5018917E-005  0.4588994E+03  0.7818608E-02  0.1077094E+00
          2   -1    0    0  502    0  0.00000000000E+00  0.00000000000E+00  0.20317064844E+04  0.20317064844E+04  0.00000000000E+00 0. -1.
          1   -1    0    0  501    0 -0.00000000000E+00 -0.00000000000E+00 -0.60195347747E+03  0.60195347747E+03  0.00000000000E+00 0. -1.
         25    2    1    2    0    0  0.24093513758E+03  0.59167275114E+03  0.50930780789E+03  0.82652567257E+03  0.12499543700E+03 0.  0.
          2    1    1    2  501    0 -0.64666263714E+02 -0.20903838037E+03 -0.38091138665E+03  0.43928607377E+03  0.00000000000E+00 0. -1.
          1    1    1    2  502    0 -0.17626887387E+03 -0.38263437077E+03  0.13013565856E+04  0.13678482155E+04  0.00000000000E+00 0. -1.
         22    1    3    3    0    0  0.20221515503E+03  0.57022400536E+03  0.48852060854E+03  0.77762379734E+03  0.00000000000E+00 0. -1.
         22    1    3    3    0    0  0.38719982553E+02  0.21448745775E+02  0.20787199354E+02  0.48901875232E+02  0.00000000000E+00 0. -1.
</event>
<event>
 7    1  0.5018917E-005  0.1357161E+03  0.7818608E-02  0.1289203E+00
          2   -1    0    0  502    0  0.00000000000E+00  0.00000000000E+00  0.17412852645E+04  0.17412852645E+04  0.00000000000E+00 0. -1.
          1   -1    0    0  501    0 -0.00000000000E+00 -0.00000000000E+00 -0.33130222132E+02  0.33130222132E+02  0.00000000000E+00 0. -1.
         25    2    1    2    0    0 -0.10395228186E+03 -0.10630151857E+03  0.31659409641E+03  0.37143390702E+03  0.12500094259E+03 0.  0.
          2    1    1    2  501    0  0.97077240764E+02  0.38912231306E+02  0.10152246418E+04  0.10205974847E+04  0.00000000000E+00 0. -1.
          1    1    1    2  502    0  0.68750410966E+01  0.67389287263E+02  0.37633630413E+03  0.38238409490E+03  0.00000000000E+00 0. -1.
         22    1    3    3    0    0 -0.10337132508E+03 -0.87052453582E+02  0.14292777651E+03  0.19670310069E+03  0.00000000000E+00 0.  1.
         22    1    3    3    0    0 -0.58095678291E+00 -0.19249064988E+02  0.17366631990E+03  0.17473080633E+03  0.00000000000E+00 0.  1.
</event>
<event>
 7    1  0.5018917E-005  0.2470192E+03  0.7818608E-02  0.1141405E+00
          2   -1    0    0  502    0  0.00000000000E+00  0.00000000000E+00  0.29745173434E+04  0.29745173434E+04  0.00000000000E+00 0. -1.
          1   -1    0    0  501    0 -0.00000000000E+00 -0.00000000000E+00 -0.10507233285E+03  0.10507233285E+03  0.00000000000E+00 0. -1.
         25    2    1    2    0    0 -0.31824920494E+02  0.38145727973E+03  0.12430684118E+04  0.13066625158E+04  0.12500148787E+03 0.  0.
          2    1    1    2  501    0 -0.35611338211E+02 -0.17529336000E+03  0.55703497839E+02  0.18734676176E+03  0.00000000000E+00 0. -1.
          1    1    1    2  502    0  0.67436258706E+02 -0.20616391973E+03  0.15706731009E+04  0.15855803986E+04  0.00000000000E+00 0. -1.
         22    1    3    3    0    0 -0.15220481566E+02  0.20076509627E+03  0.44821170927E+03  0.49135732747E+03  0.00000000000E+00 0. -1.
         22    1    3    3    0    0 -0.16604438928E+02  0.18069218346E+03  0.79485670256E+03  0.81530518835E+03  0.00000000000E+00 0. -1.
</event>
<event>
 7    1  0.5018917E-005  0.2182543E+03  0.7818608E-02  0.1213113E+00
          2   -1    0    0  502    0  0.00000000000E+00  0.00000000000E+00  0.61788479470E+03  0.61788479470E+03  0.00000000000E+00 0. -1.
          1   -1    0    0  501    0 -0.00000000000E+00 -0.00000000000E+00 -0.72732481886E+03  0.72732481886E+03  0.00000000000E+00 0. -1.
         25    2    1    2    0    0  0.73885163890E+02  0.29060895970E+03  0.14899291961E+03  0.35740443229E+03  0.12500581277E+03 0.  0.
          2    1    1    2  501    0 -0.69626423282E+02 -0.20070050332E+03 -0.59899475927E+03  0.63554956730E+03  0.00000000000E+00 0. -1.
          1    1    1    2  502    0 -0.42587406085E+01 -0.89908456376E+02  0.34056181550E+03  0.35225561398E+03  0.00000000000E+00 0. -1.
         22    1    3    3    0    0  0.38900629186E+02  0.26507365122E+03  0.16086062122E+03  0.31249550234E+03  0.00000000000E+00 0. -1.
         22    1    3    3    0    0  0.34984534705E+02  0.25535308482E+02 -0.11867701615E+02  0.44908929951E+02  0.00000000000E+00 0. -1.
</event>
<event>
 7    1  0.5018917E-005  0.1295625E+04  0.7818608E-02  0.1183192E+00
          2   -1    0    0  502    0  0.00000000000E+00  0.00000000000E+00  0.26823676446E+04  0.26823676446E+04  0.00000000000E+00 0. -1.
          1   -1    0    0  501    0 -0.00000000000E+00 -0.00000000000E+00 -0.80882564739E+03  0.80882564739E+03  0.00000000000E+00 0. -1.
         25    2    1    2    0    0  0.72928185322E+03 -0.10636157174E+04  0.13946242082E+04  0.19036116872E+04  0.12502143079E+03 0.  0.
          2    1    1    2  501    0  0.20388486595E+02 -0.50586176539E+01 -0.14093407122E+03  0.14249102578E+03  0.00000000000E+00 0. -1.
          1    1    1    2  502    0 -0.74967033981E+03  0.10686743350E+04  0.61985186026E+03  0.14450905790E+04  0.00000000000E+00 0. -1.
         22    1    3    3    0    0  0.15060627590E+03 -0.19096139611E+03  0.19852543607E+03  0.31394402990E+03  0.00000000000E+00 0. -1.
         22    1    3    3    0    0  0.57867557731E+03 -0.87265432126E+03  0.11960987721E+04  0.15896676573E+04  0.00000000000E+00 0. -1.
</event>
<event>
 7    1  0.5018917E-005  0.7163322E+03  0.7818608E-02  0.1109636E+00
          2   -1    0    0  502    0  0.00000000000E+00  0.00000000000E+00  0.16122290015E+04  0.16122290015E+04  0.00000000000E+00 0. -1.
          1   -1    0    0  501    0 -0.00000000000E+00 -0.00000000000E+00 -0.51421886073E+03  0.51421886073E+03  0.00000000000E+00 0. -1.
         25    2    1    2    0    0 -0.61422496224E+03  0.42274024871E+03  0.54496594299E+03  0.93198434975E+03  0.12500130819E+03 0.  0.
          2    1    1    2  501    0  0.53078378157E+03 -0.46007172543E+03  0.73469217244E+02  0.70625430349E+03  0.00000000000E+00 0. -1.
          1    1    1    2  502    0  0.83441180667E+02  0.37331476714E+02  0.47957498054E+03  0.48820920900E+03  0.00000000000E+00 0. -1.
         22    1    3    3    0    0 -0.45950055661E+03  0.36430765140E+03  0.38233001347E+03  0.70002647492E+03  0.00000000000E+00 0. -1.
         22    1    3    3    0    0 -0.15472440563E+03  0.58432597317E+02  0.16263592952E+03  0.23195787483E+03  0.00000000000E+00 0. -1.
</event>
<event>
 7    1  0.5018917E-005  0.2106554E+03  0.7818608E-02  0.1302237E+00
          2   -1    0    0  502    0  0.00000000000E+00  0.00000000000E+00  0.17249740068E+04  0.17249740068E+04  0.00000000000E+00 0. -1.
          1   -1    0    0  501    0 -0.00000000000E+00 -0.00000000000E+00 -0.17333024502E+03  0.17333024502E+03  0.00000000000E+00 0. -1.
         25    2    1    2    0    0  0.26926935994E+02  0.24326039138E+03  0.10959874490E+04  0.11299163241E+04  0.12498693238E+03 0.  0.
          2    1    1    2  501    0 -0.35360995847E+02 -0.20552222497E+03 -0.85836248096E+02  0.22551639957E+03  0.00000000000E+00 0. -1.
          1    1    1    2  502    0  0.84340598524E+01 -0.37738166406E+02  0.54149256088E+03  0.54287152813E+03  0.00000000000E+00 0. -1.
         22    1    3    3    0    0  0.76604382372E+02  0.12742033750E+03  0.60798606446E+03  0.62590033423E+03  0.00000000000E+00 0. -1.
         22    1    3    3    0    0 -0.49677446378E+02  0.11584005388E+03  0.48800138452E+03  0.50401598988E+03  0.00000000000E+00 0. -1.
</event>
<event>
 7    1  0.5018917E-005  0.5580512E+03  0.7818608E-02  0.1091879E+00
          2   -1    0    0  502    0  0.00000000000E+00  0.00000000000E+00  0.16163123556E+04  0.16163123556E+04  0.00000000000E+00 0. -1.
          1   -1    0    0  501    0 -0.00000000000E+00 -0.00000000000E+00 -0.10458713130E+04  0.10458713130E+04  0.00000000000E+00 0. -1.
         25    2    1    2    0    0 -0.28566592057E+03 -0.61865525450E+03  0.59563492975E+03  0.91364408554E+03  0.12500081361E+03 0.  0.
          2    1    1    2  501    0  0.27233002352E+03  0.47156610493E+03 -0.79559414476E+03  0.96411009548E+03  0.00000000000E+00 0. -1.
          1    1    1    2  502    0  0.13335897051E+02  0.14708914956E+03  0.77040025765E+03  0.78442948763E+03  0.00000000000E+00 0. -1.
         22    1    3    3    0    0  0.14120348026E+00 -0.33480562651E+02  0.66824076910E+02  0.74742392715E+02  0.00000000000E+00 0. -1.
         22    1    3    3    0    0 -0.28580712405E+03 -0.58517469185E+03  0.52881085284E+03  0.83890169282E+03  0.00000000000E+00 0. -1.
</event>
<event>
 7    1  0.5018917E-005  0.6966866E+03  0.7818608E-02  0.1175144E+00
          2   -1    0    0  502    0  0.00000000000E+00  0.00000000000E+00  0.10749537555E+04  0.10749537555E+04  0.00000000000E+00 0. -1.
          1   -1    0    0  501    0 -0.00000000000E+00 -0.00000000000E+00 -0.19504830374E+04  0.19504830374E+04  0.00000000000E+00 0. -1.
         25    2    1    2    0    0 -0.51447784609E+03  0.46266898563E+03  0.21867538346E+03  0.73633782951E+03  0.12499772583E+03 0.  0.
          2    1    1    2  501    0  0.22273960651E+02  0.36512028495E+02 -0.14855937775E+04  0.14862093154E+04  0.00000000000E+00 0. -1.
          1    1    1    2  502    0  0.49220388544E+03 -0.49918101412E+03  0.39138911214E+03  0.80288964796E+03  0.00000000000E+00 0. -1.
         22    1    3    3    0    0 -0.13599074297E+03  0.18612725506E+03  0.36284675254E+02  0.23335255497E+03  0.00000000000E+00 0.  1.
         22    1    3    3    0    0 -0.37848710312E+03  0.27654173056E+03  0.18239070820E+03  0.50298527454E+03  0.00000000000E+00 0.  1.
</event>
<event>
 7    1  0.5018917E-005  0.4306139E+03  0.7818608E-02  0.1175796E+00
          2   -1    0    0  502    0  0.00000000000E+00  0.00000000000E+00  0.81111236232E+03  0.81111236232E+03  0.00000000000E+00 0. -1.
          1   -1    0    0  501    0 -0.00000000000E+00 -0.00000000000E+00 -0.15641367780E+04  0.15641367780E+04  0.00000000000E+00 0. -1.
         25    2    1    2    0    0  0.24708738631E+03 -0.32281038390E+03  0.31844915014E+03  0.53131287464E+03  0.12499915641E+03 0.  0.
          2    1    1    2  501    0  0.66226290837E+02 -0.18225093137E+02 -0.13176654290E+04  0.13194545306E+04  0.00000000000E+00 0. -1.
          1    1    1    2  502    0 -0.31331367715E+03  0.34103547704E+03  0.24619186319E+03  0.52448173504E+03  0.00000000000E+00 0. -1.
         22    1    3    3    0    0  0.23548583318E+03 -0.31285393760E+03  0.33005338102E+03  0.51211951557E+03  0.00000000000E+00 0. -1.
         22    1    3    3    0    0  0.11601553130E+02 -0.99564462984E+01 -0.11604230884E+02  0.19193359069E+02  0.00000000000E+00 0. -1.
</event>
<event>
 7    1  0.5018917E-005  0.1035353E+04  0.7818608E-02  0.1043139E+00
          2   -1    0    0  502    0  0.00000000000E+00  0.00000000000E+00  0.44605455093E+04  0.44605455093E+04  0.00000000000E+00 0. -1.
          1   -1    0    0  501    0 -0.00000000000E+00 -0.00000000000E+00 -0.61249950721E+03  0.61249950721E+03  0.00000000000E+00 0. -1.
         25    2    1    2    0    0  0.39208406044E+02  0.11397248738E+04  0.11369591626E+04  0.16151814199E+04  0.12499917903E+03 0.  0.
          2    1    1    2  501    0  0.58790568518E+02 -0.14446942265E+03 -0.27093001850E+03  0.31261928915E+03  0.00000000000E+00 0. -1.
          1    1    1    2  502    0 -0.97998974561E+02 -0.99525545117E+03  0.29820168580E+04  0.31452443075E+04  0.00000000000E+00 0. -1.
         22    1    3    3    0    0  0.78649771232E+02  0.70253853914E+03  0.73905121473E+03  0.10227134904E+04  0.00000000000E+00 0. -1.
         22    1    3    3    0    0 -0.39441365189E+02  0.43718633468E+03  0.39790794782E+03  0.59246792948E+03  0.00000000000E+00 0. -1.
</event>
<event>
 7    1  0.5018917E-005  0.5488435E+03  0.7818608E-02  0.1138117E+00
          2   -1    0    0  502    0  0.00000000000E+00  0.00000000000E+00  0.51728803710E+03  0.51728803710E+03  0.00000000000E+00 0. -1.
          1   -1    0    0  501    0 -0.00000000000E+00 -0.00000000000E+00 -0.26790177722E+04  0.26790177722E+04  0.00000000000E+00 0. -1.
         25    2    1    2    0    0 -0.22399003153E+03  0.53075851379E+03 -0.18868968350E+03  0.61894276878E+03  0.12494086674E+03 0.  0.
          2    1    1    2  501    0 -0.46553389288E+02 -0.69637379369E+02 -0.20371804632E+04  0.20389018668E+04  0.00000000000E+00 0. -1.
          1    1    1    2  502    0  0.27054342082E+03 -0.46112113442E+03  0.64140411677E+02  0.53846117368E+03  0.00000000000E+00 0. -1.
         22    1    3    3    0    0 -0.10486416941E+03  0.20391747111E+03 -0.13738087717E+03  0.26730569478E+03  0.00000000000E+00 0. -1.
         22    1    3    3    0    0 -0.11912586212E+03  0.32684104267E+03 -0.51308806331E+02  0.35163707400E+03  0.00000000000E+00 0. -1.
</event>
<event>
 7    1  0.5018917E-005  0.8308934E+03  0.7818608E-02  0.1060452E+00
          2   -1    0    0  502    0  0.00000000000E+00  0.00000000000E+00  0.14963187357E+04  0.14963187357E+04  0.00000000000E+00 0. -1.
          1   -1    0    0  501    0 -0.00000000000E+00 -0.00000000000E+00 -0.18027941736E+04  0.18027941736E+04  0.00000000000E+00 0. -1.
         25    2    1    2    0    0  0.78644964332E+03  0.43843393375E+03 -0.32794723734E+03  0.96638611807E+03  0.12500153189E+03 0.  0.
          2    1    1    2  501    0 -0.74812306416E+03 -0.29139882564E+03 -0.10099379763E+04  0.12901845258E+04  0.00000000000E+00 0. -1.
          1    1    1    2  502    0 -0.38326579159E+02 -0.14703510811E+03  0.10314097757E+04  0.10425422654E+04  0.00000000000E+00 0. -1.
         22    1    3    3    0    0  0.24983100200E+03  0.83270895065E+02 -0.12601326617E+03  0.29193991638E+03  0.00000000000E+00 0.  1.
         22    1    3    3    0    0  0.53661864132E+03  0.35516303868E+03 -0.20193397117E+03  0.67444620169E+03  0.00000000000E+00 0.  1.
</event>
<event>
 7    1  0.5018917E-005  0.1626884E+03  0.7818608E-02  0.1319557E+00
          2   -1    0    0  502    0  0.00000000000E+00  0.00000000000E+00  0.24891610273E+04  0.24891610273E+04  0.00000000000E+00 0. -1.
          1   -1    0    0  501    0 -0.00000000000E+00 -0.00000000000E+00 -0.14054901688E+03  0.14054901688E+03  0.00000000000E+00 0. -1.
         25    2    1    2    0    0  0.98733441149E+02 -0.14722922853E+03  0.22901011527E+02  0.21811531609E+03  0.12500038659E+03 0.  0.
          2    1    1    2  501    0  0.20872993104E+02  0.37362212626E+02 -0.28738080480E+02  0.51550887898E+02  0.00000000000E+00 0. -1.
          1    1    1    2  502    0 -0.11960643425E+03  0.10986701591E+03  0.23544490794E+04  0.23600438402E+04  0.00000000000E+00 0. -1.
         22    1    3    3    0    0  0.41177603550E+02  0.11474658080E+01 -0.29382115417E+02  0.50598620716E+02  0.00000000000E+00 0. -1.
         22    1    3    3    0    0  0.57555837599E+02 -0.14837669434E+03  0.52283126944E+02  0.16751669537E+03  0.00000000000E+00 0. -1.
</event>
<event>
 7    1  0.5018917E-005  0.4325464E+03  0.7818608E-02  0.1193694E+00
          2   -1    0    0  502    0  0.00000000000E+00  0.00000000000E+00  0.15991604626E+04  0.15991604626E+04  0.00000000000E+00 0. -1.
          1   -1    0    0  501    0 -0.00000000000E+00 -0.00000000000E+00 -0.11989897928E+04  0.11989897928E+04  0.00000000000E+00 0. -1.
         25    2    1    2    0    0  0.89088128568E+02 -0.43208567856E+03  0.28875834184E+03  0.54188741808E+03  0.12500346242E+03 0.  0.
          2    1    1    2  501    0 -0.55948729482E+02  0.26612211901E+01 -0.10324668005E+04  0.10339850273E+04  0.00000000000E+00 0. -1.
          1    1    1    2  502    0 -0.33139399086E+02  0.42942445737E+03  0.11438791285E+04  0.12222778101E+04  0.00000000000E+00 0. -1.
         22    1    3    3    0    0  0.17605733261E+02 -0.90721915363E+02  0.12794538484E+03  0.15783044469E+03  0.00000000000E+00 0. -1.
         22    1    3    3    0    0  0.71482395307E+02 -0.34136376320E+03  0.16081295701E+03  0.38405697339E+03  0.00000000000E+00 0. -1.
</event>
<event>
 7    1  0.5018917E-005  0.1096744E+03  0.7818608E-02  0.1289448E+00
          2   -1    0    0  502    0  0.00000000000E+00  0.00000000000E+00  0.17111118922E+04  0.17111118922E+04  0.00000000000E+00 0. -1.
          1   -1    0    0  501    0 -0.00000000000E+00 -0.00000000000E+00 -0.35025016047E+02  0.35025016047E+02  0.00000000000E+00 0. -1.
         25    2    1    2    0    0 -0.10001034222E+03  0.17244847212E+02  0.12960751083E+04  0.13060377183E+04  0.12499752829E+03 0.  0.
          2    1    1    2  501    0  0.92257918785E+02  0.66026236962E+02  0.11231241262E+03  0.15964042588E+03  0.00000000000E+00 0. -1.
          1    1    1    2  502    0  0.77524234325E+01 -0.83271084174E+02  0.26769935531E+03  0.28045876410E+03  0.00000000000E+00 0. -1.
         22    1    3    3    0    0 -0.11831317869E+03 -0.16577508056E+02  0.85795130509E+03  0.86622933680E+03  0.00000000000E+00 0. -1.
         22    1    3    3    0    0  0.18302836477E+02  0.33822355268E+02  0.43812380317E+03  0.43980838151E+03  0.00000000000E+00 0. -1.
</event>
<event>
 7    1  0.5018917E-005  0.5089199E+03  0.7818608E-02  0.1107661E+00
          2   -1    0    0  502    0  0.00000000000E+00  0.00000000000E+00  0.17246878155E+04  0.17246878155E+04  0.00000000000E+00 0. -1.
          1   -1    0    0  501    0 -0.00000000000E+00 -0.00000000000E+00 -0.52257270694E+03  0.52257270694E+03  0.00000000000E+00 0. -1.
         25    2    1    2    0    0  0.53163799261E+03  0.26094890381E+03  0.15775079638E+03  0.62549516481E+03  0.12500240742E+03 0.  0.
          2    1    1    2  501    0 -0.40097665392E+03 -0.24252593141E+03 -0.92171893563E+02  0.47759476793E+03  0.00000000000E+00 0. -1.
          1    1    1    2  502    0 -0.13066133870E+03 -0.18422972394E+02  0.11365362057E+04  0.11441705897E+04  0.00000000000E+00 0. -1.
         22    1    3    3    0    0  0.39560915407E+03  0.13124385973E+03  0.12054777772E+03  0.43389321292E+03  0.00000000000E+00 0.  1.
         22    1    3    3    0    0  0.13602883854E+03  0.12970504407E+03  0.37203018651E+02  0.19160195190E+03  0.00000000000E+00 0.  1.
</event>
<event>
 7    1  0.5018917E-005  0.4872451E+03  0.7818608E-02  0.1209708E+00
          2   -1    0    0  502    0  0.00000000000E+00  0.00000000000E+00  0.11597814648E+04  0.11597814648E+04  0.00000000000E+00 0. -1.
          1   -1    0    0  501    0 -0.00000000000E+00 -0.00000000000E+00 -0.85064993293E+03  0.85064993293E+03  0.00000000000E+00 0. -1.
         25    2    1    2    0    0  0.28367700471E+03 -0.35915360528E+03  0.39243881789E+03  0.61570848951E+03  0.12499905235E+03 0.  0.
          2    1    1    2  501    0 -0.28540861743E+03  0.40092524659E+03 -0.65623580649E+03  0.82027103202E+03  0.00000000000E+00 0. -1.
          1    1    1    2  502    0  0.17316127198E+01 -0.41771641310E+02  0.57292852047E+03  0.57445187620E+03  0.00000000000E+00 0. -1.
         22    1    3    3    0    0  0.13379442407E+03 -0.15738346117E+03  0.25851163741E+03  0.33090598127E+03  0.00000000000E+00 0. -1.
         22    1    3    3    0    0  0.14988258063E+03 -0.20177014411E+03  0.13392718048E+03  0.28480250825E+03  0.00000000000E+00 0. -1.
</event>
<event>
 7    1  0.5018917E-005  0.1305012E+04  0.7818608E-02  0.1077278E+00
          2   -1    0    0  502    0  0.00000000000E+00  0.00000000000E+00  0.33808692415E+04  0.33808692415E+04  0.00000000000E+00 0. -1.
          1   -1    0    0  501    0 -0.00000000000E+00 -0.00000000000E+00 -0.14943248778E+04  0.14943248778E+04  0.00000000000E+00 0. -1.
         25    2    1    2    0    0 -0.11499819402E+04  0.55222208542E+03  0.30883594230E+03  0.13184881208E+04  0.12499436365E+03 0.  0.
          2    1    1    2  501    0  0.11627129133E+04 -0.62791205125E+03 -0.54732023430E+03  0.14302916842E+04  0.00000000000E+00 0. -1.
          1    1    1    2  502    0 -0.12730973132E+02  0.75689965834E+02  0.21250286557E+04  0.21264143143E+04  0.00000000000E+00 0. -1.
         22    1    3    3    0    0 -0.83287988470E+03  0.37584343394E+03  0.16695610938E+03  0.92888187173E+03  0.00000000000E+00 0. -1.
         22    1    3    3    0    0 -0.31710205551E+03  0.17637865149E+03  0.14187983292E+03  0.38960624905E+03  0.00000000000E+00 0. -1.
</event>
<event>
 7    1  0.5018917E-005  0.2416235E+03  0.7818608E-02  0.1158747E+00
          2   -1    0    0  502    0  0.00000000000E+00  0.00000000000E+00  0.24763450630E+03  0.24763450630E+03  0.00000000000E+00 0. -1.
          1   -1    0    0  501    0 -0.00000000000E+00 -0.00000000000E+00 -0.12789954649E+04  0.12789954649E+04  0.00000000000E+00 0. -1.
         25    2    1    2    0    0 -0.18296985700E+03 -0.31260036388E+03 -0.45908762314E+03  0.59798360844E+03  0.12500397662E+03 0.  0.
          2    1    1    2  501    0  0.98697225701E+02  0.18983174645E+03 -0.70030751473E+03  0.73226214534E+03  0.00000000000E+00 0. -1.
          1    1    1    2  502    0  0.84272631295E+02  0.12276861743E+03  0.12803417923E+03  0.19638421745E+03  0.00000000000E+00 0. -1.
         22    1    3    3    0    0 -0.16758833865E+03 -0.19305903132E+03 -0.36223503077E+03  0.44336425018E+03  0.00000000000E+00 0.  1.
         22    1    3    3    0    0 -0.15381518348E+02 -0.11954133257E+03 -0.96852592379E+02  0.15461935826E+03  0.00000000000E+00 0.  1.
</event>
<event>
 7    1  0.5018917E-005  0.4294336E+03  0.7818608E-02  0.1198801E+00
          2   -1    0    0  502    0  0.00000000000E+00  0.00000000000E+00  0.16808439800E+04  0.16808439800E+04  0.00000000000E+00 0. -1.
          1   -1    0    0  501    0 -0.00000000000E+00 -0.00000000000E+00 -0.52275776814E+03  0.52275776814E+03  0.00000000000E+00 0. -1.
         25    2    1    2    0    0  0.24264905068E+03  0.38783711363E+03  0.85383011417E+02  0.48188419698E+03  0.12500372858E+03 0.  0.
          2    1    1    2  501    0  0.16437686623E+02 -0.50760203525E+02 -0.28967362276E+03  0.29454643696E+03  0.00000000000E+00 0. -1.
          1    1    1    2  502    0 -0.25908673730E+03 -0.33707691010E+03  0.13623768232E+04  0.14271711141E+04  0.00000000000E+00 0. -1.
         22    1    3    3    0    0  0.15671328503E+03  0.14528226784E+03  0.10814368749E+02  0.21396948760E+03  0.00000000000E+00 0.  1.
         22    1    3    3    0    0  0.85935765652E+02  0.24255484579E+03  0.74568642668E+02  0.26791470938E+03  0.00000000000E+00 0.  1.
</event>
<event>
 7    1  0.5018917E-005  0.3377305E+03  0.7818608E-02  0.1250555E+00
          2   -1    0    0  502    0  0.00000000000E+00  0.00000000000E+00  0.20400592230E+04  0.20400592230E+04  0.00000000000E+00 0. -1.
          1   -1    0    0  501    0 -0.00000000000E+00 -0.00000000000E+00 -0.70083110870E+03  0.70083110870E+03  0.00000000000E+00 0. -1.
         25    2    1    2    0    0 -0.33611717491E+03  0.15200563984E+03  0.12007063200E+03  0.40757632226E+03  0.12498412693E+03 0.  0.
          2    1    1    2  501    0  0.30771541444E+03 -0.12446614995E+03 -0.50738580729E+03  0.60631753744E+03  0.00000000000E+00 0. -1.
          1    1    1    2  502    0  0.28401760467E+02 -0.27539489895E+02  0.17265432896E+04  0.17269964720E+04  0.00000000000E+00 0. -1.
         22    1    3    3    0    0 -0.30250684003E+03  0.91809607005E+02  0.12134561983E+03  0.33862095572E+03  0.00000000000E+00 0.  1.
         22    1    3    3    0    0 -0.33610334883E+02  0.60196032836E+02 -0.12749878345E+01  0.68955366536E+02  0.00000000000E+00 0.  1.
</event>
<event>
 7    1  0.5018917E-005  0.4226444E+03  0.7818608E-02  0.1173468E+00
          2   -1    0    0  502    0  0.00000000000E+00  0.00000000000E+00  0.99550630606E+03  0.99550630606E+03  0.00000000000E+00 0. -1.
          1   -1    0    0  501    0 -0.00000000000E+00 -0.00000000000E+00 -0.53541736879E+03  0.53541736879E+03  0.00000000000E+00 0. -1.
         25    2    1    2    0    0  0.66839720460E+02 -0.37618555477E+03  0.10706183649E+03  0.41601801019E+03  0.12500251246E+03 0.  0.
          2    1    1    2  501    0 -0.11705463829E+03  0.42758359300E+03 -0.24909880776E+03  0.50850735823E+03  0.00000000000E+00 0. -1.
          1    1    1    2  502    0  0.50214917831E+02 -0.51398038238E+02  0.60212590854E+03  0.60639830643E+03  0.00000000000E+00 0. -1.
         22    1    3    3    0    0  0.28789556254E+02 -0.10974947535E+02 -0.68583518479E+01  0.31564616468E+02  0.00000000000E+00 0. -1.
         22    1    3    3    0    0  0.38050164207E+02 -0.36521060723E+03  0.11392018834E+03  0.38445339372E+03  0.00000000000E+00 0. -1.
</event>
<event>
 7    1  0.5018917E-005  0.4607618E+03  0.7818608E-02  0.1197577E+00
          2   -1    0    0  502    0  0.00000000000E+00  0.00000000000E+00  0.13643058149E+04  0.13643058149E+04  0.00000000000E+00 0. -1.
          1   -1    0    0  501    0 -0.00000000000E+00 -0.00000000000E+00 -0.58398466645E+03  0.58398466645E+03  0.00000000000E+00 0. -1.
         25    2    1    2    0    0  0.31646340048E+03  0.29527827233E+03 -0.17192701338E+03  0.48220333120E+03  0.12499125066E+03 0.  0.
          2    1    1    2  501    0  0.49604953901E+02 -0.88893779965E+01 -0.20915190380E+03  0.21513761028E+03  0.00000000000E+00 0. -1.
          1    1    1    2  502    0 -0.36606835438E+03 -0.28638889433E+03  0.11614000656E+04  0.12509495399E+04  0.00000000000E+00 0. -1.
         22    1    3    3    0    0  0.27352163918E+03  0.29887157788E+03 -0.16911580884E+03  0.43901989017E+03  0.00000000000E+00 0. -1.
         22    1    3    3    0    0  0.42941761295E+02 -0.35933055568E+01 -0.28112045378E+01  0.43183441027E+02  0.00000000000E+00 0. -1.
</event>
<event>
 7    1  0.5018917E-005  0.5910426E+03  0.7818608E-02  0.1054756E+00
          2   -1    0    0  502    0  0.00000000000E+00  0.00000000000E+00  0.78907171280E+03  0.78907171280E+03  0.00000000000E+00 0. -1.
          1   -1    0    0  501    0 -0.00000000000E+00 -0.00000000000E+00 -0.16209077112E+04  0.16209077112E+04  0.00000000000E+00 0. -1.
         25    2    1    2    0    0 -0.64718803308E+03 -0.14565257244E+03 -0.11271268459E+04  0.13138153110E+04  0.12501488932E+03 0.  0.
          2    1    1    2  501    0  0.42840317870E+03  0.22106976166E+03 -0.22104370686E+03  0.53034087471E+03  0.00000000000E+00 0. -1.
          1    1    1    2  502    0  0.21878485437E+03 -0.75417189216E+02  0.51633455440E+03  0.56582323830E+03  0.00000000000E+00 0. -1.
         22    1    3    3    0    0 -0.34920490050E+03 -0.67730697311E+02 -0.72231023214E+03  0.80514817354E+03  0.00000000000E+00 0. -1.
         22    1    3    3    0    0 -0.29798313258E+03 -0.77921875132E+02 -0.40481661379E+03  0.50866713745E+03  0.00000000000E+00 0. -1.
</event>
<event>
 7    1  0.5018917E-005  0.6504457E+03  0.7818608E-02  0.1023698E+00
          2   -1    0    0  502    0  0.00000000000E+00  0.00000000000E+00  0.13086089601E+04  0.13086089601E+04  0.00000000000E+00 0. -1.
          1   -1    0    0  501    0 -0.00000000000E+00 -0.00000000000E+00 -0.11514038444E+04  0.11514038444E+04  0.00000000000E+00 0. -1.
         25    2    1    2    0    0  0.71464430813E+03 -0.94919752494E+02 -0.64275528208E+03  0.97390244962E+03  0.12500152873E+03 0.  0.
          2    1    1    2  501    0 -0.54616909845E+03 -0.18958348764E+03 -0.43883209405E+02  0.57980024056E+03  0.00000000000E+00 0. -1.
          1    1    1    2  502    0 -0.16847520968E+03  0.28450324013E+03  0.84384360716E+03  0.90631011429E+03  0.00000000000E+00 0. -1.
         22    1    3    3    0    0  0.59303101367E+03 -0.32426564400E+02 -0.50174077802E+03  0.77748380921E+03  0.00000000000E+00 0. -1.
         22    1    3    3    0    0  0.12161329447E+03 -0.62493188094E+02 -0.14101450405E+03  0.19641864041E+03  0.00000000000E+00 0. -1.
</event>
<event>
 7    1  0.5018917E-005  0.4178628E+03  0.7818608E-02  0.1283186E+00
          2   -1    0    0  502    0  0.00000000000E+00  0.00000000000E+00  0.55998619732E+03  0.55998619732E+03  0.00000000000E+00 0. -1.
          1   -1    0    0  501    0 -0.00000000000E+00 -0.00000000000E+00 -0.78835597749E+03  0.78835597749E+03  0.00000000000E+00 0. -1.
         25    2    1    2    0    0 -0.18432342991E+03 -0.39446244368E+03 -0.57270556711E+03  0.73020032787E+03  0.12500042375E+03 0.  0.
          2    1    1    2  501    0  0.19141297271E+02  0.13256985741E+02 -0.43790409120E+02  0.49595734323E+02  0.00000000000E+00 0. -1.
          1    1    1    2  502    0  0.16518213264E+03  0.38120545794E+03  0.38812619605E+03  0.56854611261E+03  0.00000000000E+00 0. -1.
         22    1    3    3    0    0 -0.16659497161E+03 -0.36211214469E+03 -0.44565476762E+03  0.59790238485E+03  0.00000000000E+00 0.  1.
         22    1    3    3    0    0 -0.17728458294E+02 -0.32350298988E+02 -0.12705079949E+03  0.13229794303E+03  0.00000000000E+00 0.  1.
</event>
<event>
 7    1  0.5018917E-005  0.6869757E+03  0.7818608E-02  0.1008404E+00
          2   -1    0    0  502    0  0.00000000000E+00  0.00000000000E+00  0.23228802591E+04  0.23228802591E+04  0.00000000000E+00 0. -1.
          1   -1    0    0  501    0 -0.00000000000E+00 -0.00000000000E+00 -0.15708205630E+04  0.15708205630E+04  0.00000000000E+00 0. -1.
         25    2    1    2    0    0 -0.96287763238E+03 -0.19798325996E+03 -0.77113847415E+02  0.99393319113E+03  0.12500374716E+03 0.  0.
          2    1    1    2  501    0  0.38037461118E+03 -0.10772902798E+03 -0.93596162398E+03  0.10160288135E+04  0.00000000000E+00 0. -1.
          1    1    1    2  502    0  0.58250302120E+03  0.30571228794E+03  0.17651351675E+04  0.18837388174E+04  0.00000000000E+00 0. -1.
         22    1    3    3    0    0 -0.46201156625E+03 -0.31341982918E+02 -0.34651196594E+02  0.46436807886E+03  0.00000000000E+00 0.  1.
         22    1    3    3    0    0 -0.50086606614E+03 -0.16664127704E+03 -0.42462650822E+02  0.52956511228E+03  0.00000000000E+00 0.  1.
</event>
<event>
 7    1  0.5018917E-005  0.5514006E+03  0.7818608E-02  0.1088443E+00
          2   -1    0    0  502    0  0.00000000000E+00  0.00000000000E+00  0.10223518588E+04  0.10223518588E+04  0.00000000000E+00 0. -1.
          1   -1    0    0  501    0 -0.00000000000E+00 -0.00000000000E+00 -0.10368377806E+04  0.10368377806E+04  0.00000000000E+00 0. -1.
         25    2    1    2    0    0 -0.22371276361E+03 -0.61378207444E+03 -0.57156131254E+02  0.66758550864E+03  0.12501100953E+03 0.  0.
          2    1    1    2  501    0  0.12167694490E+03  0.98289089457E+02 -0.56615077432E+03  0.58736081184E+03  0.00000000000E+00 0. -1.
          1    1    1    2  502    0  0.10203581870E+03  0.51549298498E+03  0.60882098372E+03  0.80424331895E+03  0.00000000000E+00 0. -1.
         22    1    3    3    0    0 -0.37685901424E+02 -0.39949267130E+02  0.22037782478E+02  0.59176304099E+02  0.00000000000E+00 0. -1.
         22    1    3    3    0    0 -0.18602686218E+03 -0.57383280731E+03 -0.79193913732E+02  0.60840920454E+03  0.00000000000E+00 0. -1.
</event>
<event>
 7    1  0.5018917E-005  0.9847923E+03  0.7818608E-02  0.1111819E+00
          2   -1    0    0  502    0  0.00000000000E+00  0.00000000000E+00  0.23805783224E+04  0.23805783224E+04  0.00000000000E+00 0. -1.
          1   -1    0    0  501    0 -0.00000000000E+00 -0.00000000000E+00 -0.15685069702E+04  0.15685069702E+04  0.00000000000E+00 0. -1.
         25    2    1    2    0    0 -0.10070764854E+04  0.19596682729E+03 -0.88338814343E+02  0.10373209413E+04  0.12499977795E+03 0.  0.
          2    1    1    2  501    0  0.95067892137E+03 -0.16431548469E+03 -0.77352501213E+03  0.12365803389E+04  0.00000000000E+00 0. -1.
          1    1    1    2  502    0  0.56397563981E+02 -0.31651342600E+02  0.16739351787E+04  0.16751840123E+04  0.00000000000E+00 0. -1.
         22    1    3    3    0    0 -0.84169446746E+03  0.20760280461E+03 -0.89493991494E+02  0.87152606131E+03  0.00000000000E+00 0.  1.
         22    1    3    3    0    0 -0.16538201790E+03 -0.11635977324E+02  0.11551771504E+01  0.16579488004E+03  0.00000000000E+00 0.  1.
</event>
<event>
 7    1  0.5018917E-005  0.5180738E+03  0.7818608E-02  0.1051482E+00
          2   -1    0    0  502    0  0.00000000000E+00  0.00000000000E+00  0.33969187474E+03  0.33969187474E+03  0.00000000000E+00 0. -1.
          1   -1    0    0  501    0 -0.00000000000E+00 -0.00000000000E+00 -0.25382100647E+04  0.25382100647E+04  0.00000000000E+00 0. -1.
         25    2    1    2    0    0  0.47003201182E+02 -0.56046079839E+03 -0.19609164985E+04  0.20438063148E+04  0.12500052368E+03 0.  0.
          2    1    1    2  501    0 -0.24456666993E+03  0.36692985683E+03 -0.32077948933E+03  0.54529795218E+03  0.00000000000E+00 0. -1.
          1    1    1    2  502    0  0.19756346875E+03  0.19353094156E+03  0.83177797916E+02  0.28879767242E+03  0.00000000000E+00 0. -1.
         22    1    3    3    0    0 -0.35266635795E+02 -0.14680448584E+03 -0.62042467226E+03  0.63853117904E+03  0.00000000000E+00 0. -1.
         22    1    3    3    0    0  0.82269836977E+02 -0.41365631255E+03 -0.13404918263E+04  0.14052751358E+04  0.00000000000E+00 0. -1.
</event>
<event>
 7    1  0.5018917E-005  0.6788985E+03  0.7818608E-02  0.1095004E+00
          2   -1    0    0  502    0  0.00000000000E+00  0.00000000000E+00  0.22973159604E+04  0.22973159604E+04  0.00000000000E+00 0. -1.
          1   -1    0    0  501    0 -0.00000000000E+00 -0.00000000000E+00 -0.94627386201E+03  0.94627386201E+03  0.00000000000E+00 0. -1.
         25    2    1    2    0    0 -0.29166334941E+03  0.68017053037E+03  0.32306031847E+03  0.81712464634E+03  0.12500103406E+03 0.  0.
          2    1    1    2  501    0 -0.44893163440E+02 -0.10752585154E+03 -0.62984112624E+03  0.64052872627E+03  0.00000000000E+00 0. -1.
          1    1    1    2  502    0  0.33655651285E+03 -0.57264467883E+03  0.16578229062E+04  0.17859364498E+04  0.00000000000E+00 0. -1.
         22    1    3    3    0    0 -0.70920287319E+02  0.27938769856E+03  0.17002671218E+03  0.33465841707E+03  0.00000000000E+00 0.  1.
         22    1    3    3    0    0 -0.22074306210E+03  0.40078283181E+03  0.15303360629E+03  0.48246622927E+03  0.00000000000E+00 0.  1.
</event>
<event>
 7    1  0.5018917E-005  0.9414687E+02  0.7818608E-02  0.1324281E+00
          2   -1    0    0  502    0  0.00000000000E+00  0.00000000000E+00  0.60985313746E+03  0.60985313746E+03  0.00000000000E+00 0. -1.
          1   -1    0    0  501    0 -0.00000000000E+00 -0.00000000000E+00 -0.17802156713E+03  0.17802156713E+03  0.00000000000E+00 0. -1.
         25    2    1    2    0    0  0.14181847060E+02 -0.44262894221E+02 -0.86037902407E+02  0.15871040535E+03  0.12500457401E+03 0.  0.
          2    1    1    2  501    0  0.77945402677E+01  0.13580890333E+03  0.39546689070E+02  0.14166422872E+03  0.00000000000E+00 0. -1.
          1    1    1    2  502    0 -0.21976387328E+02 -0.91546009110E+02  0.47832278367E+03  0.48750007052E+03  0.00000000000E+00 0. -1.
         22    1    3    3    0    0  0.46941496831E+02 -0.61269920557E+02 -0.93303374508E+02  0.12109098639E+03  0.00000000000E+00 0. -1.
         22    1    3    3    0    0 -0.32759649772E+02  0.17007026336E+02  0.72654721016E+01  0.37619418959E+02  0.00000000000E+00 0. -1.
</event>
<event>
 7    1  0.5018917E-005  0.4562845E+03  0.7818608E-02  0.1194056E+00
          2   -1    0    0  502    0  0.00000000000E+00  0.00000000000E+00  0.22142544212E+04  0.22142544212E+04  0.00000000000E+00 0. -1.
          1   -1    0    0  501    0 -0.00000000000E+00 -0.00000000000E+00 -0.78918833022E+03  0.78918833022E+03  0.00000000000E+00 0. -1.
         25    2    1    2    0    0  0.40518168227E+03  0.25601544660E+03  0.13485043896E+03  0.51334741274E+03  0.12499928293E+03 0.  0.
          2    1    1    2  501    0  0.26589828419E-01 -0.52887306261E+02 -0.57152705800E+03  0.57396885447E+03  0.00000000000E+00 0. -1.
          1    1    1    2  502    0 -0.40520827209E+03 -0.20312814034E+03  0.18617427100E+04  0.19161264842E+04  0.00000000000E+00 0. -1.
         22    1    3    3    0    0  0.33940589065E+03  0.22124170582E+03  0.15884264011E+03  0.43517265001E+03  0.00000000000E+00 0.  1.
         22    1    3    3    0    0  0.65775791615E+02  0.34773740783E+02 -0.23992201153E+02  0.78174762723E+02  0.00000000000E+00 0.  1.
</event>
<event>
 7    1  0.5018917E-005  0.2757815E+03  0.7818608E-02  0.1158097E+00
          2   -1    0    0  502    0  0.00000000000E+00  0.00000000000E+00  0.19731145911E+04  0.19731145911E+04  0.00000000000E+00 0. -1.
          1   -1    0    0  501    0 -0.00000000000E+00 -0.00000000000E+00 -0.39189669174E+04  0.39189669174E+04  0.00000000000E+00 0. -1.
         25    2    1    2    0    0  0.24181532710E+03  0.29286763656E+03 -0.54817215344E+03  0.67850147201E+03  0.12500173101E+03 0.  0.
          2    1    1    2  501    0 -0.21081135055E+03 -0.16511760245E+03 -0.32979325711E+04  0.33087859544E+04  0.00000000000E+00 0. -1.
          1    1    1    2  502    0 -0.31003976556E+02 -0.12775003411E+03  0.19002523983E+04  0.19047940821E+04  0.00000000000E+00 0. -1.
         22    1    3    3    0    0 -0.34835923938E+01  0.30961866932E+02 -0.97858773405E+02  0.10269913414E+03  0.00000000000E+00 0.  1.
         22    1    3    3    0    0  0.24529891949E+03  0.26190576963E+03 -0.45031338003E+03  0.57580233788E+03  0.00000000000E+00 0.  1.
</event>
<event>
 7    1  0.5018917E-005  0.6636413E+03  0.7818608E-02  0.1075166E+00
          2   -1    0    0  502    0  0.00000000000E+00  0.00000000000E+00  0.24583898661E+04  0.24583898661E+04  0.00000000000E+00 0. -1.
          1   -1    0    0  501    0 -0.00000000000E+00 -0.00000000000E+00 -0.37537182499E+03  0.37537182499E+03  0.00000000000E+00 0. -1.
         25    2    1    2    0    0 -0.71953314352E+03 -0.49329531910E+02  0.40209367644E+03  0.83514377258E+03  0.12499779558E+03 0.  0.
          2    1    1    2  501    0  0.59489837389E+03  0.14200827755E+03  0.45348978899E+03  0.76139570190E+03  0.00000000000E+00 0. -1.
          1    1    1    2  502    0  0.12463476963E+03 -0.92678745640E+02  0.12274345757E+04  0.12372222166E+04  0.00000000000E+00 0. -1.
         22    1    3    3    0    0 -0.19972666648E+03  0.31246271020E+02  0.15068192115E+03  0.25213510688E+03  0.00000000000E+00 0.  1.
         22    1    3    3    0    0 -0.51980647703E+03 -0.80575802930E+02  0.25141175529E+03  0.58300866570E+03  0.00000000000E+00 0.  1.
</event>
<event>
 7    1  0.5018917E-005  0.3893625E+03  0.7818608E-02  0.1304695E+00
          2   -1    0    0  502    0  0.00000000000E+00  0.00000000000E+00  0.23847546362E+04  0.23847546362E+04  0.00000000000E+00 0. -1.
          1   -1    0    0  501    0 -0.00000000000E+00 -0.00000000000E+00 -0.20519609696E+03  0.20519609696E+03  0.00000000000E+00 0. -1.
         25    2    1    2    0    0  0.31059835728E+03 -0.22095005235E+03  0.25589337258E+03  0.47580534979E+03  0.12497618804E+03 0.  0.
          2    1    1    2  501    0  0.18106576987E+02  0.95160180900E+01 -0.74941449617E+02  0.77682839811E+02  0.00000000000E+00 0. -1.
          1    1    1    2  502    0 -0.32870493427E+03  0.21143403426E+03  0.19986066162E+04  0.20364625435E+04  0.00000000000E+00 0. -1.
         22    1    3    3    0    0  0.16066786677E+03 -0.16579216182E+03  0.96791788209E+02  0.25033947871E+03  0.00000000000E+00 0.  1.
         22    1    3    3    0    0  0.14993049051E+03 -0.55157890523E+02  0.15910158437E+03  0.22546587108E+03  0.00000000000E+00 0.  1.
</event>
<event>
 7    1  0.5018917E-005  0.3087243E+03  0.7818608E-02  0.1261069E+00
          2   -1    0    0  502    0  0.00000000000E+00  0.00000000000E+00  0.28526385028E+03  0.28526385028E+03  0.00000000000E+00 0. -1.
          1   -1    0    0  501    0 -0.00000000000E+00 -0.00000000000E+00 -0.18282429900E+04  0.18282429900E+04  0.00000000000E+00 0. -1.
         25    2    1    2    0    0  0.12682585613E+03  0.31527655244E+03 -0.35153777406E+03  0.50466536080E+03  0.12499686995E+03 0.  0.
          2    1    1    2  501    0 -0.15275069607E+02 -0.35886349413E+02 -0.12912816969E+04  0.12918705734E+04  0.00000000000E+00 0. -1.
          1    1    1    2  502    0 -0.11155078652E+03 -0.27939020303E+03  0.99840331235E+02  0.31697090602E+03  0.00000000000E+00 0. -1.
         22    1    3    3    0    0  0.78918242257E+02  0.21292082846E+03 -0.30998059519E+03  0.38425426159E+03  0.00000000000E+00 0. -1.
         22    1    3    3    0    0  0.47907613874E+02  0.10235572398E+03 -0.41557178877E+02  0.12041109922E+03  0.00000000000E+00 0. -1.
</event>
<event>
 7    1  0.5018917E-005  0.2177322E+03  0.7818608E-02  0.1150265E+00
          2   -1    0    0  502    0  0.00000000000E+00  0.00000000000E+00  0.29568676558E+03  0.29568676558E+03  0.00000000000E+00 0. -1.
          1   -1    0    0  501    0 -0.00000000000E+00 -0.00000000000E+00 -0.90179157928E+03  0.90179157928E+03  0.00000000000E+00 0. -1.
         25    2    1    2    0    0 -0.30321801328E+03  0.22881504033E+03 -0.48678038669E+03  0.62998315360E+03  0.12500457072E+03 0.  0.
          2    1    1    2  501    0  0.16300000194E+03 -0.82239708342E+02 -0.26211630515E+03  0.31943282186E+03  0.00000000000E+00 0. -1.
          1    1    1    2  502    0  0.14021801134E+03 -0.14657533199E+03  0.14279187813E+03  0.24806236940E+03  0.00000000000E+00 0. -1.
         22    1    3    3    0    0 -0.16797866774E+03  0.50639833676E+02 -0.19467509879E+03  0.26206796763E+03  0.00000000000E+00 0. -1.
         22    1    3    3    0    0 -0.13523934554E+03  0.17817520666E+03 -0.29210528790E+03  0.36791518597E+03  0.00000000000E+00 0. -1.
</event>
<event>
 7    1  0.5018917E-005  0.2595283E+03  0.7818608E-02  0.1237823E+00
          2   -1    0    0  502    0  0.00000000000E+00  0.00000000000E+00  0.12545487537E+04  0.12545487537E+04  0.00000000000E+00 0. -1.
          1   -1    0    0  501    0 -0.00000000000E+00 -0.00000000000E+00 -0.23466310235E+03  0.23466310235E+03  0.00000000000E+00 0. -1.
         25    2    1    2    0    0  0.21971658099E+03  0.18668870088E+03  0.77289875434E+03  0.83434497994E+03  0.12502405403E+03 0.  0.
          2    1    1    2  501    0 -0.51822478809E+02 -0.27218930235E+02 -0.16895819902E+03  0.17881082878E+03  0.00000000000E+00 0. -1.
          1    1    1    2  502    0 -0.16789410219E+03 -0.15946977064E+03  0.41594509597E+03  0.47605604729E+03  0.00000000000E+00 0. -1.
         22    1    3    3    0    0  0.16232709515E+03  0.15850076161E+03  0.43666850037E+03  0.49208937853E+03  0.00000000000E+00 0.  1.
         22    1    3    3    0    0  0.57389485845E+02  0.28187939265E+02  0.33623025398E+03  0.34225560141E+03  0.00000000000E+00 0.  1.
</event>
<event>
 7    1  0.5018917E-005  0.1263490E+04  0.7818608E-02  0.1056540E+00
          2   -1    0    0  502    0  0.00000000000E+00  0.00000000000E+00  0.25878628164E+04  0.25878628164E+04  0.00000000000E+00 0. -1.
          1   -1    0    0  501    0 -0.00000000000E+00 -0.00000000000E+00 -0.19429293898E+04  0.19429293898E+04  0.00000000000E+00 0. -1.
         25    2    1    2    0    0  0.23221474704E+03 -0.12219646714E+04 -0.70015388027E+02  0.12520578052E+04  0.12500098402E+03 0.  0.
          2    1    1    2  501    0  0.10552623972E+03 -0.27942832952E+01 -0.10769686209E+04  0.10821298470E+04  0.00000000000E+00 0. -1.
          1    1    1    2  502    0 -0.33774098676E+03  0.12247589547E+04  0.17919174356E+04  0.21966045541E+04  0.00000000000E+00 0. -1.
         22    1    3    3    0    0  0.21794651476E+03 -0.11721350572E+04 -0.91970532268E+02  0.11957674751E+04  0.00000000000E+00 0.  1.
         22    1    3    3    0    0  0.14268232283E+02 -0.49829614204E+02  0.21955144240E+02  0.56290330101E+02  0.00000000000E+00 0.  1.
</event>
<event>
 7    1  0.5018917E-005  0.3873553E+03  0.7818608E-02  0.1206887E+00
          2   -1    0    0  502    0  0.00000000000E+00  0.00000000000E+00  0.10530553730E+04  0.10530553730E+04  0.00000000000E+00 0. -1.
          1   -1    0    0  501    0 -0.00000000000E+00 -0.00000000000E+00 -0.58733949713E+03  0.58733949713E+03  0.00000000000E+00 0. -1.
         25    2    1    2    0    0 -0.22476575046E+02  0.41644525678E+03  0.29890722327E+03  0.52811165410E+03  0.12499817098E+03 0.  0.
          2    1    1    2  501    0  0.33025177480E+02 -0.42978675613E+02 -0.41626448558E+03  0.41977845450E+03  0.00000000000E+00 0. -1.
          1    1    1    2  502    0 -0.10548602434E+02 -0.37346658117E+03  0.58307313814E+03  0.69250476149E+03  0.00000000000E+00 0. -1.
         22    1    3    3    0    0 -0.67438422975E+00  0.58661906649E+02  0.10575203737E+03  0.12093455872E+03  0.00000000000E+00 0. -1.
         22    1    3    3    0    0 -0.21802190816E+02  0.35778335014E+03  0.19315518590E+03  0.40717709538E+03  0.00000000000E+00 0. -1.
</event>
<event>
 7    1  0.5018917E-005  0.2444173E+03  0.7818608E-02  0.1234553E+00
          2   -1    0    0  502    0  0.00000000000E+00  0.00000000000E+00  0.68755536878E+03  0.68755536878E+03  0.00000000000E+00 0. -1.
          1   -1    0    0  501    0 -0.00000000000E+00 -0.00000000000E+00 -0.57382333301E+03  0.57382333301E+03  0.00000000000E+00 0. -1.
         25    2    1    2    0    0 -0.27681131604E+03  0.12028421124E+03  0.15342815895E+03  0.36091183373E+03  0.12499742239E+03 0.  0.
          2    1    1    2  501    0  0.21652202449E+03 -0.98026699941E+02 -0.43729224037E+03  0.49771028167E+03  0.00000000000E+00 0. -1.
          1    1    1    2  502    0  0.60289291548E+02 -0.22257511302E+02  0.39759611719E+03  0.40275658640E+03  0.00000000000E+00 0. -1.
         22    1    3    3    0    0 -0.12783499482E+03  0.11283505819E+03  0.11870697031E+03  0.20776159669E+03  0.00000000000E+00 0.  1.
         22    1    3    3    0    0 -0.14897632122E+03  0.74491530512E+01  0.34721188643E+02  0.15315023704E+03  0.00000000000E+00 0.  1.
</event>
<event>
 7    1  0.5018917E-005  0.9554128E+03  0.7818608E-02  0.1115146E+00
          2   -1    0    0  502    0  0.00000000000E+00  0.00000000000E+00  0.17111753016E+04  0.17111753016E+04  0.00000000000E+00 0. -1.
          1   -1    0    0  501    0 -0.00000000000E+00 -0.00000000000E+00 -0.66356336296E+03  0.66356336296E+03  0.00000000000E+00 0. -1.
         25    2    1    2    0    0  0.73135216068E+03 -0.61047727579E+03  0.50589729511E+03  0.10858696758E+04  0.12498956936E+03 0.  0.
          2    1    1    2  501    0 -0.37784603143E+02 -0.51546785928E+02 -0.11162413325E+03  0.12862618123E+03  0.00000000000E+00 0. -1.
          1    1    1    2  502    0 -0.69356755754E+03  0.66202406171E+03  0.65333877675E+03  0.11602428075E+04  0.00000000000E+00 0. -1.
         22    1    3    3    0    0  0.40962609801E+03 -0.42079090152E+03  0.30178535052E+03  0.66025216452E+03  0.00000000000E+00 0.  1.
         22    1    3    3    0    0  0.32172606267E+03 -0.18968637427E+03  0.20411194459E+03  0.42561751128E+03  0.00000000000E+00 0.  1.
</event>
<event>
 7    1  0.5018917E-005  0.8173732E+02  0.7818608E-02  0.1337767E+00
          2   -1    0    0  502    0  0.00000000000E+00  0.00000000000E+00  0.16333371391E+04  0.16333371391E+04  0.00000000000E+00 0. -1.
          1   -1    0    0  501    0 -0.00000000000E+00 -0.00000000000E+00 -0.22775020386E+02  0.22775020386E+02  0.00000000000E+00 0. -1.
         25    2    1    2    0    0 -0.80382722859E+01 -0.10094403150E+02  0.66535930055E+03  0.67712476560E+03  0.12501375350E+03 0.  0.
          2    1    1    2  501    0 -0.46535061234E+02  0.70944555652E+02  0.10581762299E+03  0.13563189609E+03  0.00000000000E+00 0. -1.
          1    1    1    2  502    0  0.54573333520E+02 -0.60850152502E+02  0.83938519516E+03  0.84335549778E+03  0.00000000000E+00 0. -1.
         22    1    3    3    0    0 -0.41656528715E+02  0.26004074410E+02  0.54271364473E+03  0.54493080152E+03  0.00000000000E+00 0.  1.
         22    1    3    3    0    0  0.33618256429E+02 -0.36098477560E+02  0.12264565582E+03  0.13219396408E+03  0.00000000000E+00 0.  1.
</event>
<event>
 7    1  0.5018917E-005  0.1609618E+03  0.7818608E-02  0.1228253E+00
          2   -1    0    0  502    0  0.00000000000E+00  0.00000000000E+00  0.25981109317E+04  0.25981109317E+04  0.00000000000E+00 0. -1.
          1   -1    0    0  501    0 -0.00000000000E+00 -0.00000000000E+00 -0.11339372853E+03  0.11339372853E+03  0.00000000000E+00 0. -1.
         25    2    1    2    0    0  0.25706912395E+03  0.87120925460E+01  0.13075984580E+04  0.13385063677E+04  0.12500053581E+03 0.  0.
          2    1    1    2  501    0 -0.15568478843E+03  0.15043579535E+02 -0.31794442698E+02  0.15960873792E+03  0.00000000000E+00 0. -1.
          1    1    1    2  502    0 -0.10138433552E+03 -0.23755672081E+02  0.12089131879E+04  0.12133895547E+04  0.00000000000E+00 0. -1.
         22    1    3    3    0    0  0.13704822724E+03  0.63824256274E+02  0.78913772554E+03  0.80348870692E+03  0.00000000000E+00 0. -1.
         22    1    3    3    0    0  0.12002089670E+03 -0.55112163728E+02  0.51846073244E+03  0.53501766076E+03  0.00000000000E+00 0. -1.
</event>
<event>
 7    1  0.5018917E-005  0.1052102E+04  0.7818608E-02  0.1027921E+00
          2   -1    0    0  502    0  0.00000000000E+00  0.00000000000E+00  0.36041425191E+04  0.36041425191E+04  0.00000000000E+00 0. -1.
          1   -1    0    0  501    0 -0.00000000000E+00 -0.00000000000E+00 -0.15332660098E+04  0.15332660098E+04  0.00000000000E+00 0. -1.
         25    2    1    2    0    0  0.10472942197E+04  0.62473144958E+03 -0.12801051879E+02  0.12259320803E+04  0.12502412521E+03 0.  0.
          2    1    1    2  501    0 -0.17165003441E+03 -0.85803466047E+02 -0.81424525918E+03  0.83655323274E+03  0.00000000000E+00 0. -1.
          1    1    1    2  502    0 -0.87564418532E+03 -0.53892798354E+03  0.28979228204E+04  0.30749232159E+04  0.00000000000E+00 0. -1.
         22    1    3    3    0    0  0.82329621145E+03  0.51231044650E+03 -0.57363091787E+02  0.97137488627E+03  0.00000000000E+00 0.  1.
         22    1    3    3    0    0  0.22399800828E+03  0.11242100308E+03  0.44562039908E+02  0.25455719406E+03  0.00000000000E+00 0.  1.
</event>
<event>
 7    1  0.5018917E-005  0.3572749E+03  0.7818608E-02  0.1182235E+00
          2   -1    0    0  502    0  0.00000000000E+00  0.00000000000E+00  0.16427128008E+04  0.16427128008E+04  0.00000000000E+00 0. -1.
          1   -1    0    0  501    0 -0.00000000000E+00 -0.00000000000E+00 -0.30329017900E+03  0.30329017900E+03  0.00000000000E+00 0. -1.
         25    2    1    2    0    0  0.32682322828E+03 -0.17348053196E+03  0.11789139920E+04  0.12419232852E+04  0.12500531320E+03 0.  0.
          2    1    1    2  501    0 -0.66968815490E+02 -0.37999379126E+02 -0.19856829110E+03  0.21297450855E+03  0.00000000000E+00 0. -1.
          1    1    1    2  502    0 -0.25985441279E+03  0.21147991108E+03  0.35907692094E+03  0.49110518607E+03  0.00000000000E+00 0. -1.
         22    1    3    3    0    0  0.10163625765E+02 -0.49213312143E+02  0.14107601528E+03  0.14975877760E+03  0.00000000000E+00 0. -1.
         22    1    3    3    0    0  0.31665960251E+03 -0.12426721981E+03  0.10378379767E+04  0.10921645076E+04  0.00000000000E+00 0. -1.
</event>
<event>
 7    1  0.5018917E-005  0.1733526E+03  0.7818608E-02  0.1191417E+00
          2   -1    0    0  502    0  0.00000000000E+00  0.00000000000E+00  0.25641649223E+03  0.25641649223E+03  0.00000000000E+00 0. -1.
          1   -1    0    0  501    0 -0.00000000000E+00 -0.00000000000E+00 -0.88843458633E+03  0.88843458633E+03  0.00000000000E+00 0. -1.
         25    2    1    2    0    0 -0.13933070239E+03 -0.24635643961E+03 -0.28134475464E+03  0.41819237481E+03  0.12500180567E+03 0.  0.
          2    1    1    2  501    0  0.30555340529E+02  0.15306022419E+03 -0.49754833100E+03  0.52145508219E+03  0.00000000000E+00 0. -1.
          1    1    1    2  502    0  0.10877536186E+03  0.93296215421E+02  0.14687499154E+03  0.20520362155E+03  0.00000000000E+00 0. -1.
         22    1    3    3    0    0 -0.13251551639E+03 -0.16126454337E+03 -0.25356145192E+03  0.32842050017E+03  0.00000000000E+00 0.  1.
         22    1    3    3    0    0 -0.68151859921E+01 -0.85091896238E+02 -0.27783302716E+02  0.89771874634E+02  0.00000000000E+00 0.  1.
</event>
<event>
 7    1  0.5018917E-005  0.6676863E+03  0.7818608E-02  0.1158980E+00
          2   -1    0    0  502    0  0.00000000000E+00  0.00000000000E+00  0.20897869534E+04  0.20897869534E+04  0.00000000000E+00 0. -1.
          1   -1    0    0  501    0 -0.00000000000E+00 -0.00000000000E+00 -0.40888747995E+04  0.40888747995E+04  0.00000000000E+00 0. -1.
         25    2    1    2    0    0  0.57383944495E+03  0.35972528412E+03  0.25812772694E+03  0.73549053186E+03  0.12498964131E+03 0.  0.
          2    1    1    2  501    0  0.15759007340E+02 -0.51378759664E+02 -0.37805166757E+04  0.37808986311E+04  0.00000000000E+00 0. -1.
          1    1    1    2  502    0 -0.58959845229E+03 -0.30834652446E+03  0.15233011026E+04  0.16622725900E+04  0.00000000000E+00 0. -1.
         22    1    3    3    0    0  0.11490268804E+03  0.17583064817E+02  0.46103250659E+02  0.12504919675E+03  0.00000000000E+00 0.  1.
         22    1    3    3    0    0  0.45893675691E+03  0.34214221930E+03  0.21202447628E+03  0.61044133511E+03  0.00000000000E+00 0.  1.
</event>
<event>
 7    1  0.5018917E-005  0.2632198E+03  0.7818608E-02  0.1231258E+00
          2   -1    0    0  502    0  0.00000000000E+00  0.00000000000E+00  0.75864215829E+03  0.75864215829E+03  0.00000000000E+00 0. -1.
          1   -1    0    0  501    0 -0.00000000000E+00 -0.00000000000E+00 -0.12372084676E+04  0.12372084676E+04  0.00000000000E+00 0. -1.
         25    2    1    2    0    0  0.15107285249E+03 -0.25754489637E+03 -0.39132536528E+03  0.50785107379E+03  0.12499916494E+03 0.  0.
          2    1    1    2  501    0 -0.94226945267E+02  0.23347798397E+03 -0.76606292616E+03  0.80637652065E+03  0.00000000000E+00 0. -1.
          1    1    1    2  502    0 -0.56845907223E+02  0.24066912398E+02  0.67882198218E+03  0.68162303140E+03  0.00000000000E+00 0. -1.
         22    1    3    3    0    0  0.69340581330E+02 -0.21902874992E+03 -0.24491109320E+03  0.33580225294E+03  0.00000000000E+00 0. -1.
         22    1    3    3    0    0  0.81732271159E+02 -0.38516146450E+02 -0.14641427208E+03  0.17204882085E+03  0.00000000000E+00 0. -1.
</event>
<event>
 7    1  0.5018917E-005  0.4032902E+02  0.7818608E-02  0.1519901E+00
          2   -1    0    0  502    0  0.00000000000E+00  0.00000000000E+00  0.84382285156E+03  0.84382285156E+03  0.00000000000E+00 0. -1.
          1   -1    0    0  501    0 -0.00000000000E+00 -0.00000000000E+00 -0.19393446271E+02  0.19393446271E+02  0.00000000000E+00 0. -1.
         25    2    1    2    0    0  0.14387691993E+02  0.44670192158E+02  0.27352073536E+03  0.30437438856E+03  0.12501097547E+03 0.  0.
          2    1    1    2  501    0 -0.35597668832E+02 -0.87926482691E+01  0.41671233171E+03  0.41832244990E+03  0.00000000000E+00 0. -1.
          1    1    1    2  502    0  0.21209976839E+02 -0.35877543889E+02  0.13419633821E+03  0.14051945938E+03  0.00000000000E+00 0. -1.
         22    1    3    3    0    0 -0.32378539817E+02  0.26923406036E+02  0.21203586378E+02  0.47146916215E+02  0.00000000000E+00 0. -1.
         22    1    3    3    0    0  0.46766231810E+02  0.17746786122E+02  0.25231714898E+03  0.25722747234E+03  0.00000000000E+00 0. -1.
</event>
<event>
 7    1  0.5018917E-005  0.3011541E+03  0.7818608E-02  0.1129001E+00
          2   -1    0    0  502    0  0.00000000000E+00  0.00000000000E+00  0.49881801378E+03  0.49881801378E+03  0.00000000000E+00 0. -1.
          1   -1    0    0  501    0 -0.00000000000E+00 -0.00000000000E+00 -0.20516061992E+04  0.20516061992E+04  0.00000000000E+00 0. -1.
         25    2    1    2    0    0 -0.53428905968E+02 -0.37369228918E+03 -0.29773618869E+02  0.39876425469E+03  0.12500354975E+03 0.  0.
          2    1    1    2  501    0 -0.10398786043E+03  0.13526707482E+03 -0.17674468210E+04  0.17756629527E+04  0.00000000000E+00 0. -1.
          1    1    1    2  502    0  0.15741676640E+03  0.23842521436E+03  0.24443225444E+03  0.37599700557E+03  0.00000000000E+00 0. -1.
         22    1    3    3    0    0  0.12345605020E+02 -0.15316768033E+03  0.39087047842E+02  0.15855771684E+03  0.00000000000E+00 0. -1.
         22    1    3    3    0    0 -0.65774510988E+02 -0.22052460885E+03 -0.68860666711E+02  0.24020653785E+03  0.00000000000E+00 0. -1.
</event>
<event>
 7    1  0.5018917E-005  0.3526267E+03  0.7818608E-02  0.1107656E+00
          2   -1    0    0  502    0  0.00000000000E+00  0.00000000000E+00  0.16229826908E+04  0.16229826908E+04  0.00000000000E+00 0. -1.
          1   -1    0    0  501    0 -0.00000000000E+00 -0.00000000000E+00 -0.63861510574E+03  0.63861510574E+03  0.00000000000E+00 0. -1.
         25    2    1    2    0    0 -0.45279170449E+03  0.72680073750E+02 -0.19919676779E+03  0.51537165185E+03  0.12500346579E+03 0.  0.
          2    1    1    2  501    0  0.27200646812E+03 -0.13257861482E+03 -0.19145660652E+03  0.35807853885E+03  0.00000000000E+00 0. -1.
          1    1    1    2  502    0  0.18078523637E+03  0.59898541067E+02  0.13750209594E+04  0.13881476059E+04  0.00000000000E+00 0. -1.
         22    1    3    3    0    0 -0.27015985212E+03  0.47399343493E+02 -0.18418256191E+03  0.33038804393E+03  0.00000000000E+00 0. -1.
         22    1    3    3    0    0 -0.18263185236E+03  0.25280730258E+02 -0.15014205887E+02  0.18498360792E+03  0.00000000000E+00 0. -1.
</event>
<event>
 7    1  0.5018917E-005  0.2966000E+03  0.7818608E-02  0.1260331E+00
          2   -1    0    0  502    0  0.00000000000E+00  0.00000000000E+00  0.30312975949E+03  0.30312975949E+03  0.00000000000E+00 0. -1.
          1   -1    0    0  501    0 -0.00000000000E+00 -0.00000000000E+00 -0.25570198663E+04  0.25570198663E+04  0.00000000000E+00 0. -1.
         25    2    1    2    0    0 -0.21448954243E+03  0.22678848149E+03 -0.17124120295E+04  0.17451131310E+04  0.12500440823E+03 0.  0.
          2    1    1    2  501    0  0.20054281592E+03 -0.18834906826E+03 -0.80378240397E+03  0.84956397373E+03  0.00000000000E+00 0. -1.
          1    1    1    2  502    0  0.13946726513E+02 -0.38439413229E+02  0.26230432664E+03  0.26547252108E+03  0.00000000000E+00 0. -1.
         22    1    3    3    0    0  0.38096941681E+01 -0.10608566294E+02 -0.29557981158E+02  0.31634312045E+02  0.00000000000E+00 0. -1.
         22    1    3    3    0    0 -0.21829923660E+03  0.23739704778E+03 -0.16828540483E+04  0.17134788189E+04  0.00000000000E+00 0. -1.
</event>
<event>
 7    1  0.5018917E-005  0.6469417E+03  0.7818608E-02  0.1238636E+00
          2   -1    0    0  502    0  0.00000000000E+00  0.00000000000E+00  0.25253586870E+04  0.25253586870E+04  0.00000000000E+00 0. -1.
          1   -1    0    0  501    0 -0.00000000000E+00 -0.00000000000E+00 -0.89400393916E+03  0.89400393916E+03  0.00000000000E+00 0. -1.
         25    2    1    2    0    0 -0.89947457845E+02  0.64927462023E+03  0.13889682261E+04  0.15409430065E+04  0.12499815322E+03 0.  0.
          2    1    1    2  501    0  0.15540643096E+02 -0.17344906703E+02 -0.72235972587E+03  0.72273503508E+03  0.00000000000E+00 0. -1.
          1    1    1    2  502    0  0.74406814748E+02 -0.63192971352E+03  0.96474624754E+03  0.11556845846E+04  0.00000000000E+00 0. -1.
         22    1    3    3    0    0 -0.15609854702E+02  0.25446508796E+03  0.67753860152E+03  0.72391622796E+03  0.00000000000E+00 0. -1.
         22    1    3    3    0    0 -0.74337603143E+02  0.39480953226E+03  0.71142962461E+03  0.81702677850E+03  0.00000000000E+00 0. -1.
</event>
<event>
 7    1  0.5018917E-005  0.1988485E+03  0.7818608E-02  0.1186819E+00
          2   -1    0    0  502    0  0.00000000000E+00  0.00000000000E+00  0.11542812378E+04  0.11542812378E+04  0.00000000000E+00 0. -1.
          1   -1    0    0  501    0 -0.00000000000E+00 -0.00000000000E+00 -0.24746927376E+03  0.24746927376E+03  0.00000000000E+00 0. -1.
         25    2    1    2    0    0 -0.37022707874E+02 -0.30091629570E+03  0.67796720872E+03  0.75311705246E+03  0.12499784274E+03 0.  0.
          2    1    1    2  501    0  0.78415821428E+02  0.17615280767E+03 -0.15213786184E+03  0.24561103742E+03  0.00000000000E+00 0. -1.
          1    1    1    2  502    0 -0.41393113554E+02  0.12476348803E+03  0.38098261717E+03  0.40302242168E+03  0.00000000000E+00 0. -1.
         22    1    3    3    0    0 -0.82281645126E+02 -0.22233674152E+03  0.47885074784E+03  0.53432381049E+03  0.00000000000E+00 0. -1.
         22    1    3    3    0    0  0.45258937252E+02 -0.78579554180E+02  0.19911646088E+03  0.21879324196E+03  0.00000000000E+00 0. -1.
</event>
<event>
 7    1  0.5018917E-005  0.1111362E+04  0.7818608E-02  0.1157905E+00
          2   -1    0    0  502    0  0.00000000000E+00  0.00000000000E+00  0.23081025866E+04  0.23081025866E+04  0.00000000000E+00 0. -1.
          1   -1    0    0  501    0 -0.00000000000E+00 -0.00000000000E+00 -0.11692358988E+04  0.11692358988E+04  0.00000000000E+00 0. -1.
         25    2    1    2    0    0  0.11103982903E+04 -0.38756923602E+02  0.47673172765E+03  0.12154780374E+04  0.12500902782E+03 0.  0.
          2    1    1    2  501    0  0.12866248167E+01  0.32669059216E+02 -0.58800877203E+03  0.58891700504E+03  0.00000000000E+00 0. -1.
          1    1    1    2  502    0 -0.11116849151E+04  0.60878643862E+01  0.12501437321E+04  0.16729434430E+04  0.00000000000E+00 0. -1.
         22    1    3    3    0    0  0.87967653117E+03 -0.76008819397E+02  0.35166661579E+03  0.95040914809E+03  0.00000000000E+00 0. -1.
         22    1    3    3    0    0  0.23072175911E+03  0.37251895795E+02  0.12506511186E+03  0.26506888929E+03  0.00000000000E+00 0. -1.
</event>
<event>
 7    1  0.5018917E-005  0.1650691E+03  0.7818608E-02  0.1214166E+00
          2   -1    0    0  502    0  0.00000000000E+00  0.00000000000E+00  0.28735344203E+04  0.28735344203E+04  0.00000000000E+00 0. -1.
          1   -1    0    0  501    0 -0.00000000000E+00 -0.00000000000E+00 -0.64641372584E+02  0.64641372584E+02  0.00000000000E+00 0. -1.
         25    2    1    2    0    0 -0.15218343301E+03 -0.20341567644E+03  0.50998670619E+03  0.58330778350E+03  0.12499518031E+03 0.  0.
          2    1    1    2  501    0  0.10599280365E+03  0.51147992907E+02  0.11292528317E+03  0.16310337576E+03  0.00000000000E+00 0. -1.
          1    1    1    2  502    0  0.46190629359E+02  0.15226768354E+03  0.21859810583E+04  0.21917646336E+04  0.00000000000E+00 0. -1.
         22    1    3    3    0    0  0.15979356376E+02 -0.42775006043E+02  0.13019085990E+03  0.13796630376E+03  0.00000000000E+00 0. -1.
         22    1    3    3    0    0 -0.16816278939E+03 -0.16064067040E+03  0.37979584629E+03  0.44534147974E+03  0.00000000000E+00 0. -1.
</event>
<event>
 7    1  0.5018917E-005  0.2345005E+03  0.7818608E-02  0.1145135E+00
          2   -1    0    0  502    0  0.00000000000E+00  0.00000000000E+00  0.87215432785E+03  0.87215432785E+03  0.00000000000E+00 0. -1.
          1   -1    0    0  501    0 -0.00000000000E+00 -0.00000000000E+00 -0.11720051077E+04  0.11720051077E+04  0.00000000000E+00 0. -1.
         25    2    1    2    0    0  0.83492549663E+02  0.26926902879E+03  0.77604471152E+03  0.83507315150E+03  0.12499983348E+03 0.  0.
          2    1    1    2  501    0  0.89015713213E+02 -0.21724459778E+03 -0.97439984561E+03  0.10022844265E+04  0.00000000000E+00 0. -1.
          1    1    1    2  502    0 -0.17250826288E+03 -0.52024431010E+02 -0.10149564577E+03  0.20680185756E+03  0.00000000000E+00 0. -1.
         22    1    3    3    0    0  0.50040742386E+02  0.94392802525E+02  0.46080531204E+03  0.47302813095E+03  0.00000000000E+00 0.  1.
         22    1    3    3    0    0  0.33451807277E+02  0.17487622626E+03  0.31523939948E+03  0.36204502055E+03  0.00000000000E+00 0.  1.
</event>
<event>
 7    1  0.5018917E-005  0.3751995E+03  0.7818608E-02  0.1302508E+00
          2   -1    0    0  502    0  0.00000000000E+00  0.00000000000E+00  0.83177638313E+03  0.83177638313E+03  0.00000000000E+00 0. -1.
          1   -1    0    0  501    0 -0.00000000000E+00 -0.00000000000E+00 -0.45805081650E+03  0.45805081650E+03  0.00000000000E+00 0. -1.
         25    2    1    2    0    0 -0.37646806393E+03  0.77104353995E+02  0.19897590345E+03  0.45043263799E+03  0.12499946662E+03 0.  0.
          2    1    1    2  501    0  0.36796780013E+03 -0.57185503557E+02 -0.22762053582E+03  0.43644196874E+03  0.00000000000E+00 0. -1.
          1    1    1    2  502    0  0.85002637988E+01 -0.19918850438E+02  0.40237019900E+03  0.40295259290E+03  0.00000000000E+00 0. -1.
         22    1    3    3    0    0 -0.25834527023E+03  0.16428660859E+02  0.76888362373E+02  0.27004444045E+03  0.00000000000E+00 0. -1.
         22    1    3    3    0    0 -0.11812279370E+03  0.60675693135E+02  0.12208754107E+03  0.18038819754E+03  0.00000000000E+00 0. -1.
</event>
<event>
 7    1  0.5018917E-005  0.3354660E+03  0.7818608E-02  0.1236532E+00
          2   -1    0    0  502    0  0.00000000000E+00  0.00000000000E+00  0.19352583244E+04  0.19352583244E+04  0.00000000000E+00 0. -1.
          1   -1    0    0  501    0 -0.00000000000E+00 -0.00000000000E+00 -0.63351653256E+03  0.63351653256E+03  0.00000000000E+00 0. -1.
         25    2    1    2    0    0  0.28900786534E+03  0.24101073547E+03  0.61712043525E+03  0.73353543391E+03  0.12499952142E+03 0.  0.
          2    1    1    2  501    0 -0.24686863725E+03 -0.22285086807E+03 -0.52677434570E+03  0.62297499528E+03  0.00000000000E+00 0. -1.
          1    1    1    2  502    0 -0.42139228088E+02 -0.18159867401E+02  0.12113957023E+04  0.12122644278E+04  0.00000000000E+00 0. -1.
         22    1    3    3    0    0  0.26386641050E+03  0.18456364495E+03  0.43498664519E+03  0.54120477005E+03  0.00000000000E+00 0. -1.
         22    1    3    3    0    0  0.25141454837E+02  0.56447090521E+02  0.18213379006E+03  0.19233066386E+03  0.00000000000E+00 0. -1.
</event>
<event>
 7    1  0.5018917E-005  0.4316780E+03  0.7818608E-02  0.1235460E+00
          2   -1    0    0  502    0  0.00000000000E+00  0.00000000000E+00  0.82652746472E+03  0.82652746472E+03  0.00000000000E+00 0. -1.
          1   -1    0    0  501    0 -0.00000000000E+00 -0.00000000000E+00 -0.60707947467E+03  0.60707947467E+03  0.00000000000E+00 0. -1.
         25    2    1    2    0    0 -0.16550554897E+03  0.42248919458E+03  0.17814433166E+03  0.50323968894E+03  0.12500230134E+03 0.  0.
          2    1    1    2  501    0  0.22406875897E+02 -0.28242548911E+02 -0.35292397947E+03  0.35476054592E+03  0.00000000000E+00 0. -1.
          1    1    1    2  502    0  0.14309867308E+03 -0.39424664567E+03  0.39422763785E+03  0.57560670454E+03  0.00000000000E+00 0. -1.
         22    1    3    3    0    0 -0.10455737747E+03  0.36507730779E+03  0.17825312272E+03  0.41950907214E+03  0.00000000000E+00 0. -1.
         22    1    3    3    0    0 -0.60948171503E+02  0.57411886793E+02 -0.10879105373E+00  0.83730616803E+02  0.00000000000E+00 0. -1.
</event>
<event>
 7    1  0.5018917E-005  0.4523557E+03  0.7818608E-02  0.1099018E+00
          2   -1    0    0  502    0  0.00000000000E+00  0.00000000000E+00  0.16851645652E+04  0.16851645652E+04  0.00000000000E+00 0. -1.
          1   -1    0    0  501    0 -0.00000000000E+00 -0.00000000000E+00 -0.64694697294E+03  0.64694697294E+03  0.00000000000E+00 0. -1.
         25    2    1    2    0    0  0.45680520070E+03  0.36707487306E+03  0.11144806521E+04  0.12653493250E+04  0.12500734653E+03 0.  0.
          2    1    1    2  501    0 -0.38624012773E+03 -0.21687120257E+03 -0.46613677881E+03  0.64303814143E+03  0.00000000000E+00 0. -1.
          1    1    1    2  502    0 -0.70565072965E+02 -0.15020367049E+03  0.38987371898E+03  0.42372407166E+03  0.00000000000E+00 0. -1.
         22    1    3    3    0    0  0.34979173150E+03  0.21793013534E+03  0.83176204903E+03  0.92826499747E+03  0.00000000000E+00 0.  1.
         22    1    3    3    0    0  0.10701346920E+03  0.14914473773E+03  0.28271860302E+03  0.33708432754E+03  0.00000000000E+00 0.  1.
</event>
<event>
 7    1  0.5018917E-005  0.1623240E+04  0.7818608E-02  0.1056136E+00
          2   -1    0    0  502    0  0.00000000000E+00  0.00000000000E+00  0.34887829282E+04  0.34887829282E+04  0.00000000000E+00 0. -1.
          1   -1    0    0  501    0 -0.00000000000E+00 -0.00000000000E+00 -0.41176313704E+04  0.41176313704E+04  0.00000000000E+00 0. -1.
         25    2    1    2    0    0  0.12758742600E+04 -0.90123123576E+03 -0.25350229730E+03  0.15874388182E+04  0.12500287713E+03 0.  0.
          2    1    1    2  501    0  0.80356184399E+02 -0.19282522428E+02 -0.29585051516E+04  0.29596590452E+04  0.00000000000E+00 0. -1.
          1    1    1    2  502    0 -0.13562304444E+04  0.92051375819E+03  0.25831590067E+04  0.30593164352E+04  0.00000000000E+00 0. -1.
         22    1    3    3    0    0  0.22410062423E+03 -0.21938827040E+03 -0.49147459049E+02  0.31743940477E+03  0.00000000000E+00 0.  1.
         22    1    3    3    0    0  0.10517736357E+04 -0.68184296536E+03 -0.20435483825E+03  0.12699994134E+04  0.00000000000E+00 0.  1.
</event>
<event>
 7    1  0.5381515E-005  0.4662019E+03  0.7818608E-02  0.1159020E+00
          2   -1    0    0  502    0  0.00000000000E+00  0.00000000000E+00  0.21774691822E+04  0.21774691822E+04  0.00000000000E+00 0. -1.
          1   -1    0    0  501    0 -0.00000000000E+00 -0.00000000000E+00 -0.12423612865E+04  0.12423612865E+04  0.00000000000E+00 0. -1.
         25    2    1    2    0    0 -0.27696079104E+03 -0.38821480309E+03 -0.11018377306E+03  0.50515697898E+03  0.12500038581E+03 0.  0.
          2    1    1    2  501    0  0.20544503403E+03  0.41656910153E+03 -0.87617071947E+03  0.99167162308E+03  0.00000000000E+00 0. -1.
          1    1    1    2  502    0  0.71515757003E+02 -0.28354298445E+02  0.19214623882E+04  0.19230018666E+04  0.00000000000E+00 0. -1.
         22    1    3    3    0    0 -0.85434103999E+02 -0.69703648857E+02  0.18593514827E+02  0.11181817197E+03  0.00000000000E+00 0.  1.
         22    1    3    3    0    0 -0.19152668704E+03 -0.31851115423E+03 -0.12877728789E+03  0.39333880700E+03  0.00000000000E+00 0.  1.
</event>
<event>
 7    1  0.5018917E-005  0.3536648E+03  0.7818608E-02  0.1236599E+00
          2   -1    0    0  502    0  0.00000000000E+00  0.00000000000E+00  0.21471867123E+04  0.21471867123E+04  0.00000000000E+00 0. -1.
          1   -1    0    0  501    0 -0.00000000000E+00 -0.00000000000E+00 -0.81734067279E+03  0.81734067279E+03  0.00000000000E+00 0. -1.
         25    2    1    2    0    0 -0.25477756283E+03  0.26604199050E+03  0.40501424808E+03  0.56156189356E+03  0.12500108766E+03 0.  0.
          2    1    1    2  501    0  0.41690122277E+02  0.12398076124E+02 -0.71993228421E+03  0.72124494621E+03  0.00000000000E+00 0. -1.
          1    1    1    2  502    0  0.21308744055E+03 -0.27844006663E+03  0.16447640757E+04  0.16817205454E+04  0.00000000000E+00 0. -1.
         22    1    3    3    0    0 -0.22116457395E+03  0.15257825747E+03  0.25438429979E+03  0.37000711534E+03  0.00000000000E+00 0.  1.
         22    1    3    3    0    0 -0.33612988874E+02  0.11346373303E+03  0.15062994829E+03  0.19155477822E+03  0.00000000000E+00 0.  1.
</event>
<event>
 7    1  0.5018917E-005  0.5837207E+03  0.7818608E-02  0.1153158E+00
          2   -1    0    0  502    0  0.00000000000E+00  0.00000000000E+00  0.10881767807E+04  0.10881767807E+04  0.00000000000E+00 0. -1.
          1   -1    0    0  501    0 -0.00000000000E+00 -0.00000000000E+00 -0.13887424682E+04  0.13887424682E+04  0.00000000000E+00 0. -1.
         25    2    1    2    0    0 -0.51267078237E+03 -0.33506867073E+03 -0.64180493231E+03  0.89590172339E+03  0.12499592651E+03 0.  0.
          2    1    1    2  501    0 -0.18499235346E+01  0.65786719158E+02 -0.52994657524E+03  0.53401749713E+03  0.00000000000E+00 0. -1.
          1    1    1    2  502    0  0.51452070590E+03  0.26928195157E+03  0.87118582006E+03  0.10470000283E+04  0.00000000000E+00 0. -1.
         22    1    3    3    0    0 -0.33971289731E+03 -0.23813841823E+03 -0.51173429165E+03  0.65877670275E+03  0.00000000000E+00 0. -1.
         22    1    3    3    0    0 -0.17295788506E+03 -0.96930252497E+02 -0.13007064066E+03  0.23712502064E+03  0.00000000000E+00 0. -1.
</event>
<event>
 7    1  0.5018917E-005  0.5673708E+03  0.7818608E-02  0.1168310E+00
          2   -1    0    0  502    0  0.00000000000E+00  0.00000000000E+00  0.55676211652E+03  0.55676211652E+03  0.00000000000E+00 0. -1.
          1   -1    0    0  501    0 -0.00000000000E+00 -0.00000000000E+00 -0.19992428128E+04  0.19992428128E+04  0.00000000000E+00 0. -1.
         25    2    1    2    0    0 -0.54579363989E+03  0.69528875443E+02  0.13967707190E+03  0.58125646809E+03  0.12499774166E+03 0.  0.
          2    1    1    2  501    0 -0.55324632249E+02 -0.12747370145E+02 -0.13120729646E+04  0.13133007176E+04  0.00000000000E+00 0. -1.
          1    1    1    2  502    0  0.60111827214E+03 -0.56781505298E+02 -0.27008480359E+03  0.66144774364E+03  0.00000000000E+00 0. -1.
         22    1    3    3    0    0 -0.17511136865E+03 -0.21476093191E+02  0.49703739496E+01  0.17649339541E+03  0.00000000000E+00 0.  1.
         22    1    3    3    0    0 -0.37068227124E+03  0.91004968634E+02  0.13470669795E+03  0.40476307268E+03  0.00000000000E+00 0.  1.
</event>
<event>
 7    1  0.5018917E-005  0.2961037E+03  0.7818608E-02  0.1124857E+00
          2   -1    0    0  502    0  0.00000000000E+00  0.00000000000E+00  0.22127087576E+03  0.22127087576E+03  0.00000000000E+00 0. -1.
          1   -1    0    0  501    0 -0.00000000000E+00 -0.00000000000E+00 -0.16714278532E+04  0.16714278532E+04  0.00000000000E+00 0. -1.
         25    2    1    2    0    0  0.39022642142E+03  0.12385111550E+03 -0.20469699680E+03  0.47449056857E+03  0.12499872149E+03 0.  0.
          2    1    1    2  501    0 -0.18252095240E+03 -0.65298174040E+01 -0.11448224875E+04  0.11592993852E+04  0.00000000000E+00 0. -1.
          1    1    1    2  502    0 -0.20770546902E+03 -0.11732129809E+03 -0.10063749311E+03  0.25890877518E+03  0.00000000000E+00 0. -1.
         22    1    3    3    0    0  0.39456342973E+03  0.11962630084E+03 -0.21311486208E+03  0.46412142417E+03  0.00000000000E+00 0.  1.
         22    1    3    3    0    0 -0.43370083030E+01  0.42248146529E+01  0.84178652751E+01  0.10369144404E+02  0.00000000000E+00 0.  1.
</event>
<event>
 7    1  0.5018917E-005  0.1301176E+03  0.7818608E-02  0.1271461E+00
          2   -1    0    0  502    0  0.00000000000E+00  0.00000000000E+00  0.19558289152E+03  0.19558289152E+03  0.00000000000E+00 0. -1.
          1   -1    0    0  501    0 -0.00000000000E+00 -0.00000000000E+00 -0.86313703446E+03  0.86313703446E+03  0.00000000000E+00 0. -1.
         25    2    1    2    0    0 -0.13490453868E+01 -0.20961734055E+03 -0.56513773058E+03  0.61558362183E+03  0.12498516536E+03 0.  0.
          2    1    1    2  501    0 -0.86685701263E+01  0.83190269592E+02 -0.24110676812E+03  0.25520234853E+03  0.00000000000E+00 0. -1.
          1    1    1    2  502    0  0.10017615513E+02  0.12642707096E+03  0.13869035576E+03  0.18793395561E+03  0.00000000000E+00 0. -1.
         22    1    3    3    0    0 -0.46544187546E+02 -0.37819535512E+02 -0.88390907221E+02  0.10681587494E+03  0.00000000000E+00 0. -1.
         22    1    3    3    0    0  0.45195142159E+02 -0.17179780504E+03 -0.47674682336E+03  0.50876774689E+03  0.00000000000E+00 0. -1.
</event>
<event>
 7    1  0.5018917E-005  0.8272979E+03  0.7818608E-02  0.1183998E+00
          2   -1    0    0  502    0  0.00000000000E+00  0.00000000000E+00  0.15218036598E+04  0.15218036598E+04  0.00000000000E+00 0. -1.
          1   -1    0    0  501    0 -0.00000000000E+00 -0.00000000000E+00 -0.29343249984E+04  0.29343249984E+04  0.00000000000E+00 0. -1.
         25    2    1    2    0    0 -0.39837677380E+03  0.72708857993E+03  0.11767478350E+04  0.14448962830E+04  0.12501177663E+03 0.  0.
          2    1    1    2  501    0  0.32395226667E+02  0.36789553941E+01 -0.20081265301E+04  0.20083911836E+04  0.00000000000E+00 0. -1.
          1    1    1    2  502    0  0.36598154713E+03 -0.73076753532E+03 -0.58114264350E+03  0.10028411916E+04  0.00000000000E+00 0. -1.
         22    1    3    3    0    0 -0.13438476848E+03  0.37515038637E+03  0.56192257504E+03  0.68887884184E+03  0.00000000000E+00 0.  1.
         22    1    3    3    0    0 -0.26399200532E+03  0.35193819357E+03  0.61482525999E+03  0.75601744112E+03  0.00000000000E+00 0.  1.
</event>
<event>
 7    1  0.5018917E-005  0.1727281E+04  0.7818608E-02  0.1085900E+00
          2   -1    0    0  502    0  0.00000000000E+00  0.00000000000E+00  0.21166259906E+04  0.21166259906E+04  0.00000000000E+00 0. -1.
          1   -1    0    0  501    0 -0.00000000000E+00 -0.00000000000E+00 -0.21873437647E+04  0.21873437647E+04  0.00000000000E+00 0. -1.
         25    2    1    2    0    0 -0.13301329203E+03  0.17336398744E+04  0.42955145614E+03  0.17953673154E+04  0.12501837373E+03 0.  0.
          2    1    1    2  501    0  0.83087548748E+02 -0.17204089465E+04 -0.10097079611E+04  0.19965521908E+04  0.00000000000E+00 0. -1.
          1    1    1    2  502    0  0.49925743281E+02 -0.13230927918E+02  0.50943873074E+03  0.51205024916E+03  0.00000000000E+00 0. -1.
         22    1    3    3    0    0 -0.65329061865E+01  0.55246040619E+02 -0.81724803637E+01  0.56228047295E+02  0.00000000000E+00 0.  1.
         22    1    3    3    0    0 -0.12648038584E+03  0.16783938338E+04  0.43772393650E+03  0.17391392681E+04  0.00000000000E+00 0.  1.
</event>
<event>
 7    1  0.5018917E-005  0.1621942E+04  0.7818608E-02  0.1165192E+00
          2   -1    0    0  502    0  0.00000000000E+00  0.00000000000E+00  0.22931866286E+04  0.22931866286E+04  0.00000000000E+00 0. -1.
          1   -1    0    0  501    0 -0.00000000000E+00 -0.00000000000E+00 -0.17245789272E+04  0.17245789272E+04  0.00000000000E+00 0. -1.
         25    2    1    2    0    0  0.56392501168E+02  0.16232973614E+04  0.14183797311E+04  0.21600228845E+04  0.12499344997E+03 0.  0.
          2    1    1    2  501    0  0.17319524435E+02 -0.11126205042E+02 -0.55150852868E+02  0.58867435288E+02  0.00000000000E+00 0. -1.
          1    1    1    2  502    0 -0.73712025603E+02 -0.16121711564E+04 -0.79462117676E+03  0.17988752360E+04  0.00000000000E+00 0. -1.
         22    1    3    3    0    0  0.26484820105E+02  0.81491400352E+03  0.79480071517E+03  0.11386371045E+04  0.00000000000E+00 0. -1.
         22    1    3    3    0    0  0.29907681064E+02  0.80838335787E+03  0.62357901591E+03  0.10213857801E+04  0.00000000000E+00 0. -1.
</event>
<event>
 7    1  0.5018917E-005  0.4323748E+03  0.7818608E-02  0.1168384E+00
          2   -1    0    0  502    0  0.00000000000E+00  0.00000000000E+00  0.12601652037E+04  0.12601652037E+04  0.00000000000E+00 0. -1.
          1   -1    0    0  501    0 -0.00000000000E+00 -0.00000000000E+00 -0.58862810580E+03  0.58862810580E+03  0.00000000000E+00 0. -1.
         25    2    1    2    0    0  0.28427342639E+03 -0.32007121059E+03 -0.37740109219E+03  0.58422159162E+03  0.12500529160E+03 0.  0.
          2    1    1    2  501    0 -0.24735650234E+03  0.38470868115E+03  0.38892360627E+03  0.60037286757E+03  0.00000000000E+00 0. -1.
          1    1    1    2  502    0 -0.36916924045E+02 -0.64637470558E+02  0.66001458387E+03  0.66419885034E+03  0.00000000000E+00 0. -1.
         22    1    3    3    0    0 -0.80104756293E+00  0.25268516033E+01 -0.32460734841E+02  0.32568788167E+02  0.00000000000E+00 0.  1.
         22    1    3    3    0    0  0.28507447395E+03 -0.32259806219E+03 -0.34494035735E+03  0.55165280345E+03  0.00000000000E+00 0.  1.
</event>
<event>
 7    1  0.5018917E-005  0.1691602E+03  0.7818608E-02  0.1256512E+00
          2   -1    0    0  502    0  0.00000000000E+00  0.00000000000E+00  0.23082271495E+03  0.23082271495E+03  0.00000000000E+00 0. -1.
          1   -1    0    0  501    0 -0.00000000000E+00 -0.00000000000E+00 -0.14257420245E+04  0.14257420245E+04  0.00000000000E+00 0. -1.
         25    2    1    2    0    0 -0.18543308347E+03 -0.43694552548E+02 -0.12482317653E+04  0.12688586526E+04  0.12500039241E+03 0.  0.
          2    1    1    2  501    0  0.11135732429E+03  0.51122449039E+02 -0.13673097414E+03  0.18360097429E+03  0.00000000000E+00 0. -1.
          1    1    1    2  502    0  0.74075759178E+02 -0.74278964917E+01  0.19004342985E+03  0.20410511256E+03  0.00000000000E+00 0. -1.
         22    1    3    3    0    0 -0.32787660547E+02  0.38536780568E+02 -0.39166572759E+03  0.39492044301E+03  0.00000000000E+00 0.  1.
         22    1    3    3    0    0 -0.15264542292E+03 -0.82231333115E+02 -0.85656603768E+03  0.87393820960E+03  0.00000000000E+00 0.  1.
</event>
<event>
 7    1  0.5018917E-005  0.1597846E+03  0.7818608E-02  0.1333164E+00
          2   -1    0    0  502    0  0.00000000000E+00  0.00000000000E+00  0.22547849232E+04  0.22547849232E+04  0.00000000000E+00 0. -1.
          1   -1    0    0  501    0 -0.00000000000E+00 -0.00000000000E+00 -0.21812594965E+03  0.21812594965E+03  0.00000000000E+00 0. -1.
         25    2    1    2    0    0  0.12063296448E+03  0.14830056012E+03  0.12566718582E+03  0.26069596057E+03  0.12499909605E+03 0.  0.
          2    1    1    2  501    0 -0.10257114782E+03 -0.11414963411E+03 -0.11128687519E+03  0.18956726490E+03  0.00000000000E+00 0. -1.
          1    1    1    2  502    0 -0.18061816665E+02 -0.34150926013E+02  0.20222786629E+04  0.20226476474E+04  0.00000000000E+00 0. -1.
         22    1    3    3    0    0  0.83228684951E+02  0.12781470639E+02  0.25178106470E+02  0.87888093823E+02  0.00000000000E+00 0. -1.
         22    1    3    3    0    0  0.37404279531E+02  0.13551908948E+03  0.10048907935E+03  0.17280786675E+03  0.00000000000E+00 0. -1.
</event>
<event>
 7    1  0.5018917E-005  0.3330463E+03  0.7818608E-02  0.1137044E+00
          2   -1    0    0  502    0  0.00000000000E+00  0.00000000000E+00  0.32135852002E+04  0.32135852002E+04  0.00000000000E+00 0. -1.
          1   -1    0    0  501    0 -0.00000000000E+00 -0.00000000000E+00 -0.16327902694E+04  0.16327902694E+04  0.00000000000E+00 0. -1.
         25    2    1    2    0    0  0.24335117997E+02  0.38111714538E+03  0.15877173491E+04  0.16377775722E+04  0.12500607611E+03 0.  0.
          2    1    1    2  501    0  0.10161255655E+03 -0.96082148443E+02 -0.15894958420E+04  0.15956358992E+04  0.00000000000E+00 0. -1.
          1    1    1    2  502    0 -0.12594767455E+03 -0.28503499694E+03  0.15825734237E+04  0.16129619982E+04  0.00000000000E+00 0. -1.
         22    1    3    3    0    0 -0.36986740439E+01  0.94804669225E+02  0.21138151865E+03  0.23169754406E+03  0.00000000000E+00 0.  1.
         22    1    3    3    0    0  0.28033792040E+02  0.28631247616E+03  0.13763358304E+04  0.14060800282E+04  0.00000000000E+00 0.  1.
</event>
<event>
 7    1  0.5018917E-005  0.1627004E+03  0.7818608E-02  0.1393911E+00
          2   -1    0    0  502    0  0.00000000000E+00  0.00000000000E+00  0.46584809142E+03  0.46584809142E+03  0.00000000000E+00 0. -1.
          1   -1    0    0  501    0 -0.00000000000E+00 -0.00000000000E+00 -0.16014277352E+04  0.16014277352E+04  0.00000000000E+00 0. -1.
         25    2    1    2    0    0 -0.18054087965E+03  0.86223753797E+01 -0.30419195756E+03  0.37527065649E+03  0.12500385595E+03 0.  0.
          2    1    1    2  501    0  0.15926297574E+03 -0.16892551801E+02 -0.12563063465E+04  0.12664737226E+04  0.00000000000E+00 0. -1.
          1    1    1    2  502    0  0.21277903911E+02  0.82701764217E+01  0.42491866027E+03  0.42553144756E+03  0.00000000000E+00 0. -1.
         22    1    3    3    0    0 -0.16959377891E+03  0.26013436976E+02 -0.17730426982E+03  0.24672971618E+03  0.00000000000E+00 0.  1.
         22    1    3    3    0    0 -0.10947100735E+02 -0.17391061596E+02 -0.12688768774E+03  0.12854094031E+03  0.00000000000E+00 0.  1.
</event>
<event>
 7    1  0.5018917E-005  0.1142968E+04  0.7818608E-02  0.1106418E+00
          2   -1    0    0  502    0  0.00000000000E+00  0.00000000000E+00  0.15069210644E+04  0.15069210644E+04  0.00000000000E+00 0. -1.
          1   -1    0    0  501    0 -0.00000000000E+00 -0.00000000000E+00 -0.24384523873E+04  0.24384523873E+04  0.00000000000E+00 0. -1.
         25    2    1    2    0    0 -0.16623359986E+03  0.11765277513E+04  0.11484664125E+03  0.12002774848E+04  0.12500052091E+03 0.  0.
          2    1    1    2  501    0  0.14062960472E+03 -0.11226012457E+04 -0.17255098514E+04  0.20633454606E+04  0.00000000000E+00 0. -1.
          1    1    1    2  502    0  0.25603995143E+02 -0.53926505616E+02  0.67913188717E+03  0.68175050623E+03  0.00000000000E+00 0. -1.
         22    1    3    3    0    0 -0.16066786745E+03  0.11641147928E+04  0.98881674590E+02  0.11793027601E+04  0.00000000000E+00 0.  1.
         22    1    3    3    0    0 -0.55657324119E+01  0.12412958533E+02  0.15964966660E+02  0.20974724725E+02  0.00000000000E+00 0.  1.
</event>
<event>
 7    1  0.5018917E-005  0.2560716E+03  0.7818608E-02  0.1178177E+00
          2   -1    0    0  502    0  0.00000000000E+00  0.00000000000E+00  0.31924658579E+04  0.31924658579E+04  0.00000000000E+00 0. -1.
          1   -1    0    0  501    0 -0.00000000000E+00 -0.00000000000E+00 -0.21034727892E+04  0.21034727892E+04  0.00000000000E+00 0. -1.
         25    2    1    2    0    0  0.28294725148E+03  0.16644706084E+03  0.32038553594E+03  0.47543219143E+03  0.12500042329E+03 0.  0.
          2    1    1    2  501    0 -0.17252135566E+03 -0.18763875333E+03 -0.20167932136E+04  0.20328371273E+04  0.00000000000E+00 0. -1.
          1    1    1    2  502    0 -0.11042589582E+03  0.21191692489E+02  0.27854007464E+04  0.27876693284E+04  0.00000000000E+00 0. -1.
         22    1    3    3    0    0  0.63213086366E+02  0.98367380230E+02  0.74130277734E+02  0.13844614064E+03  0.00000000000E+00 0. -1.
         22    1    3    3    0    0  0.21973416511E+03  0.68079680615E+02  0.24625525821E+03  0.33698605078E+03  0.00000000000E+00 0. -1.
</event>
<event>
 7    1  0.5018917E-005  0.2884262E+03  0.7818608E-02  0.1141306E+00
          2   -1    0    0  502    0  0.00000000000E+00  0.00000000000E+00  0.57759725118E+03  0.57759725118E+03  0.00000000000E+00 0. -1.
          1   -1    0    0  501    0 -0.00000000000E+00 -0.00000000000E+00 -0.27668507161E+04  0.27668507161E+04  0.00000000000E+00 0. -1.
         25    2    1    2    0    0  0.40227152849E+03  0.64109253502E+02 -0.87353744373E+03  0.97191797030E+03  0.12499798542E+03 0.  0.
          2    1    1    2  501    0 -0.14372890204E+03  0.53539152644E+02 -0.18024554027E+04  0.18089692969E+04  0.00000000000E+00 0. -1.
          1    1    1    2  502    0 -0.25854262645E+03 -0.11764840615E+03  0.48673938156E+03  0.56356070012E+03  0.00000000000E+00 0. -1.
         22    1    3    3    0    0  0.14144910761E+03  0.96824972390E+01 -0.18116520432E+03  0.23004876016E+03  0.00000000000E+00 0. -1.
         22    1    3    3    0    0  0.26082242088E+03  0.54426756263E+02 -0.69237223941E+03  0.74186921013E+03  0.00000000000E+00 0. -1.
</event>
<event>
 7    1  0.5018917E-005  0.1183708E+04  0.7818608E-02  0.1079291E+00
          2   -1    0    0  502    0  0.00000000000E+00  0.00000000000E+00  0.37997970055E+04  0.37997970055E+04  0.00000000000E+00 0. -1.
          1   -1    0    0  501    0 -0.00000000000E+00 -0.00000000000E+00 -0.10254094164E+04  0.10254094164E+04  0.00000000000E+00 0. -1.
         25    2    1    2    0    0  0.77307427773E+03  0.88145406514E+03 -0.77640089478E+02  0.11816337658E+04  0.12500106100E+03 0.  0.
          2    1    1    2  501    0 -0.73431270804E+03 -0.95410822090E+03  0.52227921120E+03  0.13123693172E+04  0.00000000000E+00 0. -1.
          1    1    1    2  502    0 -0.38761569687E+02  0.72654155759E+02  0.23297484674E+04  0.23312033388E+04  0.00000000000E+00 0. -1.
         22    1    3    3    0    0  0.32050630342E+03  0.28084396155E+03 -0.58340325765E+01  0.42618265709E+03  0.00000000000E+00 0. -1.
         22    1    3    3    0    0  0.45256797431E+03  0.60061010359E+03 -0.71806056901E+02  0.75545110875E+03  0.00000000000E+00 0. -1.
</event>
<event>
 7    1  0.5018917E-005  0.1377193E+03  0.7818608E-02  0.1249860E+00
          2   -1    0    0  502    0  0.00000000000E+00  0.00000000000E+00  0.21201166175E+04  0.21201166175E+04  0.00000000000E+00 0. -1.
          1   -1    0    0  501    0 -0.00000000000E+00 -0.00000000000E+00 -0.18153068532E+04  0.18153068532E+04  0.00000000000E+00 0. -1.
         25    2    1    2    0    0  0.14235737116E+03 -0.17448621642E+03  0.33839947553E+03  0.42526533002E+03  0.12500134014E+03 0.  0.
          2    1    1    2  501    0 -0.10960972131E+03  0.82446373706E+02 -0.17678429748E+04  0.17731555146E+04  0.00000000000E+00 0. -1.
          1    1    1    2  502    0 -0.32747649849E+02  0.92039842718E+02  0.17342532635E+04  0.17370026262E+04  0.00000000000E+00 0. -1.
         22    1    3    3    0    0  0.15351785420E+03 -0.10254077636E+03  0.23632853909E+03  0.29988918080E+03  0.00000000000E+00 0. -1.
         22    1    3    3    0    0 -0.11160483041E+02 -0.71945440067E+02  0.10207093644E+03  0.12537614922E+03  0.00000000000E+00 0. -1.
</event>
<event>
 7    1  0.5018917E-005  0.3954208E+03  0.7818608E-02  0.1202544E+00
          2   -1    0    0  502    0  0.00000000000E+00  0.00000000000E+00  0.39054424324E+04  0.39054424324E+04  0.00000000000E+00 0. -1.
          1   -1    0    0  501    0 -0.00000000000E+00 -0.00000000000E+00 -0.62505661288E+02  0.62505661288E+02  0.00000000000E+00 0. -1.
         25    2    1    2    0    0  0.34997525538E+03  0.23498713450E+03  0.23751355238E+04  0.24154907081E+04  0.12499988635E+03 0.  0.
          2    1    1    2  501    0 -0.47240823576E+02 -0.29394249111E+02  0.20001160441E+02  0.59124983821E+02  0.00000000000E+00 0. -1.
          1    1    1    2  502    0 -0.30273443180E+03 -0.20559288539E+03  0.14478000869E+04  0.14933324018E+04  0.00000000000E+00 0. -1.
         22    1    3    3    0    0  0.33252828635E+03  0.17341250284E+03  0.20731752080E+04  0.21068228213E+04  0.00000000000E+00 0. -1.
         22    1    3    3    0    0  0.17446969028E+02  0.61574631656E+02  0.30196031579E+03  0.30866788673E+03  0.00000000000E+00 0. -1.
</event>
<event>
 7    1  0.5018917E-005  0.5833885E+03  0.7818608E-02  0.1232141E+00
          2   -1    0    0  502    0  0.00000000000E+00  0.00000000000E+00  0.26030767439E+04  0.26030767439E+04  0.00000000000E+00 0. -1.
          1   -1    0    0  501    0 -0.00000000000E+00 -0.00000000000E+00 -0.66072049763E+03  0.66072049763E+03  0.00000000000E+00 0. -1.
         25    2    1    2    0    0 -0.36994993665E+03  0.43691032608E+03  0.16808929764E+03  0.60961642309E+03  0.12499833064E+03 0.  0.
          2    1    1    2  501    0  0.39746536781E+03 -0.43474615639E+03 -0.24265149643E+03  0.63707353407E+03  0.00000000000E+00 0. -1.
          1    1    1    2  502    0 -0.27515431152E+02 -0.21641696893E+01  0.20169184450E+04  0.20171072843E+04  0.00000000000E+00 0. -1.
         22    1    3    3    0    0 -0.34806329425E+03  0.34198459421E+03  0.15038316292E+03  0.51060416682E+03  0.00000000000E+00 0. -1.
         22    1    3    3    0    0 -0.21886642400E+02  0.94925731867E+02  0.17706134719E+02  0.99012256276E+02  0.00000000000E+00 0. -1.
</event>
<event>
 7    1  0.5018917E-005  0.3986160E+03  0.7818608E-02  0.1285734E+00
          2   -1    0    0  502    0  0.00000000000E+00  0.00000000000E+00  0.98616091372E+03  0.98616091372E+03  0.00000000000E+00 0. -1.
          1   -1    0    0  501    0 -0.00000000000E+00 -0.00000000000E+00 -0.28840385761E+03  0.28840385761E+03  0.00000000000E+00 0. -1.
         25    2    1    2    0    0  0.36827409911E+03  0.18309001144E+03  0.61678831638E+03  0.75179741691E+03  0.12499505786E+03 0.  0.
          2    1    1    2  501    0 -0.36147762785E+03 -0.16025218212E+03 -0.41889445868E+02  0.39761987247E+03  0.00000000000E+00 0. -1.
          1    1    1    2  502    0 -0.67964712634E+01 -0.22837829318E+02  0.12285818560E+03  0.12514748195E+03  0.00000000000E+00 0. -1.
         22    1    3    3    0    0 -0.50243249471E+01  0.17445976567E+02  0.50044616035E+02  0.53235979691E+02  0.00000000000E+00 0. -1.
         22    1    3    3    0    0  0.37329842406E+03  0.16564403488E+03  0.56674370034E+03  0.69856143722E+03  0.00000000000E+00 0. -1.
</event>
<event>
 7    1  0.5018917E-005  0.6561789E+03  0.7818608E-02  0.1164212E+00
          2   -1    0    0  502    0  0.00000000000E+00  0.00000000000E+00  0.32669074950E+04  0.32669074950E+04  0.00000000000E+00 0. -1.
          1   -1    0    0  501    0 -0.00000000000E+00 -0.00000000000E+00 -0.65463279394E+03  0.65463279394E+03  0.00000000000E+00 0. -1.
         25    2    1    2    0    0 -0.67884717237E+03 -0.69024803254E+01  0.12752554808E+04  0.14500949675E+04  0.12497098018E+03 0.  0.
          2    1    1    2  501    0  0.65128324563E+03  0.50359981407E+02 -0.37862791118E+03  0.75502654847E+03  0.00000000000E+00 0. -1.
          1    1    1    2  502    0  0.27563926737E+02 -0.43457501082E+02  0.17156471314E+04  0.17164187729E+04  0.00000000000E+00 0. -1.
         22    1    3    3    0    0 -0.10145123180E+03 -0.11858929246E+02  0.11308459411E+03  0.15238475010E+03  0.00000000000E+00 0.  1.
         22    1    3    3    0    0 -0.57739594057E+03  0.49564489203E+01  0.11621708867E+04  0.12977102174E+04  0.00000000000E+00 0.  1.
</event>
<event>
 7    1  0.5018917E-005  0.1978052E+03  0.7818608E-02  0.1166581E+00
          2   -1    0    0  502    0  0.00000000000E+00  0.00000000000E+00  0.47493801241E+03  0.47493801241E+03  0.00000000000E+00 0. -1.
          1   -1    0    0  501    0 -0.00000000000E+00 -0.00000000000E+00 -0.89474447943E+03  0.89474447943E+03  0.00000000000E+00 0. -1.
         25    2    1    2    0    0 -0.15140987729E+03  0.28137729632E+03 -0.22565313704E+02  0.34385073291E+03  0.12500399718E+03 0.  0.
          2    1    1    2  501    0  0.10171373738E+02 -0.16580256885E+03 -0.67408283830E+03  0.69424896224E+03  0.00000000000E+00 0. -1.
          1    1    1    2  502    0  0.14123850356E+03 -0.11557472747E+03  0.27684168499E+03  0.33158279670E+03  0.00000000000E+00 0. -1.
         22    1    3    3    0    0 -0.20392804415E+02  0.65496116054E+02 -0.56738159804E+02  0.89021494416E+02  0.00000000000E+00 0.  1.
         22    1    3    3    0    0 -0.13101707288E+03  0.21588118027E+03  0.34172846101E+02  0.25482923849E+03  0.00000000000E+00 0.  1.
</event>
<event>
 7    1  0.5018917E-005  0.3338282E+03  0.7818608E-02  0.1172313E+00
          2   -1    0    0  502    0  0.00000000000E+00  0.00000000000E+00  0.13599292129E+04  0.13599292129E+04  0.00000000000E+00 0. -1.
          1   -1    0    0  501    0 -0.00000000000E+00 -0.00000000000E+00 -0.24685222888E+03  0.24685222888E+03  0.00000000000E+00 0. -1.
         25    2    1    2    0    0  0.26751582483E+03 -0.28546472484E+03  0.66263471348E+03  0.77959195828E+03  0.12499612892E+03 0.  0.
          2    1    1    2  501    0 -0.25909541565E+03  0.19367328647E+03 -0.41998736283E+02  0.32619575434E+03  0.00000000000E+00 0. -1.
          1    1    1    2  502    0 -0.84204091880E+01  0.91791438365E+02  0.49244100682E+03  0.50099372914E+03  0.00000000000E+00 0. -1.
         22    1    3    3    0    0  0.24342114300E+03 -0.27184935210E+03  0.65672183843E+03  0.75129188481E+03  0.00000000000E+00 0. -1.
         22    1    3    3    0    0  0.24094681832E+02 -0.13615372740E+02  0.59128750441E+01  0.28300073475E+02  0.00000000000E+00 0. -1.
</event>
<event>
 7    1  0.5018917E-005  0.5856290E+03  0.7818608E-02  0.1005113E+00
          2   -1    0    0  502    0  0.00000000000E+00  0.00000000000E+00  0.26724051854E+04  0.26724051854E+04  0.00000000000E+00 0. -1.
          1   -1    0    0  501    0 -0.00000000000E+00 -0.00000000000E+00 -0.79411066578E+03  0.79411066578E+03  0.00000000000E+00 0. -1.
         25    2    1    2    0    0  0.53891477495E+03 -0.23996678320E+03  0.54410679584E+03  0.81221381558E+03  0.12500354094E+03 0.  0.
          2    1    1    2  501    0  0.51942291945E+02  0.48532140365E+03 -0.50781844165E+03  0.70435391404E+03  0.00000000000E+00 0. -1.
          1    1    1    2  502    0 -0.59085706689E+03 -0.24535462045E+03  0.18420061655E+04  0.19499481216E+04  0.00000000000E+00 0. -1.
         22    1    3    3    0    0  0.14675684051E+03 -0.10035949299E+03  0.10197880188E+03  0.20496164057E+03  0.00000000000E+00 0. -1.
         22    1    3    3    0    0  0.39215793444E+03 -0.13960729021E+03  0.44212799396E+03  0.60725217502E+03  0.00000000000E+00 0. -1.
</event>
<event>
 7    1  0.5018917E-005  0.3122569E+03  0.7818608E-02  0.1312279E+00
          2   -1    0    0  502    0  0.00000000000E+00  0.00000000000E+00  0.22847417648E+04  0.22847417648E+04  0.00000000000E+00 0. -1.
          1   -1    0    0  501    0 -0.00000000000E+00 -0.00000000000E+00 -0.22630209604E+03  0.22630209604E+03  0.00000000000E+00 0. -1.
         25    2    1    2    0    0  0.32982386781E+03  0.74112428476E+01  0.13292709975E+04  0.13752906467E+04  0.12499707061E+03 0.  0.
          2    1    1    2  501    0 -0.31065911105E+03  0.67103022910E+01 -0.84278298125E+02  0.32195798324E+03  0.00000000000E+00 0. -1.
          1    1    1    2  502    0 -0.19164756758E+02 -0.14121545139E+02  0.81344696933E+03  0.81379523091E+03  0.00000000000E+00 0. -1.
         22    1    3    3    0    0  0.21079577802E+03  0.19048689758E+02  0.59906292976E+03  0.63535352869E+03  0.00000000000E+00 0.  1.
         22    1    3    3    0    0  0.11902808979E+03 -0.11637446910E+02  0.73020806778E+03  0.73993711799E+03  0.00000000000E+00 0.  1.
</event>
<event>
 7    1  0.5018917E-005  0.9258360E+02  0.7818608E-02  0.1360768E+00
          2   -1    0    0  502    0  0.00000000000E+00  0.00000000000E+00  0.57724704210E+03  0.57724704210E+03  0.00000000000E+00 0. -1.
          1   -1    0    0  501    0 -0.00000000000E+00 -0.00000000000E+00 -0.66820968903E+03  0.66820968903E+03  0.00000000000E+00 0. -1.
         25    2    1    2    0    0  0.10606211891E+03  0.53792680570E+02  0.47549696084E+03  0.50583113290E+03  0.12499979874E+03 0.  0.
          2    1    1    2  501    0 -0.51320499207E+02 -0.11648531798E+02 -0.63800368673E+03  0.64017043528E+03  0.00000000000E+00 0. -1.
          1    1    1    2  502    0 -0.54741619707E+02 -0.42144148772E+02  0.71544078956E+02  0.99455162950E+02  0.00000000000E+00 0. -1.
         22    1    3    3    0    0  0.12419955424E+03  0.74570736580E+02  0.39342513244E+03  0.41924892231E+03  0.00000000000E+00 0. -1.
         22    1    3    3    0    0 -0.18137435325E+02 -0.20778056010E+02  0.82071828403E+02  0.86582210582E+02  0.00000000000E+00 0. -1.
</event>
<event>
 7    1  0.5018917E-005  0.1483699E+03  0.7818608E-02  0.1236123E+00
          2   -1    0    0  502    0  0.00000000000E+00  0.00000000000E+00  0.81499056676E+03  0.81499056676E+03  0.00000000000E+00 0. -1.
          1   -1    0    0  501    0 -0.00000000000E+00 -0.00000000000E+00 -0.67001416956E+03  0.67001416956E+03  0.00000000000E+00 0. -1.
         25    2    1    2    0    0  0.96352445934E+02  0.16608958700E+03  0.54896410912E+03  0.59485775265E+03  0.12499843214E+03 0.  0.
          2    1    1    2  501    0 -0.13160392719E+03 -0.68052665168E+02 -0.62685794893E+03  0.64412859510E+03  0.00000000000E+00 0. -1.
          1    1    1    2  502    0  0.35251481258E+02 -0.98036921833E+02  0.22287023701E+03  0.24601838858E+03  0.00000000000E+00 0. -1.
         22    1    3    3    0    0  0.12609379158E+03  0.14374818536E+03  0.44119157091E+03  0.48084632401E+03  0.00000000000E+00 0.  1.
         22    1    3    3    0    0 -0.29741345651E+02  0.22341401642E+02  0.10777253821E+03  0.11401142864E+03  0.00000000000E+00 0.  1.
</event>
<event>
 7    1  0.5018917E-005  0.9706373E+03  0.7818608E-02  0.1149861E+00
          2   -1    0    0  502    0  0.00000000000E+00  0.00000000000E+00  0.11919830642E+04  0.11919830642E+04  0.00000000000E+00 0. -1.
          1   -1    0    0  501    0 -0.00000000000E+00 -0.00000000000E+00 -0.27677690419E+04  0.27677690419E+04  0.00000000000E+00 0. -1.
         25    2    1    2    0    0  0.11252570522E+03 -0.96687357237E+03 -0.54403996340E+03  0.11221010505E+04  0.12499898619E+03 0.  0.
          2    1    1    2  501    0 -0.71375698494E+02  0.96710154337E+03 -0.18126076832E+04  0.20557058395E+04  0.00000000000E+00 0. -1.
          1    1    1    2  502    0 -0.41150006729E+02 -0.22797099506E+00  0.78086166890E+03  0.78194521610E+03  0.00000000000E+00 0. -1.
         22    1    3    3    0    0  0.90621425081E+02 -0.81768848988E+03 -0.50858241081E+03  0.96720358651E+03  0.00000000000E+00 0. -1.
         22    1    3    3    0    0  0.21904280142E+02 -0.14918508249E+03 -0.35457552585E+02  0.15489746402E+03  0.00000000000E+00 0. -1.
</event>
<event>
 7    1  0.5018917E-005  0.5726831E+03  0.7818608E-02  0.1167583E+00
          2   -1    0    0  502    0  0.00000000000E+00  0.00000000000E+00  0.10735641554E+04  0.10735641554E+04  0.00000000000E+00 0. -1.
          1   -1    0    0  501    0 -0.00000000000E+00 -0.00000000000E+00 -0.63842472636E+03  0.63842472636E+03  0.00000000000E+00 0. -1.
         25    2    1    2    0    0  0.51571718986E+03  0.28752972842E+03 -0.18065384375E+03  0.62999860964E+03  0.12499948898E+03 0.  0.
          2    1    1    2  501    0 -0.45892418540E+02  0.33330188398E+02 -0.13124325144E+03  0.14297484599E+03  0.00000000000E+00 0. -1.
          1    1    1    2  502    0 -0.46982477132E+03 -0.32085991681E+03  0.74703652419E+03  0.93901542609E+03  0.00000000000E+00 0. -1.
         22    1    3    3    0    0  0.41356863670E+03  0.23413223466E+03 -0.90776927046E+02  0.48383609936E+03  0.00000000000E+00 0.  1.
         22    1    3    3    0    0  0.10214855316E+03  0.53397493756E+02 -0.89876916706E+02  0.14616251027E+03  0.00000000000E+00 0.  1.
</event>
<event>
 7    1  0.5018917E-005  0.2303348E+03  0.7818608E-02  0.1293079E+00
          2   -1    0    0  502    0  0.00000000000E+00  0.00000000000E+00  0.11001151160E+04  0.11001151160E+04  0.00000000000E+00 0. -1.
          1   -1    0    0  501    0 -0.00000000000E+00 -0.00000000000E+00 -0.78484852950E+03  0.78484852950E+03  0.00000000000E+00 0. -1.
         25    2    1    2    0    0 -0.25104299562E+03  0.66865475629E+02  0.15306170395E+03  0.32641464281E+03  0.12500022537E+03 0.  0.
          2    1    1    2  501    0  0.37929157803E+02  0.65603808270E+01 -0.68285718743E+03  0.68394122410E+03  0.00000000000E+00 0. -1.
          1    1    1    2  502    0  0.21311383782E+03 -0.73425856456E+02  0.84506206998E+03  0.87460777860E+03  0.00000000000E+00 0. -1.
         22    1    3    3    0    0 -0.23451206710E+03  0.92494214401E+02  0.11350906774E+03  0.27646952413E+03  0.00000000000E+00 0.  1.
         22    1    3    3    0    0 -0.16530928519E+02 -0.25628738772E+02  0.39552636208E+02  0.49945118678E+02  0.00000000000E+00 0.  1.
</event>
<event>
 7    1  0.5018917E-005  0.2375696E+03  0.7818608E-02  0.1184989E+00
          2   -1    0    0  502    0  0.00000000000E+00  0.00000000000E+00  0.23655550256E+04  0.23655550256E+04  0.00000000000E+00 0. -1.
          1   -1    0    0  501    0 -0.00000000000E+00 -0.00000000000E+00 -0.17864507646E+03  0.17864507646E+03  0.00000000000E+00 0. -1.
         25    2    1    2    0    0  0.12040677579E+03 -0.17350500630E+03  0.21248441064E+02  0.24632832008E+03  0.12499746461E+03 0.  0.
          2    1    1    2  501    0 -0.13982237134E+03  0.28410243057E+03  0.32486549209E+03  0.45365413537E+03  0.00000000000E+00 0. -1.
          1    1    1    2  502    0  0.19415595556E+02 -0.11059742427E+03  0.18407960160E+04  0.18442176466E+04  0.00000000000E+00 0. -1.
         22    1    3    3    0    0  0.45898876227E+02 -0.14977453437E+03  0.47747066790E+02  0.16376477146E+03  0.00000000000E+00 0.  1.
         22    1    3    3    0    0  0.74507899561E+02 -0.23730471928E+02 -0.26498625727E+02  0.82563548618E+02  0.00000000000E+00 0.  1.
</event>
<event>
 7    1  0.5018917E-005  0.2376706E+03  0.7818608E-02  0.1183774E+00
          2   -1    0    0  502    0  0.00000000000E+00  0.00000000000E+00  0.45809206281E+04  0.45809206281E+04  0.00000000000E+00 0. -1.
          1   -1    0    0  501    0 -0.00000000000E+00 -0.00000000000E+00 -0.98147297873E+03  0.98147297873E+03  0.00000000000E+00 0. -1.
         25    2    1    2    0    0  0.20567139700E+03 -0.26795508122E+03  0.10403831570E+04  0.11009640271E+04  0.12499610556E+03 0.  0.
          2    1    1    2  501    0 -0.55745410943E+02  0.99178749751E+02 -0.94413428443E+03  0.95096452210E+03  0.00000000000E+00 0. -1.
          1    1    1    2  502    0 -0.14992598606E+03  0.16877633147E+03  0.35031987768E+04  0.35104650577E+04  0.00000000000E+00 0. -1.
         22    1    3    3    0    0  0.17125969386E+03 -0.12282794407E+03  0.58811378444E+03  0.62473547205E+03  0.00000000000E+00 0.  1.
         22    1    3    3    0    0  0.34411703143E+02 -0.14512713715E+03  0.45226937257E+03  0.47622855501E+03  0.00000000000E+00 0.  1.
</event>
<event>
 7    1  0.5018917E-005  0.2067245E+03  0.7818608E-02  0.1190822E+00
          2   -1    0    0  502    0  0.00000000000E+00  0.00000000000E+00  0.91574952974E+03  0.91574952974E+03  0.00000000000E+00 0. -1.
          1   -1    0    0  501    0 -0.00000000000E+00 -0.00000000000E+00 -0.24318055258E+03  0.24318055258E+03  0.00000000000E+00 0. -1.
         25    2    1    2    0    0  0.24148120704E+03 -0.16839302549E+03  0.92196621663E+02  0.33285632129E+03  0.12499491667E+03 0.  0.
          2    1    1    2  501    0 -0.16157386815E+03  0.77583347602E+02 -0.48494033430E+02  0.18567972957E+03  0.00000000000E+00 0. -1.
          1    1    1    2  502    0 -0.79907338881E+02  0.90809677887E+02  0.62886638893E+03  0.64039403146E+03  0.00000000000E+00 0. -1.
         22    1    3    3    0    0 -0.45273205149E+01 -0.34989725891E+02  0.29685327251E+02  0.46108526358E+02  0.00000000000E+00 0.  1.
         22    1    3    3    0    0  0.24600852755E+03 -0.13340329960E+03  0.62511294412E+02  0.28674779494E+03  0.00000000000E+00 0.  1.
</event>
<event>
 7    1  0.5018917E-005  0.7595681E+03  0.7818608E-02  0.1092540E+00
          2   -1    0    0  502    0  0.00000000000E+00  0.00000000000E+00  0.15078390961E+04  0.15078390961E+04  0.00000000000E+00 0. -1.
          1   -1    0    0  501    0 -0.00000000000E+00 -0.00000000000E+00 -0.93196549833E+03  0.93196549833E+03  0.00000000000E+00 0. -1.
         25    2    1    2    0    0 -0.32155220166E+01  0.83141498452E+03  0.60357330885E+03  0.10349815517E+04  0.12499942873E+03 0.  0.
          2    1    1    2  501    0 -0.55005301544E+02 -0.74096432436E+03 -0.51613584301E+03  0.90468222134E+03  0.00000000000E+00 0. -1.
          1    1    1    2  502    0  0.58220823560E+02 -0.90450660159E+02  0.48843613192E+03  0.50014082136E+03  0.00000000000E+00 0. -1.
         22    1    3    3    0    0 -0.43231405331E+02  0.72511324203E+03  0.53680950466E+03  0.90322899227E+03  0.00000000000E+00 0. -1.
         22    1    3    3    0    0  0.40015883314E+02  0.10630174249E+03  0.66763804196E+02  0.13175255946E+03  0.00000000000E+00 0. -1.
</event>
<event>
 7    1  0.5018917E-005  0.1474552E+04  0.7818608E-02  0.1158436E+00
          2   -1    0    0  502    0  0.00000000000E+00  0.00000000000E+00  0.27646925586E+04  0.27646925586E+04  0.00000000000E+00 0. -1.
          1   -1    0    0  501    0 -0.00000000000E+00 -0.00000000000E+00 -0.11546969668E+04  0.11546969668E+04  0.00000000000E+00 0. -1.
         25    2    1    2    0    0  0.13162300529E+04  0.62643680859E+03  0.33196126851E+02  0.14634248736E+04  0.12500300197E+03 0.  0.
          2    1    1    2  501    0  0.24298451036E+02  0.30502997756E+01 -0.16663546884E+03  0.16842535001E+03  0.00000000000E+00 0. -1.
          1    1    1    2  502    0 -0.13405285039E+04 -0.62948710837E+03  0.17434349338E+04  0.22875393019E+04  0.00000000000E+00 0. -1.
         22    1    3    3    0    0  0.37416252595E+03  0.21396298057E+03  0.56791818525E+02  0.43474482577E+03  0.00000000000E+00 0.  1.
         22    1    3    3    0    0  0.94206752691E+03  0.41247382803E+03 -0.23595691674E+02  0.10286800478E+04  0.00000000000E+00 0.  1.
</event>
<event>
 7    1  0.5018917E-005  0.2751599E+03  0.7818608E-02  0.1167344E+00
          2   -1    0    0  502    0  0.00000000000E+00  0.00000000000E+00  0.21497367157E+04  0.21497367157E+04  0.00000000000E+00 0. -1.
          1   -1    0    0  501    0 -0.00000000000E+00 -0.00000000000E+00 -0.65227531347E+03  0.65227531347E+03  0.00000000000E+00 0. -1.
         25    2    1    2    0    0 -0.37019942749E+03 -0.32286073553E+02  0.18252050034E+03  0.43246958967E+03  0.12500482504E+03 0.  0.
          2    1    1    2  501    0  0.25676684279E+03  0.66123785348E+02 -0.49191038667E+03  0.55881785499E+03  0.00000000000E+00 0. -1.
          1    1    1    2  502    0  0.11343258470E+03 -0.33837711795E+02  0.18068512885E+04  0.18107245845E+04  0.00000000000E+00 0. -1.
         22    1    3    3    0    0 -0.26095424844E+03  0.81617024779E+01  0.69530193738E+02  0.27018175550E+03  0.00000000000E+00 0. -1.
         22    1    3    3    0    0 -0.10924517906E+03 -0.40447776031E+02  0.11299030660E+03  0.16228783417E+03  0.00000000000E+00 0. -1.
</event>
<event>
 7    1  0.5018917E-005  0.9489973E+02  0.7818608E-02  0.1308844E+00
          2   -1    0    0  502    0  0.00000000000E+00  0.00000000000E+00  0.55083903486E+03  0.55083903486E+03  0.00000000000E+00 0. -1.
          1   -1    0    0  501    0 -0.00000000000E+00 -0.00000000000E+00 -0.59436561113E+03  0.59436561113E+03  0.00000000000E+00 0. -1.
         25    2    1    2    0    0 -0.19993340123E+02  0.94739223135E+02 -0.14457798323E+02  0.15877770819E+03  0.12500431448E+03 0.  0.
          2    1    1    2  501    0  0.84891273174E+02 -0.46592330020E+02 -0.49965538671E+03  0.50895272762E+03  0.00000000000E+00 0. -1.
          1    1    1    2  502    0 -0.64897933051E+02 -0.48146893115E+02  0.47058660876E+03  0.47747421017E+03  0.00000000000E+00 0. -1.
         22    1    3    3    0    0 -0.44490791340E+02  0.91328509181E+02  0.31692136090E+02  0.10641766110E+03  0.00000000000E+00 0.  1.
         22    1    3    3    0    0  0.24497451217E+02  0.34107139536E+01 -0.46149934413E+02  0.52360047098E+02  0.00000000000E+00 0.  1.
</event>
<event>
 7    1  0.5018917E-005  0.1715667E+03  0.7818608E-02  0.1235663E+00
          2   -1    0    0  502    0  0.00000000000E+00  0.00000000000E+00  0.85469807389E+03  0.85469807389E+03  0.00000000000E+00 0. -1.
          1   -1    0    0  501    0 -0.00000000000E+00 -0.00000000000E+00 -0.10364088747E+03  0.10364088747E+03  0.00000000000E+00 0. -1.
         25    2    1    2    0    0  0.10594060654E+03 -0.21486092330E+03  0.36673148600E+03  0.45552643133E+03  0.12499487325E+03 0.  0.
          2    1    1    2  501    0 -0.87699512125E+02  0.12619731546E+03  0.58154508743E+02  0.16431346184E+03  0.00000000000E+00 0. -1.
          1    1    1    2  502    0 -0.18241094416E+02  0.88663607847E+02  0.32617119168E+03  0.33849906819E+03  0.00000000000E+00 0. -1.
         22    1    3    3    0    0 -0.22625673833E+02 -0.44886183636E+02  0.11621743290E+03  0.12662220306E+03  0.00000000000E+00 0.  1.
         22    1    3    3    0    0  0.12856628037E+03 -0.16997473967E+03  0.25051405310E+03  0.32890422827E+03  0.00000000000E+00 0.  1.
</event>
<event>
 7    1  0.5018917E-005  0.4194527E+03  0.7818608E-02  0.1150168E+00
          2   -1    0    0  502    0  0.00000000000E+00  0.00000000000E+00  0.38460722436E+04  0.38460722436E+04  0.00000000000E+00 0. -1.
          1   -1    0    0  501    0 -0.00000000000E+00 -0.00000000000E+00 -0.10452027163E+03  0.10452027163E+03  0.00000000000E+00 0. -1.
         25    2    1    2    0    0 -0.19002247325E+03  0.40147307707E+03  0.19236043837E+04  0.19781729208E+04  0.12500043078E+03 0.  0.
          2    1    1    2  501    0  0.94402071109E+02 -0.95042386787E+01 -0.14588625987E+02  0.95994320617E+02  0.00000000000E+00 0. -1.
          1    1    1    2  502    0  0.95620402145E+02 -0.39196883839E+03  0.18325362143E+04  0.18764252738E+04  0.00000000000E+00 0. -1.
         22    1    3    3    0    0 -0.42208214923E+02  0.32862836966E+02  0.40415318421E+03  0.40767793142E+03  0.00000000000E+00 0.  1.
         22    1    3    3    0    0 -0.14781425833E+03  0.36861024010E+03  0.15194511995E+04  0.15704949894E+04  0.00000000000E+00 0.  1.
</event>
<event>
 7    1  0.5018917E-005  0.9187059E+03  0.7818608E-02  0.1217285E+00
          2   -1    0    0  502    0  0.00000000000E+00  0.00000000000E+00  0.51811304399E+03  0.51811304399E+03  0.00000000000E+00 0. -1.
          1   -1    0    0  501    0 -0.00000000000E+00 -0.00000000000E+00 -0.30385963907E+04  0.30385963907E+04  0.00000000000E+00 0. -1.
         25    2    1    2    0    0 -0.81270749623E+03  0.42277147419E+03 -0.25399928623E+03  0.95883805033E+03  0.12500230209E+03 0.  0.
          2    1    1    2  501    0 -0.15859796320E+02 -0.12925269933E+02 -0.11420994778E+04  0.11422827202E+04  0.00000000000E+00 0. -1.
          1    1    1    2  502    0  0.82856729255E+03 -0.40984620425E+03 -0.11243845827E+04  0.14555886642E+04  0.00000000000E+00 0. -1.
         22    1    3    3    0    0 -0.36033586526E+03  0.21110562926E+03 -0.55070021439E+02  0.42123654846E+03  0.00000000000E+00 0.  1.
         22    1    3    3    0    0 -0.45237163097E+03  0.21166584493E+03 -0.19892926479E+03  0.53760150186E+03  0.00000000000E+00 0.  1.
</event>
<event>
 7    1  0.5018917E-005  0.1036685E+03  0.7818608E-02  0.1383224E+00
          2   -1    0    0  502    0  0.00000000000E+00  0.00000000000E+00  0.22935542253E+04  0.22935542253E+04  0.00000000000E+00 0. -1.
          1   -1    0    0  501    0 -0.00000000000E+00 -0.00000000000E+00 -0.32147133731E+03  0.32147133731E+03  0.00000000000E+00 0. -1.
         25    2    1    2    0    0 -0.18014371542E+02 -0.87360146734E+02  0.82614811884E+03  0.84029176714E+03  0.12495289849E+03 0.  0.
          2    1    1    2  501    0  0.33148919568E+02 -0.20636449677E+02 -0.31114161021E+03  0.31358223089E+03  0.00000000000E+00 0. -1.
          1    1    1    2  502    0 -0.15134548026E+02  0.10799659641E+03  0.14570763794E+04  0.14611515646E+04  0.00000000000E+00 0. -1.
         22    1    3    3    0    0  0.15335713203E+02 -0.44061001012E+02  0.83613567466E+02  0.95748548679E+02  0.00000000000E+00 0. -1.
         22    1    3    3    0    0 -0.33350084745E+02 -0.43299145722E+02  0.74253455138E+03  0.74454321846E+03  0.00000000000E+00 0. -1.
</event>
<event>
 7    1  0.5018917E-005  0.1080271E+04  0.7818608E-02  0.1142459E+00
          2   -1    0    0  502    0  0.00000000000E+00  0.00000000000E+00  0.19198461984E+04  0.19198461984E+04  0.00000000000E+00 0. -1.
          1   -1    0    0  501    0 -0.00000000000E+00 -0.00000000000E+00 -0.30012570684E+04  0.30012570684E+04  0.00000000000E+00 0. -1.
         25    2    1    2    0    0 -0.59805623543E+03  0.90547581516E+03  0.50212634191E+03  0.12022120761E+04  0.12500120072E+03 0.  0.
          2    1    1    2  501    0  0.37839316728E+02  0.14118450047E+02 -0.23794993971E+04  0.23798421219E+04  0.00000000000E+00 0. -1.
          1    1    1    2  502    0  0.56021691870E+03 -0.91959426521E+03  0.79596218510E+03  0.13390490688E+04  0.00000000000E+00 0. -1.
         22    1    3    3    0    0 -0.19338432253E+02  0.78282794502E+02  0.57852379276E+02  0.99242474097E+02  0.00000000000E+00 0. -1.
         22    1    3    3    0    0 -0.57871780318E+03  0.82719302066E+03  0.44427396264E+03  0.11029696020E+04  0.00000000000E+00 0. -1.
</event>
<event>
 7    1  0.5018917E-005  0.1560785E+03  0.7818608E-02  0.1273967E+00
          2   -1    0    0  502    0  0.00000000000E+00  0.00000000000E+00  0.51954148950E+03  0.51954148950E+03  0.00000000000E+00 0. -1.
          1   -1    0    0  501    0 -0.00000000000E+00 -0.00000000000E+00 -0.15711248191E+04  0.15711248191E+04  0.00000000000E+00 0. -1.
         25    2    1    2    0    0  0.92610716307E+02 -0.18318902885E+03 -0.11453016538E+04  0.11702465391E+04  0.12500447567E+03 0.  0.
          2    1    1    2  501    0 -0.60666870813E+02  0.30862840643E+02 -0.39845342169E+03  0.40422532504E+03  0.00000000000E+00 0. -1.
          1    1    1    2  502    0 -0.31943845494E+02  0.15232618821E+03  0.49217174599E+03  0.51619444440E+03  0.00000000000E+00 0. -1.
         22    1    3    3    0    0 -0.60920706650E+01  0.88146181134E+01 -0.21324176501E+03  0.21351079870E+03  0.00000000000E+00 0. -1.
         22    1    3    3    0    0  0.98702786972E+02 -0.19200364697E+03 -0.93205988883E+03  0.95673574041E+03  0.00000000000E+00 0. -1.
</event>
<event>
 7    1  0.5018917E-005  0.1553749E+03  0.7818608E-02  0.1261286E+00
          2   -1    0    0  502    0  0.00000000000E+00  0.00000000000E+00  0.79888325123E+03  0.79888325123E+03  0.00000000000E+00 0. -1.
          1   -1    0    0  501    0 -0.00000000000E+00 -0.00000000000E+00 -0.15250877377E+04  0.15250877377E+04  0.00000000000E+00 0. -1.
         25    2    1    2    0    0  0.98576995045E+02  0.20344118633E+03  0.47141733810E+03  0.53755440111E+03  0.12499874897E+03 0.  0.
          2    1    1    2  501    0 -0.88986763091E+02 -0.12670703243E+03 -0.14828396182E+04  0.14909012876E+04  0.00000000000E+00 0. -1.
          1    1    1    2  502    0 -0.95902319536E+01 -0.76734153894E+02  0.28521779358E+03  0.29551530027E+03  0.00000000000E+00 0. -1.
         22    1    3    3    0    0  0.12817952487E+03  0.17750493922E+03  0.39731472762E+03  0.45364852786E+03  0.00000000000E+00 0.  1.
         22    1    3    3    0    0 -0.29602529825E+02  0.25936247108E+02  0.74102610476E+02  0.83905873247E+02  0.00000000000E+00 0.  1.
</event>
<event>
 7    1  0.5018917E-005  0.6671763E+03  0.7818608E-02  0.1077157E+00
          2   -1    0    0  502    0  0.00000000000E+00  0.00000000000E+00  0.15357713200E+04  0.15357713200E+04  0.00000000000E+00 0. -1.
          1   -1    0    0  501    0 -0.00000000000E+00 -0.00000000000E+00 -0.14860686085E+04  0.14860686085E+04  0.00000000000E+00 0. -1.
         25    2    1    2    0    0  0.74829693655E+03 -0.72033305990E+02  0.66932887882E+03  0.10142797412E+04  0.12500057205E+03 0.  0.
          2    1    1    2  501    0 -0.15034005268E+03 -0.33433659571E+01 -0.11770471699E+04  0.11866142380E+04  0.00000000000E+00 0. -1.
          1    1    1    2  502    0 -0.59795688387E+03  0.75376671947E+02  0.55742100258E+03  0.82094594935E+03  0.00000000000E+00 0. -1.
         22    1    3    3    0    0  0.20947331980E+03 -0.55442902473E+02  0.13523720133E+03  0.25542530761E+03  0.00000000000E+00 0. -1.
         22    1    3    3    0    0  0.53882361675E+03 -0.16590403518E+02  0.53409167749E+03  0.75885443362E+03  0.00000000000E+00 0. -1.
</event>
<event>
 7    1  0.5018917E-005  0.3596986E+03  0.7818608E-02  0.1256881E+00
          2   -1    0    0  502    0  0.00000000000E+00  0.00000000000E+00  0.26094991469E+04  0.26094991469E+04  0.00000000000E+00 0. -1.
          1   -1    0    0  501    0 -0.00000000000E+00 -0.00000000000E+00 -0.54123150018E+03  0.54123150018E+03  0.00000000000E+00 0. -1.
         25    2    1    2    0    0  0.17360498789E+03 -0.35058761063E+03  0.15063072569E+04  0.15612934019E+04  0.12500068054E+03 0.  0.
          2    1    1    2  501    0 -0.14877565866E+03  0.32608492414E+03 -0.45088652605E+03  0.57598978613E+03  0.00000000000E+00 0. -1.
          1    1    1    2  502    0 -0.24829329236E+02  0.24502686490E+02  0.10128469159E+04  0.10134474590E+04  0.00000000000E+00 0. -1.
         22    1    3    3    0    0  0.38455420593E+02 -0.67153028913E+02  0.14628482847E+03  0.16549199287E+03  0.00000000000E+00 0. -1.
         22    1    3    3    0    0  0.13514956730E+03 -0.28343458171E+03  0.13600224284E+04  0.13958014090E+04  0.00000000000E+00 0. -1.
</event>
<event>
 7    1  0.5018917E-005  0.3046031E+03  0.7818608E-02  0.1161124E+00
          2   -1    0    0  502    0  0.00000000000E+00  0.00000000000E+00  0.76178664996E+03  0.76178664996E+03  0.00000000000E+00 0. -1.
          1   -1    0    0  501    0 -0.00000000000E+00 -0.00000000000E+00 -0.50809317485E+03  0.50809317485E+03  0.00000000000E+00 0. -1.
         25    2    1    2    0    0 -0.25666361432E+03 -0.26547314002E+03  0.15579482077E+03  0.41982046994E+03  0.12500000724E+03 0.  0.
          2    1    1    2  501    0  0.11341711081E+03  0.18377978800E+02 -0.32219529175E+03  0.34206870239E+03  0.00000000000E+00 0. -1.
          1    1    1    2  502    0  0.14324650352E+03  0.24709516122E+03  0.42009394609E+03  0.50799065248E+03  0.00000000000E+00 0. -1.
         22    1    3    3    0    0 -0.73967422910E+02 -0.16418922568E+03  0.86115516875E+02  0.19961253400E+03  0.00000000000E+00 0.  1.
         22    1    3    3    0    0 -0.18269619141E+03 -0.10128391434E+03  0.69679303897E+02  0.22020793594E+03  0.00000000000E+00 0.  1.
</event>
<event>
 7    1  0.5018917E-005  0.7873734E+03  0.7818608E-02  0.1139248E+00
          2   -1    0    0  502    0  0.00000000000E+00  0.00000000000E+00  0.14677797307E+04  0.14677797307E+04  0.00000000000E+00 0. -1.
          1   -1    0    0  501    0 -0.00000000000E+00 -0.00000000000E+00 -0.14980721137E+04  0.14980721137E+04  0.00000000000E+00 0. -1.
         25    2    1    2    0    0 -0.79635656723E+03  0.89614327145E+02 -0.41186465701E+03  0.90965543665E+03  0.12500403165E+03 0.  0.
          2    1    1    2  501    0  0.76554489845E+03 -0.13827519960E+03 -0.65564955827E+03  0.10173767078E+04  0.00000000000E+00 0. -1.
          1    1    1    2  502    0  0.30811668774E+02  0.48660872457E+02  0.10372218323E+04  0.10388196999E+04  0.00000000000E+00 0. -1.
         22    1    3    3    0    0 -0.49030813895E+03  0.94115909566E+02 -0.30706196590E+03  0.58612876269E+03  0.00000000000E+00 0.  1.
         22    1    3    3    0    0 -0.30604842828E+03 -0.45015824214E+01 -0.10480269112E+03  0.32352667395E+03  0.00000000000E+00 0.  1.
</event>
<event>
 7    1  0.5018917E-005  0.8581946E+03  0.7818608E-02  0.1211514E+00
          2   -1    0    0  502    0  0.00000000000E+00  0.00000000000E+00  0.23495685127E+04  0.23495685127E+04  0.00000000000E+00 0. -1.
          1   -1    0    0  501    0 -0.00000000000E+00 -0.00000000000E+00 -0.11256317171E+04  0.11256317171E+04  0.00000000000E+00 0. -1.
         25    2    1    2    0    0 -0.14102708439E+03 -0.85382731861E+03 -0.18519342467E+02  0.87456753639E+03  0.12496271894E+03 0.  0.
          2    1    1    2  501    0  0.22662811442E+02  0.53410877992E+01 -0.58335633267E+03  0.58382081250E+03  0.00000000000E+00 0. -1.
          1    1    1    2  502    0  0.11836427295E+03  0.84848623081E+03  0.18258124707E+04  0.20168118809E+04  0.00000000000E+00 0. -1.
         22    1    3    3    0    0 -0.11560864579E+03 -0.75520404282E+03  0.23574510143E+02  0.76436526792E+03  0.00000000000E+00 0.  1.
         22    1    3    3    0    0 -0.25418438604E+02 -0.98623275789E+02 -0.42093852610E+02  0.11020226847E+03  0.00000000000E+00 0.  1.
</event>
<event>
 7    1  0.5018917E-005  0.5989776E+03  0.7818608E-02  0.1107515E+00
          2   -1    0    0  502    0  0.00000000000E+00  0.00000000000E+00  0.22844938221E+04  0.22844938221E+04  0.00000000000E+00 0. -1.
          1   -1    0    0  501    0 -0.00000000000E+00 -0.00000000000E+00 -0.37678379663E+03  0.37678379663E+03  0.00000000000E+00 0. -1.
         25    2    1    2    0    0  0.22892875860E+03 -0.50630864968E+03  0.55215197426E+03  0.79325543816E+03  0.12500224892E+03 0.  0.
          2    1    1    2  501    0  0.11121310357E+03 -0.15751394398E+02 -0.17926209921E+03  0.21154517494E+03  0.00000000000E+00 0. -1.
          1    1    1    2  502    0 -0.34014186217E+03  0.52206004408E+03  0.15348201504E+04  0.16564770056E+04  0.00000000000E+00 0. -1.
         22    1    3    3    0    0  0.14406839505E+03 -0.22275207698E+03  0.19411539068E+03  0.32871716589E+03  0.00000000000E+00 0. -1.
         22    1    3    3    0    0  0.84860363554E+02 -0.28355657270E+03  0.35803658358E+03  0.46453827227E+03  0.00000000000E+00 0. -1.
</event>
<event>
 7    1  0.5018917E-005  0.2577381E+03  0.7818608E-02  0.1142707E+00
          2   -1    0    0  502    0  0.00000000000E+00  0.00000000000E+00  0.10994899618E+04  0.10994899618E+04  0.00000000000E+00 0. -1.
          1   -1    0    0  501    0 -0.00000000000E+00 -0.00000000000E+00 -0.37039567139E+03  0.37039567139E+03  0.00000000000E+00 0. -1.
         25    2    1    2    0    0  0.45218362686E+02 -0.38198957938E+03  0.17919620667E+03  0.44237815489E+03  0.12500564932E+03 0.  0.
          2    1    1    2  501    0 -0.86794171103E+02  0.21841658849E+03 -0.16873115481E+03  0.28932548603E+03  0.00000000000E+00 0. -1.
          1    1    1    2  502    0  0.41575808417E+02  0.16357299090E+03  0.71862923851E+03  0.73818199222E+03  0.00000000000E+00 0. -1.
         22    1    3    3    0    0 -0.31298389635E+02 -0.73415522855E+02  0.70211577581E+02  0.10629719571E+03  0.00000000000E+00 0.  1.
         22    1    3    3    0    0  0.76516752321E+02 -0.30857405653E+03  0.10898462908E+03  0.33608095918E+03  0.00000000000E+00 0.  1.
</event>
<event>
 7    1  0.5018917E-005  0.3184256E+03  0.7818608E-02  0.1217844E+00
          2   -1    0    0  502    0  0.00000000000E+00  0.00000000000E+00  0.37408351542E+04  0.37408351542E+04  0.00000000000E+00 0. -1.
          1   -1    0    0  501    0 -0.00000000000E+00 -0.00000000000E+00 -0.65923014943E+03  0.65923014943E+03  0.00000000000E+00 0. -1.
         25    2    1    2    0    0  0.31762738010E+03 -0.13193193230E+03  0.16307691789E+02  0.36631243746E+03  0.12500269468E+03 0.  0.
          2    1    1    2  501    0 -0.30336667428E+03  0.75008611183E+02 -0.43353684375E+03  0.53442663267E+03  0.00000000000E+00 0. -1.
          1    1    1    2  502    0 -0.14260705816E+02  0.56923321112E+02  0.34988341567E+04  0.34993262335E+04  0.00000000000E+00 0. -1.
         22    1    3    3    0    0  0.24922869866E+03 -0.14481439669E+03  0.43650369667E+02  0.29153303157E+03  0.00000000000E+00 0.  1.
         22    1    3    3    0    0  0.68398681441E+02  0.12882464396E+02 -0.27342677878E+02  0.74779405890E+02  0.00000000000E+00 0.  1.
</event>
<event>
 7    1  0.5018917E-005  0.2662770E+03  0.7818608E-02  0.1239705E+00
          2   -1    0    0  502    0  0.00000000000E+00  0.00000000000E+00  0.10093225449E+04  0.10093225449E+04  0.00000000000E+00 0. -1.
          1   -1    0    0  501    0 -0.00000000000E+00 -0.00000000000E+00 -0.31886523601E+03  0.31886523601E+03  0.00000000000E+00 0. -1.
         25    2    1    2    0    0 -0.25761514839E+03  0.11073743280E+03 -0.17487716171E+03  0.35332110204E+03  0.12500174301E+03 0.  0.
          2    1    1    2  501    0  0.20177653300E+03 -0.10690408952E+03  0.18954991439E+03  0.29676829964E+03  0.00000000000E+00 0. -1.
          1    1    1    2  502    0  0.55838615389E+02 -0.38333432795E+01  0.67578455622E+03  0.67809837923E+03  0.00000000000E+00 0. -1.
         22    1    3    3    0    0 -0.12482454654E+03 -0.43402751075E+01 -0.37901713248E+02  0.13052411759E+03  0.00000000000E+00 0. -1.
         22    1    3    3    0    0 -0.13279060186E+03  0.11507770790E+03 -0.13697544847E+03  0.22279698445E+03  0.00000000000E+00 0. -1.
</event>
<event>
 7    1  0.5018917E-005  0.1125223E+04  0.7818608E-02  0.1164848E+00
          2   -1    0    0  502    0  0.00000000000E+00  0.00000000000E+00  0.18287086556E+04  0.18287086556E+04  0.00000000000E+00 0. -1.
          1   -1    0    0  501    0 -0.00000000000E+00 -0.00000000000E+00 -0.12951288937E+04  0.12951288937E+04  0.00000000000E+00 0. -1.
         25    2    1    2    0    0 -0.59414623018E+02 -0.11380312954E+04  0.59979114797E+03  0.12938391901E+04  0.12500040725E+03 0.  0.
          2    1    1    2  501    0  0.89275099544E+01  0.28421523877E+02 -0.59783290707E+03  0.59857469728E+03  0.00000000000E+00 0. -1.
          1    1    1    2  502    0  0.50487113064E+02  0.11096097715E+04  0.53162152097E+03  0.12314236620E+04  0.00000000000E+00 0. -1.
         22    1    3    3    0    0  0.50100702932E+01 -0.77115809103E+03  0.36191408225E+03  0.85187540468E+03  0.00000000000E+00 0. -1.
         22    1    3    3    0    0 -0.64424693311E+02 -0.36687320438E+03  0.23787706572E+03  0.44196378539E+03  0.00000000000E+00 0. -1.
</event>
<event>
 7    1  0.5018917E-005  0.5241311E+03  0.7818608E-02  0.1132452E+00
          2   -1    0    0  502    0  0.00000000000E+00  0.00000000000E+00  0.13607725203E+04  0.13607725203E+04  0.00000000000E+00 0. -1.
          1   -1    0    0  501    0 -0.00000000000E+00 -0.00000000000E+00 -0.21647358894E+04  0.21647358894E+04  0.00000000000E+00 0. -1.
         25    2    1    2    0    0 -0.47514821379E+03  0.37543322289E+03 -0.13060957742E+03  0.63197798996E+03  0.12498555183E+03 0.  0.
          2    1    1    2  501    0  0.39583636617E+03 -0.32503250479E+03 -0.17445693612E+04  0.18182009828E+04  0.00000000000E+00 0. -1.
          1    1    1    2  502    0  0.79311847618E+02 -0.50400718098E+02  0.10712155695E+04  0.10753294369E+04  0.00000000000E+00 0. -1.
         22    1    3    3    0    0 -0.36466382158E+03  0.25814685535E+03 -0.14618902541E+03  0.47009651439E+03  0.00000000000E+00 0.  1.
         22    1    3    3    0    0 -0.11048439221E+03  0.11728636754E+03  0.15579447986E+02  0.16188147557E+03  0.00000000000E+00 0.  1.
</event>
<event>
 7    1  0.5018917E-005  0.3746593E+03  0.7818608E-02  0.1258206E+00
          2   -1    0    0  502    0  0.00000000000E+00  0.00000000000E+00  0.14979510457E+04  0.14979510457E+04  0.00000000000E+00 0. -1.
          1   -1    0    0  501    0 -0.00000000000E+00 -0.00000000000E+00 -0.21842059016E+04  0.21842059016E+04  0.00000000000E+00 0. -1.
         25    2    1    2    0    0 -0.15465238817E+03  0.36835307765E+03 -0.44074455743E+03  0.60784970919E+03  0.12499661226E+03 0.  0.
          2    1    1    2  501    0  0.15304701047E+03 -0.33533616934E+03 -0.16392463424E+04  0.16801792478E+04  0.00000000000E+00 0. -1.
          1    1    1    2  502    0  0.16053776996E+01 -0.33016908317E+02  0.13937360439E+04  0.13941279903E+04  0.00000000000E+00 0. -1.
         22    1    3    3    0    0 -0.11210187418E+03  0.35514706124E+03 -0.37566251318E+03  0.52897881726E+03  0.00000000000E+00 0.  1.
         22    1    3    3    0    0 -0.42550513991E+02  0.13206016414E+02 -0.65082044249E+02  0.78870891932E+02  0.00000000000E+00 0.  1.
</event>
<event>
 7    1  0.5018917E-005  0.5772892E+03  0.7818608E-02  0.1190411E+00
          2   -1    0    0  502    0  0.00000000000E+00  0.00000000000E+00  0.22853935615E+04  0.22853935615E+04  0.00000000000E+00 0. -1.
          1   -1    0    0  501    0 -0.00000000000E+00 -0.00000000000E+00 -0.15107741816E+04  0.15107741816E+04  0.00000000000E+00 0. -1.
         25    2    1    2    0    0 -0.54321419528E+03  0.19102753813E+01  0.20623115914E+03  0.59434374965E+03  0.12501156204E+03 0.  0.
          2    1    1    2  501    0 -0.41996613934E+02 -0.11385066009E+02 -0.12709065853E+04  0.12716512430E+04  0.00000000000E+00 0. -1.
          1    1    1    2  502    0  0.58521080922E+03  0.94747906282E+01  0.18392948061E+04  0.19301727504E+04  0.00000000000E+00 0. -1.
         22    1    3    3    0    0 -0.93451007656E+02 -0.91710959534E+01 -0.11366408070E+02  0.94585385052E+02  0.00000000000E+00 0.  1.
         22    1    3    3    0    0 -0.44976318763E+03  0.11081371335E+02  0.21759756720E+03  0.49975836460E+03  0.00000000000E+00 0.  1.
</event>
<event>
 7    1  0.5018917E-005  0.5379997E+03  0.7818608E-02  0.1014299E+00
          2   -1    0    0  502    0  0.00000000000E+00  0.00000000000E+00  0.14230640462E+04  0.14230640462E+04  0.00000000000E+00 0. -1.
          1   -1    0    0  501    0 -0.00000000000E+00 -0.00000000000E+00 -0.18974307833E+04  0.18974307833E+04  0.00000000000E+00 0. -1.
         25    2    1    2    0    0 -0.91969845373E+03 -0.19579809978E+03  0.62433077797E+02  0.95063470515E+03  0.12500524693E+03 0.  0.
          2    1    1    2  501    0  0.50350159359E+03 -0.24394425002E+01 -0.13468116627E+04  0.14378530733E+04  0.00000000000E+00 0. -1.
          1    1    1    2  502    0  0.41619686014E+03  0.19823754228E+03  0.81001184786E+03  0.93200705107E+03  0.00000000000E+00 0. -1.
         22    1    3    3    0    0 -0.55291941095E+03 -0.72056612599E+02  0.79145808745E+02  0.56318388601E+03  0.00000000000E+00 0.  1.
         22    1    3    3    0    0 -0.36677904278E+03 -0.12374148718E+03 -0.16712730947E+02  0.38745081914E+03  0.00000000000E+00 0.  1.
</event>
<event>
 7    1  0.5018917E-005  0.3401021E+03  0.7818608E-02  0.1157194E+00
          2   -1    0    0  502    0  0.00000000000E+00  0.00000000000E+00  0.14315584936E+04  0.14315584936E+04  0.00000000000E+00 0. -1.
          1   -1    0    0  501    0 -0.00000000000E+00 -0.00000000000E+00 -0.62746518529E+03  0.62746518529E+03  0.00000000000E+00 0. -1.
         25    2    1    2    0    0 -0.38545417619E+03  0.20731683585E+03 -0.26939281886E+03  0.52891649004E+03  0.12499988086E+03 0.  0.
          2    1    1    2  501    0  0.10490570989E+03 -0.24495582355E+02 -0.19249464005E+03  0.22058882104E+03  0.00000000000E+00 0. -1.
          1    1    1    2  502    0  0.28054846630E+03 -0.18282125349E+03  0.12659807672E+04  0.13095183678E+04  0.00000000000E+00 0. -1.
         22    1    3    3    0    0 -0.14357605053E+03  0.14573960843E+03 -0.10401949193E+03  0.22950854113E+03  0.00000000000E+00 0.  1.
         22    1    3    3    0    0 -0.24187812566E+03  0.61577227417E+02 -0.16537332694E+03  0.29940794891E+03  0.00000000000E+00 0.  1.
</event>
<event>
 7    1  0.5018917E-005  0.1136808E+04  0.7818608E-02  0.1165122E+00
          2   -1    0    0  502    0  0.00000000000E+00  0.00000000000E+00  0.90361189880E+03  0.90361189880E+03  0.00000000000E+00 0. -1.
          1   -1    0    0  501    0 -0.00000000000E+00 -0.00000000000E+00 -0.17304405539E+04  0.17304405539E+04  0.00000000000E+00 0. -1.
         25    2    1    2    0    0 -0.11036353471E+04 -0.34038993660E+03 -0.58095564903E+03  0.12988503122E+04  0.12500551594E+03 0.  0.
          2    1    1    2  501    0  0.27678276046E+02  0.98954493743E+01 -0.20687802426E+03  0.20895579391E+03  0.00000000000E+00 0. -1.
          1    1    1    2  502    0  0.10759570710E+04  0.33049448723E+03 -0.38994981848E+02  0.11262463467E+04  0.00000000000E+00 0. -1.
         22    1    3    3    0    0 -0.23137761946E+03 -0.83626008373E+02 -0.69698744245E+02  0.25570848052E+03  0.00000000000E+00 0. -1.
         22    1    3    3    0    0 -0.87225772762E+03 -0.25676392823E+03 -0.51125690478E+03  0.10431418316E+04  0.00000000000E+00 0. -1.
</event>
<event>
 7    1  0.5018917E-005  0.6042452E+02  0.7818608E-02  0.1469556E+00
          2   -1    0    0  502    0  0.00000000000E+00  0.00000000000E+00  0.60544358101E+02  0.60544358101E+02  0.00000000000E+00 0. -1.
          1   -1    0    0  501    0 -0.00000000000E+00 -0.00000000000E+00 -0.10338135679E+04  0.10338135679E+04  0.00000000000E+00 0. -1.
         25    2    1    2    0    0  0.92165945378E+00 -0.67711961341E+02 -0.75884028393E+02  0.16114940028E+03  0.12499993712E+03 0.  0.
          2    1    1    2  501    0 -0.31606028926E+02  0.51554949800E+02 -0.89648127378E+03  0.89851851854E+03  0.00000000000E+00 0. -1.
          1    1    1    2  502    0  0.30684369473E+02  0.16157011541E+02 -0.90390765841E+00  0.34690007220E+02  0.00000000000E+00 0. -1.
         22    1    3    3    0    0  0.44858519543E+02  0.15972497782E+02 -0.26985046669E+02  0.54732076562E+02  0.00000000000E+00 0. -1.
         22    1    3    3    0    0 -0.43936860090E+02 -0.83684459123E+02 -0.48898981724E+02  0.10641732372E+03  0.00000000000E+00 0. -1.
</event>
<event>
 7    1  0.5018917E-005  0.2603695E+03  0.7818608E-02  0.1240932E+00
          2   -1    0    0  502    0  0.00000000000E+00  0.00000000000E+00  0.54654526756E+03  0.54654526756E+03  0.00000000000E+00 0. -1.
          1   -1    0    0  501    0 -0.00000000000E+00 -0.00000000000E+00 -0.43200750364E+03  0.43200750364E+03  0.00000000000E+00 0. -1.
         25    2    1    2    0    0  0.18522838497E+03 -0.20448216560E+03 -0.17256277917E+03  0.34860494807E+03  0.12499994568E+03 0.  0.
          2    1    1    2  501    0 -0.19662396422E+03  0.14911107707E+03 -0.79310712339E+02  0.25920124556E+03  0.00000000000E+00 0. -1.
          1    1    1    2  502    0  0.11395579252E+02  0.55371088537E+02  0.36641125543E+03  0.37074657757E+03  0.00000000000E+00 0. -1.
         22    1    3    3    0    0  0.39205081165E+02 -0.89938708803E+02 -0.12140767215E+03  0.15609558798E+03  0.00000000000E+00 0. -1.
         22    1    3    3    0    0  0.14602330380E+03 -0.11454345680E+03 -0.51155107017E+02  0.19250936009E+03  0.00000000000E+00 0. -1.
</event>
<event>
 7    1  0.5018917E-005  0.1951542E+04  0.7818608E-02  0.1070082E+00
          2   -1    0    0  502    0  0.00000000000E+00  0.00000000000E+00  0.22947293750E+04  0.22947293750E+04  0.00000000000E+00 0. -1.
          1   -1    0    0  501    0 -0.00000000000E+00 -0.00000000000E+00 -0.29042440579E+04  0.29042440579E+04  0.00000000000E+00 0. -1.
         25    2    1    2    0    0 -0.66064175004E+03 -0.18223607449E+04 -0.82330802386E+03  0.21097174193E+04  0.12500112242E+03 0.  0.
          2    1    1    2  501    0  0.44466298257E+02 -0.35043132936E+02 -0.85675895571E+03  0.85862749842E+03  0.00000000000E+00 0. -1.
          1    1    1    2  502    0  0.61617545178E+03  0.18574038778E+04  0.10705522967E+04  0.22306285152E+04  0.00000000000E+00 0. -1.
         22    1    3    3    0    0 -0.62622076254E+03 -0.16808788041E+04 -0.72890549145E+03  0.19361841888E+04  0.00000000000E+00 0.  1.
         22    1    3    3    0    0 -0.34420987502E+02 -0.14148194077E+03 -0.94402532408E+02  0.17353323045E+03  0.00000000000E+00 0.  1.
</event>
<event>
 7    1  0.5018917E-005  0.1485905E+03  0.7818608E-02  0.1348424E+00
          2   -1    0    0  502    0  0.00000000000E+00  0.00000000000E+00  0.68698330155E+03  0.68698330155E+03  0.00000000000E+00 0. -1.
          1   -1    0    0  501    0 -0.00000000000E+00 -0.00000000000E+00 -0.65791278583E+02  0.65791278583E+02  0.00000000000E+00 0. -1.
         25    2    1    2    0    0 -0.13012743908E+03  0.98442418810E+02  0.44137086196E+03  0.48688653837E+03  0.12500481287E+03 0.  0.
          2    1    1    2  501    0  0.95401951831E+02 -0.10937334482E+03  0.94671284549E+02  0.17328217764E+03  0.00000000000E+00 0. -1.
          1    1    1    2  502    0  0.34725487252E+02  0.10930926005E+02  0.85149876457E+02  0.92605864117E+02  0.00000000000E+00 0. -1.
         22    1    3    3    0    0  0.40842496897E+01  0.65749027240E+02  0.11586836402E+03  0.13328575865E+03  0.00000000000E+00 0.  1.
         22    1    3    3    0    0 -0.13421168877E+03  0.32693391570E+02  0.32550249794E+03  0.35360077972E+03  0.00000000000E+00 0.  1.
</event>
<event>
 7    1  0.5018917E-005  0.7710008E+03  0.7818608E-02  0.1090736E+00
          2   -1    0    0  502    0  0.00000000000E+00  0.00000000000E+00  0.19954208187E+04  0.19954208187E+04  0.00000000000E+00 0. -1.
          1   -1    0    0  501    0 -0.00000000000E+00 -0.00000000000E+00 -0.10338364958E+04  0.10338364958E+04  0.00000000000E+00 0. -1.
         25    2    1    2    0    0 -0.21330994519E+03  0.67789522764E+03 -0.29307835128E+02  0.72216825954E+03  0.12499989408E+03 0.  0.
          2    1    1    2  501    0  0.27377110153E+03 -0.76801520268E+03 -0.40263159588E+03  0.90934601202E+03  0.00000000000E+00 0. -1.
          1    1    1    2  502    0 -0.60461156343E+02  0.90119975038E+02  0.13935237539E+04  0.13977430429E+04  0.00000000000E+00 0. -1.
         22    1    3    3    0    0 -0.50625821876E+02  0.56724328537E+02  0.18568090706E+02  0.78264917307E+02  0.00000000000E+00 0.  1.
         22    1    3    3    0    0 -0.16268412331E+03  0.62117089910E+03 -0.47875925833E+02  0.64390334224E+03  0.00000000000E+00 0.  1.
</event>
<event>
 7    1  0.5018917E-005  0.4434477E+03  0.7818608E-02  0.1092843E+00
          2   -1    0    0  502    0  0.00000000000E+00  0.00000000000E+00  0.22651761772E+04  0.22651761772E+04  0.00000000000E+00 0. -1.
          1   -1    0    0  501    0 -0.00000000000E+00 -0.00000000000E+00 -0.98333686501E+03  0.98333686501E+03  0.00000000000E+00 0. -1.
         25    2    1    2    0    0  0.58327427083E+03  0.20802932146E+03  0.14155939390E+04  0.15501666622E+04  0.12500162694E+03 0.  0.
          2    1    1    2  501    0 -0.41791442967E+03 -0.12843401476E+03 -0.85167605252E+03  0.95733999452E+03  0.00000000000E+00 0. -1.
          1    1    1    2  502    0 -0.16535984116E+03 -0.79595306702E+02  0.71792142567E+03  0.74100638550E+03  0.00000000000E+00 0. -1.
         22    1    3    3    0    0  0.98095861735E+02  0.22515079942E+02  0.13624113484E+03  0.16938528194E+03  0.00000000000E+00 0. -1.
         22    1    3    3    0    0  0.48517840909E+03  0.18551424152E+03  0.12793528042E+04  0.13807813803E+04  0.00000000000E+00 0. -1.
</event>
<event>
 7    1  0.5018917E-005  0.7278697E+03  0.7818608E-02  0.1122373E+00
          2   -1    0    0  502    0  0.00000000000E+00  0.00000000000E+00  0.22404481782E+04  0.22404481782E+04  0.00000000000E+00 0. -1.
          1   -1    0    0  501    0 -0.00000000000E+00 -0.00000000000E+00 -0.91093945592E+03  0.91093945592E+03  0.00000000000E+00 0. -1.
         25    2    1    2    0    0  0.19930477975E+03  0.68717428738E+03  0.13923039410E+04  0.15703711718E+04  0.12499782638E+03 0.  0.
          2    1    1    2  501    0  0.74586800828E+02  0.17565382639E+02 -0.63073900542E+03  0.63537660209E+03  0.00000000000E+00 0. -1.
          1    1    1    2  502    0 -0.27389158057E+03 -0.70473967001E+03  0.56794378665E+03  0.94563986020E+03  0.00000000000E+00 0. -1.
         22    1    3    3    0    0  0.15259640118E+03  0.30251497881E+03  0.65565940960E+03  0.73803132417E+03  0.00000000000E+00 0. -1.
         22    1    3    3    0    0  0.46708378569E+02  0.38465930856E+03  0.73664453144E+03  0.83233984766E+03  0.00000000000E+00 0. -1.
</event>
<event>
 7    1  0.5018917E-005  0.2606055E+03  0.7818608E-02  0.1129262E+00
          2   -1    0    0  502    0  0.00000000000E+00  0.00000000000E+00  0.37106704542E+04  0.37106704542E+04  0.00000000000E+00 0. -1.
          1   -1    0    0  501    0 -0.00000000000E+00 -0.00000000000E+00 -0.47398425093E+03  0.47398425093E+03  0.00000000000E+00 0. -1.
         25    2    1    2    0    0  0.31925748630E+03 -0.23166738895E+03  0.16592257130E+04  0.17100437916E+04  0.12499872253E+03 0.  0.
          2    1    1    2  501    0 -0.19256585870E+03  0.39293258363E+02 -0.42010756386E+03  0.46380592418E+03  0.00000000000E+00 0. -1.
          1    1    1    2  502    0 -0.12669162759E+03  0.19237413059E+03  0.19975680541E+04  0.20108049894E+04  0.00000000000E+00 0. -1.
         22    1    3    3    0    0  0.30788165158E+03 -0.17355917412E+03  0.14625520295E+04  0.15046502376E+04  0.00000000000E+00 0. -1.
         22    1    3    3    0    0  0.11375834719E+02 -0.58108214834E+02  0.19667368347E+03  0.20539355398E+03  0.00000000000E+00 0. -1.
</event>
<event>
 7    1  0.5018917E-005  0.1093008E+04  0.7818608E-02  0.1165445E+00
          2   -1    0    0  502    0  0.00000000000E+00  0.00000000000E+00  0.13633910111E+04  0.13633910111E+04  0.00000000000E+00 0. -1.
          1   -1    0    0  501    0 -0.00000000000E+00 -0.00000000000E+00 -0.29017518698E+04  0.29017518698E+04  0.00000000000E+00 0. -1.
         25    2    1    2    0    0  0.37019922323E+03  0.10281267015E+04  0.96559457911E+03  0.14635877917E+04  0.12499741461E+03 0.  0.
          2    1    1    2  501    0 -0.27775314931E+02  0.12499126132E+02 -0.63100394722E+03  0.63173861500E+03  0.00000000000E+00 0. -1.
          1    1    1    2  502    0 -0.34242390830E+03 -0.10406258276E+04 -0.18729514905E+04  0.21698164742E+04  0.00000000000E+00 0. -1.
         22    1    3    3    0    0  0.80210959779E+02  0.39772841806E+03  0.34168777461E+03  0.53044531096E+03  0.00000000000E+00 0.  1.
         22    1    3    3    0    0  0.28998826345E+03  0.63039828340E+03  0.62390680449E+03  0.93314248073E+03  0.00000000000E+00 0.  1.
</event>
<event>
 7    1  0.5018917E-005  0.6301831E+03  0.7818608E-02  0.1095564E+00
          2   -1    0    0  502    0  0.00000000000E+00  0.00000000000E+00  0.53294753462E+03  0.53294753462E+03  0.00000000000E+00 0. -1.
          1   -1    0    0  501    0 -0.00000000000E+00 -0.00000000000E+00 -0.25523719027E+04  0.25523719027E+04  0.00000000000E+00 0. -1.
         25    2    1    2    0    0  0.40916942958E+03 -0.49625905714E+03  0.23541701472E+03  0.69623163685E+03  0.12499858971E+03 0.  0.
          2    1    1    2  501    0  0.16076850832E+02  0.12357007506E+03 -0.10589275884E+04  0.10662343392E+04  0.00000000000E+00 0. -1.
          1    1    1    2  502    0 -0.42524628042E+03  0.37268898208E+03 -0.11959137944E+04  0.13228534612E+04  0.00000000000E+00 0. -1.
         22    1    3    3    0    0  0.60474754660E+02 -0.26315960968E+02  0.48705977089E+02  0.81987791512E+02  0.00000000000E+00 0. -1.
         22    1    3    3    0    0  0.34869467492E+03 -0.46994309617E+03  0.18671103763E+03  0.61424384534E+03  0.00000000000E+00 0. -1.
</event>
<event>
 7    1  0.5018917E-005  0.2866698E+03  0.7818608E-02  0.1290720E+00
          2   -1    0    0  502    0  0.00000000000E+00  0.00000000000E+00  0.15938872321E+04  0.15938872321E+04  0.00000000000E+00 0. -1.
          1   -1    0    0  501    0 -0.00000000000E+00 -0.00000000000E+00 -0.95538515005E+03  0.95538515005E+03  0.00000000000E+00 0. -1.
         25    2    1    2    0    0  0.13681499601E+03  0.25012783375E+03  0.13276959958E+04  0.13637021379E+04  0.12499834954E+03 0.  0.
          2    1    1    2  501    0  0.30905511735E+02 -0.66679192405E+01 -0.84894233895E+03  0.84953087447E+03  0.00000000000E+00 0. -1.
          1    1    1    2  502    0 -0.16772050774E+03 -0.24345991451E+03  0.15974842525E+03  0.33603936981E+03  0.00000000000E+00 0. -1.
         22    1    3    3    0    0  0.12846979547E+03  0.12078270144E+03  0.88623572382E+03  0.90360760704E+03  0.00000000000E+00 0. -1.
         22    1    3    3    0    0  0.83452005389E+01  0.12934513232E+03  0.44146027195E+03  0.46009453087E+03  0.00000000000E+00 0. -1.
</event>
<event>
 7    1  0.5018917E-005  0.3466650E+03  0.7818608E-02  0.1132194E+00
          2   -1    0    0  502    0  0.00000000000E+00  0.00000000000E+00  0.52616940821E+03  0.52616940821E+03  0.00000000000E+00 0. -1.
          1   -1    0    0  501    0 -0.00000000000E+00 -0.00000000000E+00 -0.32408134340E+04  0.32408134340E+04  0.00000000000E+00 0. -1.
         25    2    1    2    0    0 -0.28321349321E+03 -0.33442229039E+03 -0.98708335129E+03  0.10872009985E+04  0.12499727045E+03 0.  0.
          2    1    1    2  501    0  0.14729623439E+03  0.29152686621E+03 -0.21805618156E+04  0.22048886425E+04  0.00000000000E+00 0. -1.
          1    1    1    2  502    0  0.13591725881E+03  0.42895424180E+02  0.45300114113E+03  0.47489320117E+03  0.00000000000E+00 0. -1.
         22    1    3    3    0    0 -0.27206065988E+03 -0.26822011953E+03 -0.76342804799E+03  0.85368695646E+03  0.00000000000E+00 0.  1.
         22    1    3    3    0    0 -0.11152833330E+02 -0.66202170859E+02 -0.22365530330E+03  0.23351404201E+03  0.00000000000E+00 0.  1.
</event>
<event>
 7    1  0.5018917E-005  0.3619148E+03  0.7818608E-02  0.1175127E+00
          2   -1    0    0  502    0  0.00000000000E+00  0.00000000000E+00  0.23021733500E+04  0.23021733500E+04  0.00000000000E+00 0. -1.
          1   -1    0    0  501    0 -0.00000000000E+00 -0.00000000000E+00 -0.34402139988E+03  0.34402139988E+03  0.00000000000E+00 0. -1.
         25    2    1    2    0    0 -0.23960159848E+03  0.28203516293E+03 -0.82732949968E+02  0.39927805865E+03  0.12500187195E+03 0.  0.
          2    1    1    2  501    0  0.72507551252E+02  0.39037573057E+02 -0.68246911860E+02  0.10695287783E+03  0.00000000000E+00 0. -1.
          1    1    1    2  502    0  0.16709404723E+03 -0.32107273598E+03  0.21091318119E+04  0.21399638134E+04  0.00000000000E+00 0. -1.
         22    1    3    3    0    0 -0.23617611618E+03  0.26302208965E+03 -0.10598940507E+03  0.36904407796E+03  0.00000000000E+00 0. -1.
         22    1    3    3    0    0 -0.34254823065E+01  0.19013073281E+02  0.23256455100E+02  0.30233980691E+02  0.00000000000E+00 0. -1.
</event>
<event>
 7    1  0.5018917E-005  0.4517271E+03  0.7818608E-02  0.1134114E+00
          2   -1    0    0  502    0  0.00000000000E+00  0.00000000000E+00  0.10981881877E+04  0.10981881877E+04  0.00000000000E+00 0. -1.
          1   -1    0    0  501    0 -0.00000000000E+00 -0.00000000000E+00 -0.17083775987E+04  0.17083775987E+04  0.00000000000E+00 0. -1.
         25    2    1    2    0    0 -0.52259867702E+03 -0.14816701659E+03 -0.15302278710E+03  0.57801738943E+03  0.12500114835E+03 0.  0.
          2    1    1    2  501    0  0.41888854930E+03  0.12248076903E+03 -0.13039520109E+04  0.13750490909E+04  0.00000000000E+00 0. -1.
          1    1    1    2  502    0  0.10371012772E+03  0.25686247559E+02  0.84678538701E+03  0.85349930613E+03  0.00000000000E+00 0. -1.
         22    1    3    3    0    0 -0.48073465166E+02 -0.53427366484E+02 -0.35005347349E+02  0.79943204124E+02  0.00000000000E+00 0. -1.
         22    1    3    3    0    0 -0.47452521185E+03 -0.94739650105E+02 -0.11801743975E+03  0.49807418530E+03  0.00000000000E+00 0. -1.
</event>
<event>
 7    1  0.5018917E-005  0.1331533E+03  0.7818608E-02  0.1281835E+00
          2   -1    0    0  502    0  0.00000000000E+00  0.00000000000E+00  0.61050453144E+03  0.61050453144E+03  0.00000000000E+00 0. -1.
          1   -1    0    0  501    0 -0.00000000000E+00 -0.00000000000E+00 -0.55215952104E+03  0.55215952104E+03  0.00000000000E+00 0. -1.
         25    2    1    2    0    0  0.52053589587E+02 -0.46601755959E+02  0.21695596059E+03  0.25995377550E+03  0.12499910685E+03 0.  0.
          2    1    1    2  501    0 -0.63810563412E+02  0.11967316577E+03 -0.51816412398E+03  0.53561881407E+03  0.00000000000E+00 0. -1.
          1    1    1    2  502    0  0.11756973825E+02 -0.73071409809E+02  0.35955317378E+03  0.36709146291E+03  0.00000000000E+00 0. -1.
         22    1    3    3    0    0 -0.28580511278E+01 -0.15587097922E+02 -0.13628139065E+02  0.20901010795E+02  0.00000000000E+00 0. -1.
         22    1    3    3    0    0  0.54911640715E+02 -0.31014658038E+02  0.23058409966E+03  0.23905276471E+03  0.00000000000E+00 0. -1.
</event>
<event>
 7    1  0.5018917E-005  0.6867139E+03  0.7818608E-02  0.1224723E+00
          2   -1    0    0  502    0  0.00000000000E+00  0.00000000000E+00  0.89294926057E+03  0.89294926057E+03  0.00000000000E+00 0. -1.
          1   -1    0    0  501    0 -0.00000000000E+00 -0.00000000000E+00 -0.23443556527E+04  0.23443556527E+04  0.00000000000E+00 0. -1.
         25    2    1    2    0    0 -0.18603703761E+03 -0.66434090500E+03  0.53879144163E+03  0.88423886282E+03  0.12499412593E+03 0.  0.
          2    1    1    2  501    0 -0.15751601772E+02  0.19822510395E+02 -0.15426717825E+04  0.15428795395E+04  0.00000000000E+00 0. -1.
          1    1    1    2  502    0  0.20178863939E+03  0.64451839461E+03 -0.44752605127E+03  0.81018651096E+03  0.00000000000E+00 0. -1.
         22    1    3    3    0    0 -0.14398868715E+03 -0.57886268543E+03  0.50977737546E+03  0.78465771082E+03  0.00000000000E+00 0. -1.
         22    1    3    3    0    0 -0.42048350464E+02 -0.85478219573E+02  0.29014066168E+02  0.99581152000E+02  0.00000000000E+00 0. -1.
</event>
<event>
 7    1  0.5018917E-005  0.3879387E+03  0.7818608E-02  0.1176546E+00
          2   -1    0    0  502    0  0.00000000000E+00  0.00000000000E+00  0.96026957140E+03  0.96026957140E+03  0.00000000000E+00 0. -1.
          1   -1    0    0  501    0 -0.00000000000E+00 -0.00000000000E+00 -0.21156671713E+04  0.21156671713E+04  0.00000000000E+00 0. -1.
         25    2    1    2    0    0  0.43616875489E+03  0.40351577460E+00 -0.23442378025E+03  0.51070833582E+03  0.12500059981E+03 0.  0.
          2    1    1    2  501    0 -0.37798996102E+03 -0.48679620332E+02 -0.17204650052E+04  0.17621708062E+04  0.00000000000E+00 0. -1.
          1    1    1    2  502    0 -0.58178793875E+02  0.48276104557E+02  0.79949118553E+03  0.80305760071E+03  0.00000000000E+00 0. -1.
         22    1    3    3    0    0  0.14040613017E+03 -0.54421978590E+02 -0.54157152297E+02  0.16002696737E+03  0.00000000000E+00 0.  1.
         22    1    3    3    0    0  0.29576262473E+03  0.54825494365E+02 -0.18026662796E+03  0.35068136844E+03  0.00000000000E+00 0.  1.
</event>
<event>
 7    1  0.5018917E-005  0.2667275E+03  0.7818608E-02  0.1200995E+00
          2   -1    0    0  502    0  0.00000000000E+00  0.00000000000E+00  0.57816855532E+03  0.57816855532E+03  0.00000000000E+00 0. -1.
          1   -1    0    0  501    0 -0.00000000000E+00 -0.00000000000E+00 -0.41225081407E+03  0.41225081407E+03  0.00000000000E+00 0. -1.
         25    2    1    2    0    0  0.14131160709E+03 -0.28979774210E+03 -0.59131421253E+02  0.35081723351E+03  0.12499801886E+03 0.  0.
          2    1    1    2  501    0 -0.93951465547E+02  0.22056806991E+03 -0.13141711553E+03  0.27340009070E+03  0.00000000000E+00 0. -1.
          1    1    1    2  502    0 -0.47360141548E+02  0.69229672191E+02  0.35646627803E+03  0.36620204518E+03  0.00000000000E+00 0. -1.
         22    1    3    3    0    0  0.29649426775E+02 -0.51639390383E+00  0.13120337707E+02  0.32426816561E+02  0.00000000000E+00 0.  1.
         22    1    3    3    0    0  0.11166218032E+03 -0.28928134820E+03 -0.72251758960E+02  0.31839041695E+03  0.00000000000E+00 0.  1.
</event>
<event>
 7    1  0.5018917E-005  0.2910521E+03  0.7818608E-02  0.1162978E+00
          2   -1    0    0  502    0  0.00000000000E+00  0.00000000000E+00  0.21983225601E+04  0.21983225601E+04  0.00000000000E+00 0. -1.
          1   -1    0    0  501    0 -0.00000000000E+00 -0.00000000000E+00 -0.21676000643E+04  0.21676000643E+04  0.00000000000E+00 0. -1.
         25    2    1    2    0    0 -0.20113852575E+03 -0.35250817031E+03  0.38050262837E+03  0.57019889084E+03  0.12500323294E+03 0.  0.
          2    1    1    2  501    0  0.15059290496E+03  0.24622607032E+03 -0.20606729137E+04  0.20807879176E+04  0.00000000000E+00 0. -1.
          1    1    1    2  502    0  0.50545620784E+02  0.10628209998E+03  0.17108927811E+04  0.17149358160E+04  0.00000000000E+00 0. -1.
         22    1    3    3    0    0 -0.87694741207E+02 -0.93755031042E+02  0.56341755353E+02  0.14019545955E+03  0.00000000000E+00 0.  1.
         22    1    3    3    0    0 -0.11344378454E+03 -0.25875313927E+03  0.32416087301E+03  0.43000343129E+03  0.00000000000E+00 0.  1.
</event>
<event>
 7    1  0.5018917E-005  0.1427303E+04  0.7818608E-02  0.1084301E+00
          2   -1    0    0  502    0  0.00000000000E+00  0.00000000000E+00  0.16510422124E+04  0.16510422124E+04  0.00000000000E+00 0. -1.
          1   -1    0    0  501    0 -0.00000000000E+00 -0.00000000000E+00 -0.20962108775E+04  0.20962108775E+04  0.00000000000E+00 0. -1.
         25    2    1    2    0    0  0.12574991230E+04  0.68949664553E+03 -0.15219439477E+03  0.14475834018E+04  0.12499961205E+03 0.  0.
          2    1    1    2  501    0 -0.12773204681E+04 -0.62879967563E+03 -0.90325202021E+03  0.16860607410E+04  0.00000000000E+00 0. -1.
          1    1    1    2  502    0  0.19821345140E+02 -0.60696969908E+02  0.61027774993E+03  0.61360894708E+03  0.00000000000E+00 0. -1.
         22    1    3    3    0    0  0.94505493267E+03  0.48740959282E+03 -0.16050496393E+03  0.10753877349E+04  0.00000000000E+00 0. -1.
         22    1    3    3    0    0  0.31244419028E+03  0.20208705271E+03  0.83105691534E+01  0.37219566692E+03  0.00000000000E+00 0. -1.
</event>
<event>
 7    1  0.5018917E-005  0.6855720E+03  0.7818608E-02  0.1147155E+00
          2   -1    0    0  502    0  0.00000000000E+00  0.00000000000E+00  0.95535549946E+03  0.95535549946E+03  0.00000000000E+00 0. -1.
          1   -1    0    0  501    0 -0.00000000000E+00 -0.00000000000E+00 -0.23179643865E+04  0.23179643865E+04  0.00000000000E+00 0. -1.
         25    2    1    2    0    0  0.43748603952E+03 -0.52904194476E+03  0.68756269174E+03  0.97961556855E+03  0.12499917192E+03 0.  0.
          2    1    1    2  501    0  0.41328088674E+02  0.43723115896E+02 -0.12110214975E+04  0.12125150676E+04  0.00000000000E+00 0. -1.
          1    1    1    2  502    0 -0.47881412819E+03  0.48531882886E+03 -0.83915008133E+03  0.10811892499E+04  0.00000000000E+00 0. -1.
         22    1    3    3    0    0  0.27142104082E+03 -0.41577125436E+03  0.50108042882E+03  0.70541953014E+03  0.00000000000E+00 0. -1.
         22    1    3    3    0    0  0.16606499870E+03 -0.11327069040E+03  0.18648226292E+03  0.27419603841E+03  0.00000000000E+00 0. -1.
</event>
<event>
 7    1  0.5018917E-005  0.5709209E+03  0.7818608E-02  0.1010624E+00
          2   -1    0    0  502    0  0.00000000000E+00  0.00000000000E+00  0.10269963881E+04  0.10269963881E+04  0.00000000000E+00 0. -1.
          1   -1    0    0  501    0 -0.00000000000E+00 -0.00000000000E+00 -0.23801446940E+04  0.23801446940E+04  0.00000000000E+00 0. -1.
         25    2    1    2    0    0  0.66538290456E+03  0.65168205527E+03 -0.10200647438E+04  0.13869323090E+04  0.12500094976E+03 0.  0.
          2    1    1    2  501    0 -0.32551943259E+03 -0.34221656192E+03 -0.10598276346E+04  0.11603058611E+04  0.00000000000E+00 0. -1.
          1    1    1    2  502    0 -0.33986347197E+03 -0.30946549335E+03  0.72674407245E+03  0.85990291196E+03  0.00000000000E+00 0. -1.
         22    1    3    3    0    0  0.49213678639E+03  0.50866513147E+03 -0.84413886283E+03  0.11015939598E+04  0.00000000000E+00 0.  1.
         22    1    3    3    0    0  0.17324611816E+03  0.14301692380E+03 -0.17592588095E+03  0.28533834923E+03  0.00000000000E+00 0.  1.
</event>
<event>
 7    1  0.5018917E-005  0.5896290E+03  0.7818608E-02  0.1121772E+00
          2   -1    0    0  502    0  0.00000000000E+00  0.00000000000E+00  0.15153686119E+04  0.15153686119E+04  0.00000000000E+00 0. -1.
          1   -1    0    0  501    0 -0.00000000000E+00 -0.00000000000E+00 -0.67325159120E+03  0.67325159120E+03  0.00000000000E+00 0. -1.
         25    2    1    2    0    0  0.32563153667E+03  0.48908835217E+03  0.11085356877E+04  0.12608408098E+04  0.12499945171E+03 0.  0.
          2    1    1    2  501    0  0.83487751796E+02 -0.45963189007E+02 -0.30881225585E+03  0.32318389317E+03  0.00000000000E+00 0. -1.
          1    1    1    2  502    0 -0.40911928847E+03 -0.44312516316E+03  0.42393588909E+02  0.60459550015E+03  0.00000000000E+00 0. -1.
         22    1    3    3    0    0  0.21789429482E+03  0.40856264068E+03  0.80152777243E+03  0.92566091256E+03  0.00000000000E+00 0.  1.
         22    1    3    3    0    0  0.10773724186E+03  0.80525711485E+02  0.30700791525E+03  0.33517989725E+03  0.00000000000E+00 0.  1.
</event>
<event>
 7    1  0.5018917E-005  0.3036445E+03  0.7818608E-02  0.1165602E+00
          2   -1    0    0  502    0  0.00000000000E+00  0.00000000000E+00  0.91758757356E+03  0.91758757356E+03  0.00000000000E+00 0. -1.
          1   -1    0    0  501    0 -0.00000000000E+00 -0.00000000000E+00 -0.27416859673E+03  0.27416859673E+03  0.00000000000E+00 0. -1.
         25    2    1    2    0    0 -0.14511828714E+03 -0.24589418349E+03 -0.84033682751E+02  0.32281555046E+03  0.12499981219E+03 0.  0.
          2    1    1    2  501    0  0.92298736638E+02 -0.58804433925E+02  0.42477296474E+02  0.11739394767E+03  0.00000000000E+00 0. -1.
          1    1    1    2  502    0  0.52819550503E+02  0.30469861741E+03  0.68497536311E+03  0.75154667216E+03  0.00000000000E+00 0. -1.
         22    1    3    3    0    0 -0.16789955744E+03 -0.22526024581E+03 -0.75855776711E+02  0.29100951632E+03  0.00000000000E+00 0. -1.
         22    1    3    3    0    0  0.22781270297E+02 -0.20633937679E+02 -0.81779060397E+01  0.31806034139E+02  0.00000000000E+00 0. -1.
</event>
<event>
 7    1  0.5018917E-005  0.6402179E+03  0.7818608E-02  0.1136855E+00
          2   -1    0    0  502    0  0.00000000000E+00  0.00000000000E+00  0.17241251725E+04  0.17241251725E+04  0.00000000000E+00 0. -1.
          1   -1    0    0  501    0 -0.00000000000E+00 -0.00000000000E+00 -0.13489538711E+04  0.13489538711E+04  0.00000000000E+00 0. -1.
         25    2    1    2    0    0 -0.98358552811E+02 -0.63054940239E+03  0.26940011242E+03  0.70389525688E+03  0.12500063326E+03 0.  0.
          2    1    1    2  501    0 -0.72016785554E+02  0.11414125900E+02 -0.10470471333E+04  0.10495829643E+04  0.00000000000E+00 0. -1.
          1    1    1    2  502    0  0.17037533836E+03  0.61913527649E+03  0.11528183222E+04  0.13196008224E+04  0.00000000000E+00 0. -1.
         22    1    3    3    0    0 -0.12638237909E+03 -0.51602104854E+03  0.20421991850E+03  0.56917133044E+03  0.00000000000E+00 0. -1.
         22    1    3    3    0    0  0.28023826279E+02 -0.11452835385E+03  0.65180193926E+02  0.13472392644E+03  0.00000000000E+00 0. -1.
</event>
<event>
 7    1  0.5018917E-005  0.2774608E+03  0.7818608E-02  0.1188506E+00
          2   -1    0    0  502    0  0.00000000000E+00  0.00000000000E+00  0.59287392650E+03  0.59287392650E+03  0.00000000000E+00 0. -1.
          1   -1    0    0  501    0 -0.00000000000E+00 -0.00000000000E+00 -0.76645184729E+03  0.76645184729E+03  0.00000000000E+00 0. -1.
         25    2    1    2    0    0 -0.32269714291E+03 -0.47147330892E+02 -0.11641335510E+03  0.36815058682E+03  0.12500587378E+03 0.  0.
          2    1    1    2  501    0  0.53303830138E+02  0.75549082788E+02 -0.48010229706E+03  0.48892451141E+03  0.00000000000E+00 0. -1.
          1    1    1    2  502    0  0.26939331277E+03 -0.28401751896E+02  0.42293773137E+03  0.50225067555E+03  0.00000000000E+00 0. -1.
         22    1    3    3    0    0 -0.17551585837E+03 -0.45114274349E+02 -0.12588016168E+03  0.22065114864E+03  0.00000000000E+00 0.  1.
         22    1    3    3    0    0 -0.14718128454E+03 -0.20330565432E+01  0.94668065888E+01  0.14749943819E+03  0.00000000000E+00 0.  1.
</event>
<event>
 7    1  0.5018917E-005  0.3499951E+03  0.7818608E-02  0.1221582E+00
          2   -1    0    0  502    0  0.00000000000E+00  0.00000000000E+00  0.16297768810E+04  0.16297768810E+04  0.00000000000E+00 0. -1.
          1   -1    0    0  501    0 -0.00000000000E+00 -0.00000000000E+00 -0.28291811518E+03  0.28291811518E+03  0.00000000000E+00 0. -1.
         25    2    1    2    0    0  0.87452842412E+02  0.32424889059E+03 -0.10018333772E+01  0.35834370405E+03  0.12499545538E+03 0.  0.
          2    1    1    2  501    0 -0.12758956458E+03 -0.35625221756E+03  0.24610511769E+03  0.45140056320E+03  0.00000000000E+00 0. -1.
          1    1    1    2  502    0  0.40136722172E+02  0.32003326963E+02  0.11017554815E+04  0.11029507289E+04  0.00000000000E+00 0. -1.
         22    1    3    3    0    0 -0.21472950892E+02  0.13692667309E+03  0.22382712979E+02  0.14039582352E+03  0.00000000000E+00 0. -1.
         22    1    3    3    0    0  0.10892579330E+03  0.18732221751E+03 -0.23384546356E+02  0.21794788053E+03  0.00000000000E+00 0. -1.
</event>
<event>
 7    1  0.1353873E-004  0.1590972E+04  0.7818608E-02  0.1098398E+00
          2   -1    0    0  502    0  0.00000000000E+00  0.00000000000E+00  0.27551815128E+04  0.27551815128E+04  0.00000000000E+00 0. -1.
          1   -1    0    0  501    0 -0.00000000000E+00 -0.00000000000E+00 -0.16554109405E+04  0.16554109405E+04  0.00000000000E+00 0. -1.
         25    2    1    2    0    0  0.15650401968E+04  0.22106187080E+02  0.21447423726E+03  0.15847596037E+04  0.12499720836E+03 0.  0.
          2    1    1    2  501    0 -0.16101375143E+04 -0.69783982995E+01 -0.30145467212E+03  0.16381289425E+04  0.00000000000E+00 0. -1.
          1    1    1    2  502    0  0.45097317489E+02 -0.15127788780E+02  0.11867510071E+04  0.11877039071E+04  0.00000000000E+00 0. -1.
         22    1    3    3    0    0  0.44000474638E+03 -0.19070071037E+02  0.98646071747E+01  0.44052826801E+03  0.00000000000E+00 0. -1.
         22    1    3    3    0    0  0.11250354504E+04  0.41176258117E+02  0.20460963008E+03  0.11442313357E+04  0.00000000000E+00 0. -1.
</event>
<event>
 7    1  0.5018917E-005  0.1960727E+03  0.7818608E-02  0.1242571E+00
          2   -1    0    0  502    0  0.00000000000E+00  0.00000000000E+00  0.69669560836E+03  0.69669560836E+03  0.00000000000E+00 0. -1.
          1   -1    0    0  501    0 -0.00000000000E+00 -0.00000000000E+00 -0.84919888353E+03  0.84919888353E+03  0.00000000000E+00 0. -1.
         25    2    1    2    0    0  0.24306346809E+03  0.99406964516E+02  0.43527879586E+03  0.52350097538E+03  0.12499618785E+03 0.  0.
          2    1    1    2  501    0 -0.18783300681E+03 -0.50406658794E+02 -0.78661242782E+03  0.81029697106E+03  0.00000000000E+00 0. -1.
          1    1    1    2  502    0 -0.55230461277E+02 -0.49000305722E+02  0.19883035680E+03  0.21209654546E+03  0.00000000000E+00 0. -1.
         22    1    3    3    0    0  0.22853561538E+03  0.11028723174E+03  0.43693391651E+03  0.50527522043E+03  0.00000000000E+00 0.  1.
         22    1    3    3    0    0  0.14527852709E+02 -0.10880267219E+02 -0.16551206467E+01  0.18225754949E+02  0.00000000000E+00 0.  1.
</event>
<event>
 7    1  0.5018917E-005  0.9008767E+03  0.7818608E-02  0.1053261E+00
          2   -1    0    0  502    0  0.00000000000E+00  0.00000000000E+00  0.11461229434E+04  0.11461229434E+04  0.00000000000E+00 0. -1.
          1   -1    0    0  501    0 -0.00000000000E+00 -0.00000000000E+00 -0.16118213673E+04  0.16118213673E+04  0.00000000000E+00 0. -1.
         25    2    1    2    0    0 -0.25609321390E+03  0.93874027830E+03 -0.55675628539E+01  0.98105764701E+03  0.12500425871E+03 0.  0.
          2    1    1    2  501    0  0.12858713472E+03 -0.86682324628E+02 -0.82632193883E+03  0.84074753833E+03  0.00000000000E+00 0. -1.
          1    1    1    2  502    0  0.12750607918E+03 -0.85205795367E+03  0.36619107776E+03  0.93613912538E+03  0.00000000000E+00 0. -1.
         22    1    3    3    0    0 -0.21519251647E+03  0.59423962230E+03 -0.34417191748E+02  0.63294003740E+03  0.00000000000E+00 0. -1.
         22    1    3    3    0    0 -0.40900697428E+02  0.34450065600E+03  0.28849628894E+02  0.34811760961E+03  0.00000000000E+00 0. -1.
</event>
<event>
 7    1  0.5018917E-005  0.4480418E+03  0.7818608E-02  0.1199945E+00
          2   -1    0    0  502    0  0.00000000000E+00  0.00000000000E+00  0.54895460829E+03  0.54895460829E+03  0.00000000000E+00 0. -1.
          1   -1    0    0  501    0 -0.00000000000E+00 -0.00000000000E+00 -0.14428875604E+04  0.14428875604E+04  0.00000000000E+00 0. -1.
         25    2    1    2    0    0 -0.60298591514E+02 -0.43022024979E+03 -0.88537380043E+03  0.99410081815E+03  0.12499714675E+03 0.  0.
          2    1    1    2  501    0  0.94260548577E+02  0.46760406295E+03 -0.38804287648E+03  0.61491128197E+03  0.00000000000E+00 0. -1.
          1    1    1    2  502    0 -0.33961957063E+02 -0.37383813164E+02  0.37948372480E+03  0.38283006857E+03  0.00000000000E+00 0. -1.
         22    1    3    3    0    0 -0.63493762271E+02 -0.42607245232E+03 -0.80035510912E+03  0.90892105992E+03  0.00000000000E+00 0.  1.
         22    1    3    3    0    0  0.31951707563E+01 -0.41477974679E+01 -0.85018691319E+02  0.85179758239E+02  0.00000000000E+00 0.  1.
</event>
<event>
 7    1  0.5018917E-005  0.1363133E+03  0.7818608E-02  0.1332066E+00
          2   -1    0    0  502    0  0.00000000000E+00  0.00000000000E+00  0.91861752329E+03  0.91861752329E+03  0.00000000000E+00 0. -1.
          1   -1    0    0  501    0 -0.00000000000E+00 -0.00000000000E+00 -0.35454935581E+03  0.35454935581E+03  0.00000000000E+00 0. -1.
         25    2    1    2    0    0 -0.14188558253E+03  0.81609892885E+02  0.56524677725E+03  0.60159950360E+03  0.12500540146E+03 0.  0.
          2    1    1    2  501    0  0.44304622419E+02 -0.11300191967E+02 -0.32392665956E+03  0.32713769987E+03  0.00000000000E+00 0. -1.
          1    1    1    2  502    0  0.97580960109E+02 -0.70309700919E+02  0.32274804979E+03  0.34442967564E+03  0.00000000000E+00 0. -1.
         22    1    3    3    0    0  0.18949017605E+02  0.26491027900E+02  0.13744812516E+03  0.14125447582E+03  0.00000000000E+00 0. -1.
         22    1    3    3    0    0 -0.16083460013E+03  0.55118864985E+02  0.42779865208E+03  0.46034502778E+03  0.00000000000E+00 0. -1.
</event>
<event>
 7    1  0.5018917E-005  0.4906545E+03  0.7818608E-02  0.1198756E+00
          2   -1    0    0  502    0  0.00000000000E+00  0.00000000000E+00  0.70212276662E+03  0.70212276662E+03  0.00000000000E+00 0. -1.
          1   -1    0    0  501    0 -0.00000000000E+00 -0.00000000000E+00 -0.14625070223E+04  0.14625070223E+04  0.00000000000E+00 0. -1.
         25    2    1    2    0    0  0.49704893710E+03  0.40055787668E+02  0.30221496624E+03  0.59633982514E+03  0.12500075690E+03 0.  0.
          2    1    1    2  501    0 -0.17678351033E+02 -0.43246848445E+02 -0.10872709601E+04  0.10882743012E+04  0.00000000000E+00 0. -1.
          1    1    1    2  502    0 -0.47937058607E+03  0.31910607768E+01  0.24671738168E+02  0.48001566258E+03  0.00000000000E+00 0. -1.
         22    1    3    3    0    0  0.29803118152E+03  0.12700868565E+02  0.24888133597E+03  0.38849172014E+03  0.00000000000E+00 0. -1.
         22    1    3    3    0    0  0.19901775558E+03  0.27354919103E+02  0.53333630274E+02  0.20784810500E+03  0.00000000000E+00 0. -1.
</event>
<event>
 7    1  0.5018917E-005  0.8477718E+03  0.7818608E-02  0.1214064E+00
          2   -1    0    0  502    0  0.00000000000E+00  0.00000000000E+00  0.28376925514E+04  0.28376925514E+04  0.00000000000E+00 0. -1.
          1   -1    0    0  501    0 -0.00000000000E+00 -0.00000000000E+00 -0.67217840679E+03  0.67217840679E+03  0.00000000000E+00 0. -1.
         25    2    1    2    0    0  0.21480255245E+03  0.80455947465E+03 -0.52467045661E+01  0.84208580025E+03  0.12499952916E+03 0.  0.
          2    1    1    2  501    0  0.18777113781E+02  0.13177745653E+02 -0.17299285045E+03  0.17450718979E+03  0.00000000000E+00 0. -1.
          1    1    1    2  502    0 -0.23357966623E+03 -0.81773722030E+03  0.23437536996E+04  0.24932779681E+04  0.00000000000E+00 0. -1.
         22    1    3    3    0    0  0.39776396807E+02  0.22734500820E+03  0.50791024220E+02  0.23632105839E+03  0.00000000000E+00 0. -1.
         22    1    3    3    0    0  0.17502615565E+03  0.57721446645E+03 -0.56037728786E+02  0.60576474186E+03  0.00000000000E+00 0. -1.
</event>
<event>
 7    1  0.5018917E-005  0.5597728E+03  0.7818608E-02  0.1168777E+00
          2   -1    0    0  502    0  0.00000000000E+00  0.00000000000E+00  0.11481379039E+04  0.11481379039E+04  0.00000000000E+00 0. -1.
          1   -1    0    0  501    0 -0.00000000000E+00 -0.00000000000E+00 -0.52285051782E+03  0.52285051782E+03  0.00000000000E+00 0. -1.
         25    2    1    2    0    0 -0.14559232491E+03 -0.56921925720E+03  0.46526551674E+03  0.75980558923E+03  0.12499937806E+03 0.  0.
          2    1    1    2  501    0  0.33429334935E+02  0.46461053265E+02 -0.23790761930E+03  0.24469610791E+03  0.00000000000E+00 0. -1.
          1    1    1    2  502    0  0.11216298997E+03  0.52275820394E+03  0.39792948861E+03  0.66648672456E+03  0.00000000000E+00 0. -1.
         22    1    3    3    0    0 -0.72790436843E+02 -0.15515056228E+03  0.19689131842E+03  0.26102937754E+03  0.00000000000E+00 0. -1.
         22    1    3    3    0    0 -0.72801888067E+02 -0.41406869492E+03  0.26837419833E+03  0.49877621169E+03  0.00000000000E+00 0. -1.
</event>
<event>
 7    1  0.5018917E-005  0.2465177E+03  0.7818608E-02  0.1245500E+00
          2   -1    0    0  502    0  0.00000000000E+00  0.00000000000E+00  0.42550650750E+03  0.42550650750E+03  0.00000000000E+00 0. -1.
          1   -1    0    0  501    0 -0.00000000000E+00 -0.00000000000E+00 -0.14779386176E+04  0.14779386176E+04  0.00000000000E+00 0. -1.
         25    2    1    2    0    0  0.29680427535E+03  0.38576068851E+02 -0.76912604295E+03  0.83472189851E+03  0.12499954784E+03 0.  0.
          2    1    1    2  501    0 -0.56761920775E+02  0.53716733099E+01 -0.63670652507E+03  0.63925422924E+03  0.00000000000E+00 0. -1.
          1    1    1    2  502    0 -0.24004235457E+03 -0.43947742161E+02  0.35340045793E+03  0.42946899736E+03  0.00000000000E+00 0. -1.
         22    1    3    3    0    0  0.23544443970E+03  0.35643865736E+02 -0.44382759150E+03  0.50367400204E+03  0.00000000000E+00 0. -1.
         22    1    3    3    0    0  0.61359835645E+02  0.29322031154E+01 -0.32529845145E+03  0.33104789648E+03  0.00000000000E+00 0. -1.
</event>
<event>
 7    1  0.5018917E-005  0.8197935E+03  0.7818608E-02  0.1169993E+00
          2   -1    0    0  502    0  0.00000000000E+00  0.00000000000E+00  0.27478515017E+04  0.27478515017E+04  0.00000000000E+00 0. -1.
          1   -1    0    0  501    0 -0.00000000000E+00 -0.00000000000E+00 -0.38700514732E+03  0.38700514732E+03  0.00000000000E+00 0. -1.
         25    2    1    2    0    0 -0.36229107636E+03 -0.71182716194E+03  0.10095963221E+04  0.12933922765E+04  0.12500445909E+03 0.  0.
          2    1    1    2  501    0 -0.25481974329E+02 -0.28917149897E+02 -0.13269778766E+03  0.13818189254E+03  0.00000000000E+00 0. -1.
          1    1    1    2  502    0  0.38777305069E+03  0.74074431184E+03  0.14839478199E+04  0.17032824800E+04  0.00000000000E+00 0. -1.
         22    1    3    3    0    0 -0.83654385212E+02 -0.78120465648E+02  0.17430949678E+03  0.20852976762E+03  0.00000000000E+00 0. -1.
         22    1    3    3    0    0 -0.27863669115E+03 -0.63370669629E+03  0.83528682532E+03  0.10848625089E+04  0.00000000000E+00 0. -1.
</event>
<event>
 7    1  0.5018917E-005  0.5469996E+03  0.7818608E-02  0.1168389E+00
          2   -1    0    0  502    0  0.00000000000E+00  0.00000000000E+00  0.19161373602E+04  0.19161373602E+04  0.00000000000E+00 0. -1.
          1   -1    0    0  501    0 -0.00000000000E+00 -0.00000000000E+00 -0.43837503466E+03  0.43837503466E+03  0.00000000000E+00 0. -1.
         25    2    1    2    0    0  0.50619053753E+03  0.27676282755E+03  0.92210237385E+03  0.10948628342E+04  0.12500125956E+03 0.  0.
          2    1    1    2  501    0 -0.40625144595E+02 -0.42558174815E+02 -0.27380235004E+03  0.28005236565E+03  0.00000000000E+00 0. -1.
          1    1    1    2  502    0 -0.46556539293E+03 -0.23420465273E+03  0.82946230172E+03  0.97959719499E+03  0.00000000000E+00 0. -1.
         22    1    3    3    0    0  0.28255551045E+03  0.18006598541E+03  0.63772766692E+03  0.72038736298E+03  0.00000000000E+00 0. -1.
         22    1    3    3    0    0  0.22363502707E+03  0.96696842136E+02  0.28437470693E+03  0.37447547124E+03  0.00000000000E+00 0. -1.
</event>
<event>
 7    1  0.5018917E-005  0.3600708E+03  0.7818608E-02  0.1223371E+00
          2   -1    0    0  502    0  0.00000000000E+00  0.00000000000E+00  0.13275446305E+04  0.13275446305E+04  0.00000000000E+00 0. -1.
          1   -1    0    0  501    0 -0.00000000000E+00 -0.00000000000E+00 -0.65511568265E+03  0.65511568265E+03  0.00000000000E+00 0. -1.
         25    2    1    2    0    0  0.27730269215E+03 -0.28713757527E+03 -0.18433254090E+03  0.45710920344E+03  0.12500227208E+03 0.  0.
          2    1    1    2  501    0 -0.46686029104E+02  0.14790498764E+02 -0.30567220187E+03  0.30957041067E+03  0.00000000000E+00 0. -1.
          1    1    1    2  502    0 -0.23061666305E+03  0.27234707651E+03  0.11624336906E+04  0.12159806990E+04  0.00000000000E+00 0. -1.
         22    1    3    3    0    0  0.21121490169E+03 -0.28154728468E+03 -0.15583213810E+03  0.38492111330E+03  0.00000000000E+00 0.  1.
         22    1    3    3    0    0  0.66087790464E+02 -0.55902905983E+01 -0.28500402798E+02  0.72188090133E+02  0.00000000000E+00 0.  1.
</event>
<event>
 7    1  0.5018917E-005  0.6806779E+03  0.7818608E-02  0.1113777E+00
          2   -1    0    0  502    0  0.00000000000E+00  0.00000000000E+00  0.97579557744E+03  0.97579557744E+03  0.00000000000E+00 0. -1.
          1   -1    0    0  501    0 -0.00000000000E+00 -0.00000000000E+00 -0.10016705609E+04  0.10016705609E+04  0.00000000000E+00 0. -1.
         25    2    1    2    0    0  0.31989565909E+03 -0.61706334835E+03  0.47048457006E+03  0.84857606442E+03  0.12500079148E+03 0.  0.
          2    1    1    2  501    0  0.52208717067E+02  0.74867099700E+02 -0.46142134157E+03  0.47036208097E+03  0.00000000000E+00 0. -1.
          1    1    1    2  502    0 -0.37210437616E+03  0.54219624865E+03 -0.34938211921E+02  0.65852799292E+03  0.00000000000E+00 0. -1.
         22    1    3    3    0    0  0.31089857819E+03 -0.56573860282E+03  0.46622713403E+03  0.79629506664E+03  0.00000000000E+00 0.  1.
         22    1    3    3    0    0  0.89970809062E+01 -0.51324745527E+02  0.42574360259E+01  0.52280997788E+02  0.00000000000E+00 0.  1.
</event>
<event>
 7    1  0.5018917E-005  0.1226194E+03  0.7818608E-02  0.1260310E+00
          2   -1    0    0  502    0  0.00000000000E+00  0.00000000000E+00  0.23649901785E+03  0.23649901785E+03  0.00000000000E+00 0. -1.
          1   -1    0    0  501    0 -0.00000000000E+00 -0.00000000000E+00 -0.36850372722E+03  0.36850372722E+03  0.00000000000E+00 0. -1.
         25    2    1    2    0    0  0.10258128548E+03 -0.14338800804E+03  0.82888130360E+02  0.23146893676E+03  0.12499754218E+03 0.  0.
          2    1    1    2  501    0 -0.11132983450E+03  0.44843715372E+02 -0.24271089137E+03  0.27076533687E+03  0.00000000000E+00 0. -1.
          1    1    1    2  502    0  0.87485490232E+01  0.98544292665E+02  0.27818051638E+02  0.10276847145E+03  0.00000000000E+00 0. -1.
         22    1    3    3    0    0  0.11179389215E+03 -0.82917171645E+02  0.95777651876E+02  0.16895706636E+03  0.00000000000E+00 0. -1.
         22    1    3    3    0    0 -0.92126066709E+01 -0.60470836391E+02 -0.12889521516E+02  0.62511870396E+02  0.00000000000E+00 0. -1.
</event>
<event>
 7    1  0.5018917E-005  0.5009461E+03  0.7818608E-02  0.1157039E+00
          2   -1    0    0  502    0  0.00000000000E+00  0.00000000000E+00  0.10603252242E+04  0.10603252242E+04  0.00000000000E+00 0. -1.
          1   -1    0    0  501    0 -0.00000000000E+00 -0.00000000000E+00 -0.11614671425E+04  0.11614671425E+04  0.00000000000E+00 0. -1.
         25    2    1    2    0    0 -0.49181988920E+03 -0.78720934089E+02 -0.29567046099E+03  0.59256773289E+03  0.12502682786E+03 0.  0.
          2    1    1    2  501    0  0.50460997211E+03  0.65747058897E+01 -0.62675926680E+03  0.80467485933E+03  0.00000000000E+00 0. -1.
          1    1    1    2  502    0 -0.12790082909E+02  0.72146228199E+02  0.82128780953E+03  0.82454977445E+03  0.00000000000E+00 0. -1.
         22    1    3    3    0    0 -0.33480554165E+03 -0.10425129483E+03 -0.16922291741E+03  0.38935777759E+03  0.00000000000E+00 0. -1.
         22    1    3    3    0    0 -0.15701434755E+03  0.25530360737E+02 -0.12644754358E+03  0.20320995530E+03  0.00000000000E+00 0. -1.
</event>
<event>
 7    1  0.5018917E-005  0.1682755E+04  0.7818608E-02  0.1090737E+00
          2   -1    0    0  502    0  0.00000000000E+00  0.00000000000E+00  0.17561812051E+04  0.17561812051E+04  0.00000000000E+00 0. -1.
          1   -1    0    0  501    0 -0.00000000000E+00 -0.00000000000E+00 -0.26709081681E+04  0.26709081681E+04  0.00000000000E+00 0. -1.
         25    2    1    2    0    0 -0.11780501704E+04 -0.12381048436E+04 -0.19261570802E+03  0.17243641003E+04  0.12499972649E+03 0.  0.
          2    1    1    2  501    0  0.16767655358E+02  0.46809753792E+02 -0.10126647617E+04  0.10138847207E+04  0.00000000000E+00 0. -1.
          1    1    1    2  502    0  0.11612825150E+04  0.11912950898E+04  0.29055350673E+03  0.16888405523E+04  0.00000000000E+00 0. -1.
         22    1    3    3    0    0 -0.60265037080E+02 -0.28838147056E+02 -0.59885663548E+01  0.67077390728E+02  0.00000000000E+00 0. -1.
         22    1    3    3    0    0 -0.11177851333E+04 -0.12092666965E+04 -0.18662714167E+03  0.16572867095E+04  0.00000000000E+00 0. -1.
</event>
<event>
 7    1  0.5018917E-005  0.3163313E+03  0.7818608E-02  0.1251156E+00
          2   -1    0    0  502    0  0.00000000000E+00  0.00000000000E+00  0.11789613714E+04  0.11789613714E+04  0.00000000000E+00 0. -1.
          1   -1    0    0  501    0 -0.00000000000E+00 -0.00000000000E+00 -0.48782579758E+03  0.48782579758E+03  0.00000000000E+00 0. -1.
         25    2    1    2    0    0 -0.22966039044E+03 -0.24535517226E+03 -0.54148934266E+02  0.36263064160E+03  0.12500327859E+03 0.  0.
          2    1    1    2  501    0  0.22872264598E+03  0.20338060870E+03 -0.19501721321E+03  0.36291794421E+03  0.00000000000E+00 0. -1.
          1    1    1    2  502    0  0.93774445933E+00  0.41974563552E+02  0.94030172131E+03  0.94123858318E+03  0.00000000000E+00 0. -1.
         22    1    3    3    0    0 -0.10658209983E+03 -0.30465722104E+02 -0.13346324693E+02  0.11165137084E+03  0.00000000000E+00 0.  1.
         22    1    3    3    0    0 -0.12307829061E+03 -0.21488945015E+03 -0.40802609573E+02  0.25097927077E+03  0.00000000000E+00 0.  1.
</event>
<event>
 7    1  0.5018917E-005  0.4377080E+03  0.7818608E-02  0.1267860E+00
          2   -1    0    0  502    0  0.00000000000E+00  0.00000000000E+00  0.27727027083E+04  0.27727027083E+04  0.00000000000E+00 0. -1.
          1   -1    0    0  501    0 -0.00000000000E+00 -0.00000000000E+00 -0.42670964611E+03  0.42670964611E+03  0.00000000000E+00 0. -1.
         25    2    1    2    0    0  0.39050620048E+03  0.14993142375E+03  0.87377227582E+02  0.44523177754E+03  0.12498812499E+03 0.  0.
          2    1    1    2  501    0  0.14680376256E+02  0.21149811086E+02 -0.22775641996E+03  0.22920692570E+03  0.00000000000E+00 0. -1.
          1    1    1    2  502    0 -0.40518657674E+03 -0.17108123483E+03  0.24863722546E+04  0.25249736512E+04  0.00000000000E+00 0. -1.
         22    1    3    3    0    0  0.28475795974E+02  0.50964489333E+02  0.29737388679E+02  0.65517649643E+02  0.00000000000E+00 0. -1.
         22    1    3    3    0    0  0.36203040451E+03  0.98966934414E+02  0.57639838903E+02  0.37971412789E+03  0.00000000000E+00 0. -1.
</event>
<event>
 7    1  0.5018917E-005  0.5932159E+03  0.7818608E-02  0.1054694E+00
          2   -1    0    0  502    0  0.00000000000E+00  0.00000000000E+00  0.12590282228E+04  0.12590282228E+04  0.00000000000E+00 0. -1.
          1   -1    0    0  501    0 -0.00000000000E+00 -0.00000000000E+00 -0.50572134211E+03  0.50572134211E+03  0.00000000000E+00 0. -1.
         25    2    1    2    0    0 -0.52528838396E+03  0.51079997587E+03  0.24009417506E+03  0.78109671683E+03  0.12498946542E+03 0.  0.
          2    1    1    2  501    0  0.33248320149E+03 -0.38398590069E+03  0.11096306440E+03  0.51990677324E+03  0.00000000000E+00 0. -1.
          1    1    1    2  502    0  0.19280518247E+03 -0.12681407518E+03  0.40224964123E+03  0.46374607483E+03  0.00000000000E+00 0. -1.
         22    1    3    3    0    0 -0.36127611839E+03  0.34859788283E+03  0.22435826561E+03  0.54988866962E+03  0.00000000000E+00 0.  1.
         22    1    3    3    0    0 -0.16401226558E+03  0.16220209304E+03  0.15735909445E+02  0.23120804720E+03  0.00000000000E+00 0.  1.
</event>
<event>
 7    1  0.5018917E-005  0.3807609E+03  0.7818608E-02  0.1217392E+00
          2   -1    0    0  502    0  0.00000000000E+00  0.00000000000E+00  0.22990008561E+04  0.22990008561E+04  0.00000000000E+00 0. -1.
          1   -1    0    0  501    0 -0.00000000000E+00 -0.00000000000E+00 -0.54697973100E+03  0.54697973100E+03  0.00000000000E+00 0. -1.
         25    2    1    2    0    0 -0.41531138149E+03 -0.58432295872E+02  0.26092763296E+03  0.50951529466E+03  0.12499891621E+03 0.  0.
          2    1    1    2  501    0  0.37068677932E+03  0.37453848939E+02 -0.34018866971E+03  0.50451938532E+03  0.00000000000E+00 0. -1.
          1    1    1    2  502    0  0.44624602167E+02  0.20978446934E+02  0.18312821619E+04  0.18319459071E+04  0.00000000000E+00 0. -1.
         22    1    3    3    0    0 -0.20728458389E+03  0.23242986964E+02  0.85609231287E+02  0.22546856908E+03  0.00000000000E+00 0. -1.
         22    1    3    3    0    0 -0.20802679760E+03 -0.81675282837E+02  0.17531840168E+03  0.28404672558E+03  0.00000000000E+00 0. -1.
</event>
<event>
 7    1  0.5018917E-005  0.5505643E+03  0.7818608E-02  0.1139470E+00
          2   -1    0    0  502    0  0.00000000000E+00  0.00000000000E+00  0.51291583809E+03  0.51291583809E+03  0.00000000000E+00 0. -1.
          1   -1    0    0  501    0 -0.00000000000E+00 -0.00000000000E+00 -0.10522384067E+04  0.10522384067E+04  0.00000000000E+00 0. -1.
         25    2    1    2    0    0  0.56194758550E+03 -0.22437162011E+03 -0.35999971965E+03  0.71508916097E+03  0.12499998893E+03 0.  0.
          2    1    1    2  501    0 -0.82143136206E+02  0.92509601428E+00 -0.29675135396E+03  0.30791186516E+03  0.00000000000E+00 0. -1.
          1    1    1    2  502    0 -0.47980444929E+03  0.22344652409E+03  0.11742850503E+03  0.54215321864E+03  0.00000000000E+00 0. -1.
         22    1    3    3    0    0  0.12527990634E+03 -0.10834228126E+03 -0.85112940330E+02  0.18621846700E+03  0.00000000000E+00 0. -1.
         22    1    3    3    0    0  0.43666767916E+03 -0.11602933885E+03 -0.27488677932E+03  0.52887069397E+03  0.00000000000E+00 0. -1.
</event>
<event>
 7    1  0.5018917E-005  0.1082159E+04  0.7818608E-02  0.1146105E+00
          2   -1    0    0  502    0  0.00000000000E+00  0.00000000000E+00  0.20116253115E+04  0.20116253115E+04  0.00000000000E+00 0. -1.
          1   -1    0    0  501    0 -0.00000000000E+00 -0.00000000000E+00 -0.25372145874E+04  0.25372145874E+04  0.00000000000E+00 0. -1.
         25    2    1    2    0    0 -0.10992747555E+04 -0.12821507475E+03 -0.37651700137E+03  0.11756845253E+04  0.12499982933E+03 0.  0.
          2    1    1    2  501    0  0.27518847141E+02  0.27061367266E+02 -0.15811276718E+04  0.15815986593E+04  0.00000000000E+00 0. -1.
          1    1    1    2  502    0  0.10717559084E+04  0.10115370748E+03  0.14320553972E+04  0.17915567142E+04  0.00000000000E+00 0. -1.
         22    1    3    3    0    0 -0.96217964164E+03 -0.86222727291E+02 -0.29179443797E+03  0.10091422177E+04  0.00000000000E+00 0. -1.
         22    1    3    3    0    0 -0.13709511385E+03 -0.41992347460E+02 -0.84722563395E+02  0.16654230764E+03  0.00000000000E+00 0. -1.
</event>
<event>
 7    1  0.5018917E-005  0.3824077E+03  0.7818608E-02  0.1202337E+00
          2   -1    0    0  502    0  0.00000000000E+00  0.00000000000E+00  0.29245274255E+04  0.29245274255E+04  0.00000000000E+00 0. -1.
          1   -1    0    0  501    0 -0.00000000000E+00 -0.00000000000E+00 -0.32098835165E+04  0.32098835165E+04  0.00000000000E+00 0. -1.
         25    2    1    2    0    0  0.30198068641E+03  0.24679033784E+03  0.49403395735E+03  0.64171043618E+03  0.12499970827E+03 0.  0.
          2    1    1    2  501    0  0.25838242156E+02 -0.51548544344E+02 -0.31203331802E+04  0.31208659091E+04  0.00000000000E+00 0. -1.
          1    1    1    2  502    0 -0.32781892857E+03 -0.19524179350E+03  0.23409431318E+04  0.23718345967E+04  0.00000000000E+00 0. -1.
         22    1    3    3    0    0  0.20218078244E+03  0.23281626673E+03  0.38453972149E+03  0.49290088278E+03  0.00000000000E+00 0. -1.
         22    1    3    3    0    0  0.99799903971E+02  0.13974071114E+02  0.10949423587E+03  0.14880955340E+03  0.00000000000E+00 0. -1.
</event>
<event>
 7    1  0.5018917E-005  0.1018501E+03  0.7818608E-02  0.1381952E+00
          2   -1    0    0  502    0  0.00000000000E+00  0.00000000000E+00  0.67486895745E+03  0.67486895745E+03  0.00000000000E+00 0. -1.
          1   -1    0    0  501    0 -0.00000000000E+00 -0.00000000000E+00 -0.79119800362E+02  0.79119800362E+02  0.00000000000E+00 0. -1.
         25    2    1    2    0    0 -0.68984526119E+02  0.10326747434E+03  0.33424294702E+03  0.37784383261E+03  0.12499831244E+03 0.  0.
          2    1    1    2  501    0 -0.23848336216E+01 -0.40086746091E+02 -0.41948955806E+02  0.58071934157E+02  0.00000000000E+00 0. -1.
          1    1    1    2  502    0  0.71369359741E+02 -0.63180728254E+02  0.30345516587E+03  0.31807299104E+03  0.00000000000E+00 0. -1.
         22    1    3    3    0    0 -0.80853312359E+02  0.68184431728E+02  0.32185990864E+03  0.33879223078E+03  0.00000000000E+00 0.  1.
         22    1    3    3    0    0  0.11868786240E+02  0.35083042617E+02  0.12383038377E+02  0.39051601830E+02  0.00000000000E+00 0.  1.
</event>
<event>
 7    1  0.5018917E-005  0.2338971E+03  0.7818608E-02  0.1127382E+00
          2   -1    0    0  502    0  0.00000000000E+00  0.00000000000E+00  0.60706998983E+03  0.60706998983E+03  0.00000000000E+00 0. -1.
          1   -1    0    0  501    0 -0.00000000000E+00 -0.00000000000E+00 -0.12326376845E+04  0.12326376845E+04  0.00000000000E+00 0. -1.
         25    2    1    2    0    0 -0.22914064521E+03  0.14293843910E+03 -0.16211266847E+03  0.33888415201E+03  0.12500047420E+03 0.  0.
          2    1    1    2  501    0  0.28984734768E+01 -0.22408595316E+03 -0.94040221904E+03  0.96673639071E+03  0.00000000000E+00 0. -1.
          1    1    1    2  502    0  0.22624217173E+03  0.81147514059E+02  0.47694719287E+03  0.53408713156E+03  0.00000000000E+00 0. -1.
         22    1    3    3    0    0 -0.32500949480E+02  0.82392641410E+02 -0.26455819786E+02  0.92437922283E+02  0.00000000000E+00 0. -1.
         22    1    3    3    0    0 -0.19663969573E+03  0.60545797689E+02 -0.13565684868E+03  0.24644622973E+03  0.00000000000E+00 0. -1.
</event>
<event>
 7    1  0.5018917E-005  0.5067577E+03  0.7818608E-02  0.1137454E+00
          2   -1    0    0  502    0  0.00000000000E+00  0.00000000000E+00  0.61747320995E+03  0.61747320995E+03  0.00000000000E+00 0. -1.
          1   -1    0    0  501    0 -0.00000000000E+00 -0.00000000000E+00 -0.18453152362E+04  0.18453152362E+04  0.00000000000E+00 0. -1.
         25    2    1    2    0    0  0.50086404213E+03 -0.18102371189E+03 -0.39293994435E+03  0.67354596525E+03  0.12501197736E+03 0.  0.
          2    1    1    2  501    0 -0.49161433823E+03  0.90040635788E+02 -0.12594307534E+04  0.13549752013E+04  0.00000000000E+00 0. -1.
          1    1    1    2  502    0 -0.92497038929E+01  0.90983076103E+02  0.42452867150E+03  0.43426727954E+03  0.00000000000E+00 0. -1.
         22    1    3    3    0    0  0.35256101892E+03 -0.15454813178E+03 -0.21690836738E+03  0.44185250586E+03  0.00000000000E+00 0. -1.
         22    1    3    3    0    0  0.14830302321E+03 -0.26475580109E+02 -0.17603157697E+03  0.23169345939E+03  0.00000000000E+00 0. -1.
</event>
<event>
 7    1  0.5018917E-005  0.5412183E+03  0.7818608E-02  0.1191530E+00
          2   -1    0    0  502    0  0.00000000000E+00  0.00000000000E+00  0.59096928775E+03  0.59096928775E+03  0.00000000000E+00 0. -1.
          1   -1    0    0  501    0 -0.00000000000E+00 -0.00000000000E+00 -0.16863065646E+04  0.16863065646E+04  0.00000000000E+00 0. -1.
         25    2    1    2    0    0 -0.16411771670E+03  0.52274871303E+03 -0.13255380246E+04  0.14397490119E+04  0.12500128216E+03 0.  0.
          2    1    1    2  501    0  0.12367921246E+03 -0.50115402993E+03 -0.81402922319E+02  0.52256898595E+03  0.00000000000E+00 0. -1.
          1    1    1    2  502    0  0.40438504240E+02 -0.21594683097E+02  0.31160367006E+03  0.31495785457E+03  0.00000000000E+00 0. -1.
         22    1    3    3    0    0 -0.80291046814E+02  0.29643142834E+03 -0.58254402034E+03  0.65854064380E+03  0.00000000000E+00 0. -1.
         22    1    3    3    0    0 -0.83826669891E+02  0.22631728469E+03 -0.74299400428E+03  0.78120836806E+03  0.00000000000E+00 0. -1.
</event>
<event>
 7    1  0.5018917E-005  0.7207695E+03  0.7818608E-02  0.1152981E+00
          2   -1    0    0  502    0  0.00000000000E+00  0.00000000000E+00  0.22819101995E+04  0.22819101995E+04  0.00000000000E+00 0. -1.
          1   -1    0    0  501    0 -0.00000000000E+00 -0.00000000000E+00 -0.15531433425E+04  0.15531433425E+04  0.00000000000E+00 0. -1.
         25    2    1    2    0    0 -0.40673163812E+03 -0.59958615620E+03 -0.89403371270E+03  0.11575212778E+04  0.12500017974E+03 0.  0.
          2    1    1    2  501    0  0.35717675974E+03  0.61950927021E+03 -0.28440435568E+03  0.76957963272E+03  0.00000000000E+00 0. -1.
          1    1    1    2  502    0  0.49554878387E+02 -0.19923114010E+02  0.19072049254E+04  0.19079526314E+04  0.00000000000E+00 0. -1.
         22    1    3    3    0    0 -0.23447181094E+03 -0.32512663030E+03 -0.58922779406E+03  0.71265261464E+03  0.00000000000E+00 0.  1.
         22    1    3    3    0    0 -0.17225982719E+03 -0.27445952589E+03 -0.30480591864E+03  0.44486866315E+03  0.00000000000E+00 0.  1.
</event>
<event>
 7    1  0.5018917E-005  0.4739245E+03  0.7818608E-02  0.1200559E+00
          2   -1    0    0  502    0  0.00000000000E+00  0.00000000000E+00  0.31131497692E+04  0.31131497692E+04  0.00000000000E+00 0. -1.
          1   -1    0    0  501    0 -0.00000000000E+00 -0.00000000000E+00 -0.47687212480E+03  0.47687212480E+03  0.00000000000E+00 0. -1.
         25    2    1    2    0    0  0.46650717617E+03 -0.36106679663E+02  0.15795708299E+04  0.16521507631E+04  0.12500199829E+03 0.  0.
          2    1    1    2  501    0  0.77813585785E+01 -0.46789121848E+02 -0.40043942430E+03  0.40323876797E+03  0.00000000000E+00 0. -1.
          1    1    1    2  502    0 -0.47428853475E+03  0.82895801511E+02  0.14571462388E+04  0.15346323629E+04  0.00000000000E+00 0. -1.
         22    1    3    3    0    0  0.37189247694E+03 -0.57232044549E+01  0.10651720321E+04  0.11282412098E+04  0.00000000000E+00 0.  1.
         22    1    3    3    0    0  0.94614699232E+02 -0.30383475208E+02  0.51439879774E+03  0.52390955326E+03  0.00000000000E+00 0.  1.
</event>
<event>
 7    1  0.5018917E-005  0.9278715E+03  0.7818608E-02  0.1105826E+00
          2   -1    0    0  502    0  0.00000000000E+00  0.00000000000E+00  0.33518778607E+04  0.33518778607E+04  0.00000000000E+00 0. -1.
          1   -1    0    0  501    0 -0.00000000000E+00 -0.00000000000E+00 -0.63936431207E+03  0.63936431207E+03  0.00000000000E+00 0. -1.
         25    2    1    2    0    0 -0.87918649834E+03 -0.34732532985E+03  0.29651740183E+03  0.99857483076E+03  0.12500135766E+03 0.  0.
          2    1    1    2  501    0  0.82058946074E+03  0.39267389540E+03  0.43161239617E+03  0.10069007457E+04  0.00000000000E+00 0. -1.
          1    1    1    2  502    0  0.58597037593E+02 -0.45348565542E+02  0.19843837507E+04  0.19857665963E+04  0.00000000000E+00 0. -1.
         22    1    3    3    0    0 -0.13368616150E+03 -0.22105519685E+02  0.86214222215E+01  0.13577544954E+03  0.00000000000E+00 0. -1.
         22    1    3    3    0    0 -0.74550033684E+03 -0.32521981017E+03  0.28789597961E+03  0.86279938121E+03  0.00000000000E+00 0. -1.
</event>
<event>
 7    1  0.5018917E-005  0.4776419E+02  0.7818608E-02  0.1539861E+00
          2   -1    0    0  502    0  0.00000000000E+00  0.00000000000E+00  0.15892847714E+03  0.15892847714E+03  0.00000000000E+00 0. -1.
          1   -1    0    0  501    0 -0.00000000000E+00 -0.00000000000E+00 -0.77722018801E+03  0.77722018801E+03  0.00000000000E+00 0. -1.
         25    2    1    2    0    0 -0.39642375219E+02  0.60109117926E+02 -0.13795349070E+03  0.19960515245E+03  0.12500570914E+03 0.  0.
          2    1    1    2  501    0  0.67666890513E+01 -0.26282306501E+02 -0.60378334556E+03  0.60439298150E+03  0.00000000000E+00 0. -1.
          1    1    1    2  502    0  0.32875686168E+02 -0.33826811425E+02  0.12344512539E+03  0.13215053120E+03  0.00000000000E+00 0. -1.
         22    1    3    3    0    0  0.27777706317E+02  0.62552548052E+01 -0.10238992512E+03  0.10627523676E+03  0.00000000000E+00 0. -1.
         22    1    3    3    0    0 -0.67420081535E+02  0.53853863121E+02 -0.35563565574E+02  0.93329915695E+02  0.00000000000E+00 0. -1.
</event>
<event>
 7    1  0.5018917E-005  0.5636729E+03  0.7818608E-02  0.1089087E+00
          2   -1    0    0  502    0  0.00000000000E+00  0.00000000000E+00  0.87613660109E+03  0.87613660109E+03  0.00000000000E+00 0. -1.
          1   -1    0    0  501    0 -0.00000000000E+00 -0.00000000000E+00 -0.92516525981E+03  0.92516525981E+03  0.00000000000E+00 0. -1.
         25    2    1    2    0    0 -0.50085390038E+03 -0.43976277280E+03  0.41317197295E+02  0.67939532032E+03  0.12499985847E+03 0.  0.
          2    1    1    2  501    0  0.35647541223E+03  0.39316724226E+03 -0.47260573847E+03  0.71064152985E+03  0.00000000000E+00 0. -1.
          1    1    1    2  502    0  0.14437848815E+03  0.46595530541E+02  0.38225988246E+03  0.41126501072E+03  0.00000000000E+00 0. -1.
         22    1    3    3    0    0 -0.27910783078E+03 -0.16310980432E+03  0.29972863120E+02  0.32466037946E+03  0.00000000000E+00 0. -1.
         22    1    3    3    0    0 -0.22174606961E+03 -0.27665296848E+03  0.11344334176E+02  0.35473494087E+03  0.00000000000E+00 0. -1.
</event>
<event>
 7    1  0.5018917E-005  0.1497583E+03  0.7818608E-02  0.1219064E+00
          2   -1    0    0  502    0  0.00000000000E+00  0.00000000000E+00  0.14476309714E+04  0.14476309714E+04  0.00000000000E+00 0. -1.
          1   -1    0    0  501    0 -0.00000000000E+00 -0.00000000000E+00 -0.14325318255E+03  0.14325318255E+03  0.00000000000E+00 0. -1.
         25    2    1    2    0    0  0.26178307367E+02 -0.62991056515E+02  0.82934114688E+03  0.84147784742E+03  0.12500021130E+03 0.  0.
          2    1    1    2  501    0 -0.14832388087E+03  0.47041775465E+02 -0.84088769711E+02  0.17687233663E+03  0.00000000000E+00 0. -1.
          1    1    1    2  502    0  0.12214557350E+03  0.15949281050E+02  0.55912541168E+03  0.57253396989E+03  0.00000000000E+00 0. -1.
         22    1    3    3    0    0 -0.46967145522E+02 -0.44491946905E+01  0.22243659120E+03  0.22738457555E+03  0.00000000000E+00 0. -1.
         22    1    3    3    0    0  0.73145452889E+02 -0.58541861824E+02  0.60690455568E+03  0.61409327188E+03  0.00000000000E+00 0. -1.
</event>
<event>
 7    1  0.5018917E-005  0.8829857E+03  0.7818608E-02  0.1151169E+00
          2   -1    0    0  502    0  0.00000000000E+00  0.00000000000E+00  0.32924768488E+04  0.32924768488E+04  0.00000000000E+00 0. -1.
          1   -1    0    0  501    0 -0.00000000000E+00 -0.00000000000E+00 -0.11058304022E+04  0.11058304022E+04  0.00000000000E+00 0. -1.
         25    2    1    2    0    0 -0.42868903837E+02 -0.90723600131E+03  0.11387941124E+04  0.14619821409E+04  0.12499937968E+03 0.  0.
          2    1    1    2  501    0  0.21076213974E+02  0.39238421178E+02 -0.84901380274E+03  0.85018133227E+03  0.00000000000E+00 0. -1.
          1    1    1    2  502    0  0.21792689862E+02  0.86799758013E+03  0.18968661370E+04  0.20861437779E+04  0.00000000000E+00 0. -1.
         22    1    3    3    0    0 -0.74234339012E+02 -0.31725443356E+03  0.39133324182E+03  0.50921785009E+03  0.00000000000E+00 0.  1.
         22    1    3    3    0    0  0.31365435175E+02 -0.58998156775E+03  0.74746087054E+03  0.95276429078E+03  0.00000000000E+00 0.  1.
</event>
<event>
 7    1  0.5018917E-005  0.4383833E+02  0.7818608E-02  0.1481825E+00
          2   -1    0    0  502    0  0.00000000000E+00  0.00000000000E+00  0.36316311052E+03  0.36316311052E+03  0.00000000000E+00 0. -1.
          1   -1    0    0  501    0 -0.00000000000E+00 -0.00000000000E+00 -0.17534361704E+04  0.17534361704E+04  0.00000000000E+00 0. -1.
         25    2    1    2    0    0 -0.38827175685E+02  0.35546190288E+02 -0.75610347243E+03  0.76817236672E+03  0.12500097102E+03 0.  0.
          2    1    1    2  501    0  0.43050720488E+02  0.81098218239E+01 -0.98946513303E+03  0.99043444166E+03  0.00000000000E+00 0. -1.
          1    1    1    2  502    0 -0.42235448024E+01 -0.43656012112E+02  0.35529554555E+03  0.35799247257E+03  0.00000000000E+00 0. -1.
         22    1    3    3    0    0  0.72006061645E+01  0.74575376872E+02 -0.39063848740E+03  0.39775842342E+03  0.00000000000E+00 0.  1.
         22    1    3    3    0    0 -0.46027781850E+02 -0.39029186584E+02 -0.36546498503E+03  0.37041394330E+03  0.00000000000E+00 0.  1.
</event>
<event>
 7    1  0.5018917E-005  0.6896359E+03  0.7818608E-02  0.1149373E+00
          2   -1    0    0  502    0  0.00000000000E+00  0.00000000000E+00  0.21479747746E+04  0.21479747746E+04  0.00000000000E+00 0. -1.
          1   -1    0    0  501    0 -0.00000000000E+00 -0.00000000000E+00 -0.13456973899E+04  0.13456973899E+04  0.00000000000E+00 0. -1.
         25    2    1    2    0    0 -0.70645706627E+03 -0.10046915817E+03  0.12627138531E+04  0.14557632631E+04  0.12499906069E+03 0.  0.
          2    1    1    2  501    0  0.56153076508E+02  0.15503597313E+02 -0.11119480735E+04  0.11134729667E+04  0.00000000000E+00 0. -1.
          1    1    1    2  502    0  0.65030398976E+03  0.84965560857E+02  0.65151160503E+03  0.92443593457E+03  0.00000000000E+00 0. -1.
         22    1    3    3    0    0 -0.14103252866E+03  0.22053701293E+02  0.19913582008E+03  0.24501349905E+03  0.00000000000E+00 0. -1.
         22    1    3    3    0    0 -0.56542453761E+03 -0.12252285946E+03  0.10635780331E+04  0.12107497641E+04  0.00000000000E+00 0. -1.
</event>
<event>
 7    1  0.5018917E-005  0.1417508E+03  0.7818608E-02  0.1270538E+00
          2   -1    0    0  502    0  0.00000000000E+00  0.00000000000E+00  0.15425472214E+04  0.15425472214E+04  0.00000000000E+00 0. -1.
          1   -1    0    0  501    0 -0.00000000000E+00 -0.00000000000E+00 -0.13235248758E+03  0.13235248758E+03  0.00000000000E+00 0. -1.
         25    2    1    2    0    0 -0.21429376893E+03  0.25347033995E+01  0.21698254987E+03  0.32959711780E+03  0.12499835594E+03 0.  0.
          2    1    1    2  501    0  0.77444141425E+02  0.17335022836E+01 -0.51540109721E+02  0.93042909355E+02  0.00000000000E+00 0. -1.
          1    1    1    2  502    0  0.13684962751E+03 -0.42682056832E+01  0.12447522937E+04  0.12522596818E+04  0.00000000000E+00 0. -1.
         22    1    3    3    0    0 -0.36381905783E+02  0.47687433210E+02  0.82736518028E+02  0.10219131945E+03  0.00000000000E+00 0. -1.
         22    1    3    3    0    0 -0.17791186315E+03 -0.45152729811E+02  0.13424603184E+03  0.22740579835E+03  0.00000000000E+00 0. -1.
</event>
<event>
 7    1  0.5018917E-005  0.1183951E+04  0.7818608E-02  0.1122369E+00
          2   -1    0    0  502    0  0.00000000000E+00  0.00000000000E+00  0.21621635845E+04  0.21621635845E+04  0.00000000000E+00 0. -1.
          1   -1    0    0  501    0 -0.00000000000E+00 -0.00000000000E+00 -0.11201070584E+04  0.11201070584E+04  0.00000000000E+00 0. -1.
         25    2    1    2    0    0 -0.99416730430E+03 -0.59582828060E+03  0.42401072372E+03  0.12404791934E+04  0.12499426622E+03 0.  0.
          2    1    1    2  501    0  0.10412672914E+04  0.59479958895E+03 -0.20570747114E+03  0.12166921085E+04  0.00000000000E+00 0. -1.
          1    1    1    2  502    0 -0.47099987088E+02  0.10286916490E+01  0.82375327347E+03  0.82509934102E+03  0.00000000000E+00 0. -1.
         22    1    3    3    0    0 -0.46385331118E+02 -0.31581946108E+02  0.51735993478E+02  0.76325823180E+02  0.00000000000E+00 0. -1.
         22    1    3    3    0    0 -0.94778197318E+03 -0.56424633449E+03  0.37227473024E+03  0.11641533702E+04  0.00000000000E+00 0. -1.
</event>
<event>
 7    1  0.5018917E-005  0.4666807E+03  0.7818608E-02  0.1092212E+00
          2   -1    0    0  502    0  0.00000000000E+00  0.00000000000E+00  0.30170688348E+04  0.30170688348E+04  0.00000000000E+00 0. -1.
          1   -1    0    0  501    0 -0.00000000000E+00 -0.00000000000E+00 -0.13991552486E+04  0.13991552486E+04  0.00000000000E+00 0. -1.
         25    2    1    2    0    0  0.65331264665E+02  0.47077799005E+03  0.29077147816E+03  0.57102871092E+03  0.12500258446E+03 0.  0.
          2    1    1    2  501    0  0.16481016712E+03 -0.61288584435E+02 -0.12314000429E+04  0.12438909708E+04  0.00000000000E+00 0. -1.
          1    1    1    2  502    0 -0.23014143178E+03 -0.40948940562E+03  0.25585421509E+04  0.26013044016E+04  0.00000000000E+00 0. -1.
         22    1    3    3    0    0  0.10209703476E+03  0.33296237940E+03  0.21845035697E+03  0.41110620168E+03  0.00000000000E+00 0.  1.
         22    1    3    3    0    0 -0.36765770093E+02  0.13781561065E+03  0.72321121191E+02  0.15992250924E+03  0.00000000000E+00 0.  1.
</event>
<event>
 7    1  0.5018917E-005  0.2409859E+03  0.7818608E-02  0.1178240E+00
          2   -1    0    0  502    0  0.00000000000E+00  0.00000000000E+00  0.64150548215E+03  0.64150548215E+03  0.00000000000E+00 0. -1.
          1   -1    0    0  501    0 -0.00000000000E+00 -0.00000000000E+00 -0.87874370411E+03  0.87874370411E+03  0.00000000000E+00 0. -1.
         25    2    1    2    0    0 -0.32569800736E+03  0.12482673890E+03 -0.26185285534E+03  0.45370894360E+03  0.12499592356E+03 0.  0.
          2    1    1    2  501    0  0.11800879218E+03 -0.18139149071E+02 -0.48845768873E+03  0.50283796340E+03  0.00000000000E+00 0. -1.
          1    1    1    2  502    0  0.20768921517E+03 -0.10668758983E+03  0.51307232211E+03  0.56370227926E+03  0.00000000000E+00 0. -1.
         22    1    3    3    0    0 -0.21210137546E+03  0.14216146282E+03 -0.17247819257E+03  0.30813244213E+03  0.00000000000E+00 0. -1.
         22    1    3    3    0    0 -0.11359663190E+03 -0.17334723922E+02 -0.89374662773E+02  0.14557650146E+03  0.00000000000E+00 0. -1.
</event>
<event>
 7    1  0.5018917E-005  0.5426585E+03  0.7818608E-02  0.1167660E+00
          2   -1    0    0  502    0  0.00000000000E+00  0.00000000000E+00  0.10790887097E+04  0.10790887097E+04  0.00000000000E+00 0. -1.
          1   -1    0    0  501    0 -0.00000000000E+00 -0.00000000000E+00 -0.26700331085E+04  0.26700331085E+04  0.00000000000E+00 0. -1.
         25    2    1    2    0    0  0.49504337781E+03  0.21535970845E+03 -0.11794111473E+04  0.13031052354E+04  0.12499940149E+03 0.  0.
          2    1    1    2  501    0 -0.52196613783E+03 -0.16195861358E+03 -0.13755529697E+04  0.14801436464E+04  0.00000000000E+00 0. -1.
          1    1    1    2  502    0  0.26922760019E+02 -0.53401094871E+02  0.96401971825E+03  0.96587293632E+03  0.00000000000E+00 0. -1.
         22    1    3    3    0    0  0.28384942473E+03  0.55881673400E+02 -0.59844440684E+03  0.66470216294E+03  0.00000000000E+00 0. -1.
         22    1    3    3    0    0  0.21119395308E+03  0.15947803505E+03 -0.58096674043E+03  0.63840307250E+03  0.00000000000E+00 0. -1.
</event>
<event>
 7    1  0.5018917E-005  0.6560534E+03  0.7818608E-02  0.1071368E+00
          2   -1    0    0  502    0  0.00000000000E+00  0.00000000000E+00  0.15085611668E+04  0.15085611668E+04  0.00000000000E+00 0. -1.
          1   -1    0    0  501    0 -0.00000000000E+00 -0.00000000000E+00 -0.11990039065E+04  0.11990039065E+04  0.00000000000E+00 0. -1.
         25    2    1    2    0    0 -0.37584205550E+03  0.47090996215E+03 -0.35453776179E+03  0.71016546072E+03  0.12499805573E+03 0.  0.
          2    1    1    2  501    0 -0.15259184323E+03 -0.63994399180E+02 -0.57058719074E+03  0.59409535934E+03  0.00000000000E+00 0. -1.
          1    1    1    2  502    0  0.52843389873E+03 -0.40691556297E+03  0.12346822127E+04  0.14033042532E+04  0.00000000000E+00 0. -1.
         22    1    3    3    0    0 -0.26813066064E+03  0.23936689782E+03 -0.22180573171E+03  0.42236044508E+03  0.00000000000E+00 0. -1.
         22    1    3    3    0    0 -0.10771139486E+03  0.23154306433E+03 -0.13273203008E+03  0.28780501565E+03  0.00000000000E+00 0. -1.
</event>
<event>
 7    1  0.5018917E-005  0.8393910E+03  0.7818608E-02  0.1051183E+00
          2   -1    0    0  502    0  0.00000000000E+00  0.00000000000E+00  0.45598911382E+03  0.45598911382E+03  0.00000000000E+00 0. -1.
          1   -1    0    0  501    0 -0.00000000000E+00 -0.00000000000E+00 -0.45274113406E+04  0.45274113406E+04  0.00000000000E+00 0. -1.
         25    2    1    2    0    0 -0.26281105324E+03  0.87468851537E+03 -0.10638213583E+04  0.14076541273E+04  0.12499844471E+03 0.  0.
          2    1    1    2  501    0 -0.88428488585E+02 -0.14684978014E+03 -0.27086483545E+04  0.27140671259E+04  0.00000000000E+00 0. -1.
          1    1    1    2  502    0  0.35123954183E+03 -0.72783873522E+03 -0.29895251404E+03  0.86167920126E+03  0.00000000000E+00 0. -1.
         22    1    3    3    0    0 -0.25956116276E+03  0.69285040888E+03 -0.84599571877E+03  0.11238872018E+04  0.00000000000E+00 0. -1.
         22    1    3    3    0    0 -0.32498904823E+01  0.18183810648E+03 -0.21782563952E+03  0.28376692547E+03  0.00000000000E+00 0. -1.
</event>
<event>
 7    1  0.5018917E-005  0.6104775E+03  0.7818608E-02  0.1232905E+00
          2   -1    0    0  502    0  0.00000000000E+00  0.00000000000E+00  0.17494606771E+04  0.17494606771E+04  0.00000000000E+00 0. -1.
          1   -1    0    0  501    0 -0.00000000000E+00 -0.00000000000E+00 -0.16485974510E+04  0.16485974510E+04  0.00000000000E+00 0. -1.
         25    2    1    2    0    0 -0.41644928613E+03  0.41416775931E+03  0.51715621466E+03  0.79248637358E+03  0.12497664254E+03 0.  0.
          2    1    1    2  501    0  0.42967862745E+03 -0.43674678450E+03 -0.14486504954E+04  0.15728826194E+04  0.00000000000E+00 0. -1.
          1    1    1    2  502    0 -0.13229341316E+02  0.22579025195E+02  0.10323575068E+04  0.10326891351E+04  0.00000000000E+00 0. -1.
         22    1    3    3    0    0 -0.17324314203E+02  0.17842662754E+02 -0.45881476687E+01  0.25289198797E+02  0.00000000000E+00 0. -1.
         22    1    3    3    0    0 -0.39912497193E+03  0.39632509656E+03  0.52174436233E+03  0.76719717479E+03  0.00000000000E+00 0. -1.
</event>
<event>
 7    1  0.5018917E-005  0.5327399E+03  0.7818608E-02  0.1136979E+00
          2   -1    0    0  502    0  0.00000000000E+00  0.00000000000E+00  0.43632358923E+04  0.43632358923E+04  0.00000000000E+00 0. -1.
          1   -1    0    0  501    0 -0.00000000000E+00 -0.00000000000E+00 -0.38714500759E+03  0.38714500759E+03  0.00000000000E+00 0. -1.
         25    2    1    2    0    0 -0.33067081002E+03  0.45910235284E+03  0.14476906607E+03  0.59724419375E+03  0.12499755798E+03 0.  0.
          2    1    1    2  501    0  0.24670929177E+03 -0.43449106807E+03  0.22878344898E+03  0.54953601284E+03  0.00000000000E+00 0. -1.
          1    1    1    2  502    0  0.83961518249E+02 -0.24611284774E+02  0.36025383697E+04  0.36036006933E+04  0.00000000000E+00 0. -1.
         22    1    3    3    0    0 -0.33171569281E+03  0.46360255173E+03  0.13409653423E+03  0.58561464063E+03  0.00000000000E+00 0.  1.
         22    1    3    3    0    0  0.10448827910E+01 -0.45001988864E+01  0.10672531840E+02  0.11629553127E+02  0.00000000000E+00 0.  1.
</event>
<event>
 7    1  0.5018917E-005  0.1593922E+04  0.7818608E-02  0.1103585E+00
          2   -1    0    0  502    0  0.00000000000E+00  0.00000000000E+00  0.17383389117E+04  0.17383389117E+04  0.00000000000E+00 0. -1.
          1   -1    0    0  501    0 -0.00000000000E+00 -0.00000000000E+00 -0.20661121146E+04  0.20661121146E+04  0.00000000000E+00 0. -1.
         25    2    1    2    0    0 -0.11573557432E+04  0.11070667045E+04 -0.10621865019E+04  0.19258594877E+04  0.12500238843E+03 0.  0.
          2    1    1    2  501    0  0.37458029644E+02  0.23828006633E+02 -0.79444414070E+02  0.91007103085E+02  0.00000000000E+00 0. -1.
          1    1    1    2  502    0  0.11198977136E+04 -0.11308947112E+04  0.81385771309E+03  0.17875844354E+04  0.00000000000E+00 0. -1.
         22    1    3    3    0    0 -0.86734572245E+03  0.87633490070E+03 -0.86423883289E+03  0.15057092086E+04  0.00000000000E+00 0.  1.
         22    1    3    3    0    0 -0.29001002078E+03  0.23073180385E+03 -0.19794766896E+03  0.42015027919E+03  0.00000000000E+00 0.  1.
</event>
<event>
 7    1  0.5018917E-005  0.6288021E+03  0.7818608E-02  0.1179149E+00
          2   -1    0    0  502    0  0.00000000000E+00  0.00000000000E+00  0.21107962818E+04  0.21107962818E+04  0.00000000000E+00 0. -1.
          1   -1    0    0  501    0 -0.00000000000E+00 -0.00000000000E+00 -0.10793446257E+04  0.10793446257E+04  0.00000000000E+00 0. -1.
         25    2    1    2    0    0  0.60010960489E+03  0.20846337763E+03  0.93896772170E+03  0.11405587623E+04  0.12500156102E+03 0.  0.
          2    1    1    2  501    0 -0.26613365670E+02  0.36647386800E+02 -0.88712753742E+03  0.88828293344E+03  0.00000000000E+00 0. -1.
          1    1    1    2  502    0 -0.57349623922E+03 -0.24511076443E+03  0.97961147186E+03  0.11612992117E+04  0.00000000000E+00 0. -1.
         22    1    3    3    0    0  0.28832450409E+02  0.31905222148E+02  0.11275868968E+03  0.12068046857E+03  0.00000000000E+00 0.  1.
         22    1    3    3    0    0  0.57127715449E+03  0.17655815548E+03  0.82620903202E+03  0.10198782938E+04  0.00000000000E+00 0.  1.
</event>
<event>
 7    1  0.5018917E-005  0.1226006E+03  0.7818608E-02  0.1332056E+00
          2   -1    0    0  502    0  0.00000000000E+00  0.00000000000E+00  0.45970278292E+03  0.45970278292E+03  0.00000000000E+00 0. -1.
          1   -1    0    0  501    0 -0.00000000000E+00 -0.00000000000E+00 -0.70196417303E+03  0.70196417303E+03  0.00000000000E+00 0. -1.
         25    2    1    2    0    0 -0.92755722786E+02 -0.78398166549E+02  0.42366512755E+03  0.45811218137E+03  0.12499893515E+03 0.  0.
          2    1    1    2  501    0  0.11175418955E+02 -0.49597953903E+02 -0.34285883010E+03  0.34660788277E+03  0.00000000000E+00 0. -1.
          1    1    1    2  502    0  0.81580303831E+02  0.12799612045E+03 -0.32306768756E+03  0.35694689181E+03  0.00000000000E+00 0. -1.
         22    1    3    3    0    0 -0.91258753153E+02 -0.63714858565E+01  0.31274309982E+03  0.32584812773E+03  0.00000000000E+00 0. -1.
         22    1    3    3    0    0 -0.14969696332E+01 -0.72026680693E+02  0.11092202773E+03  0.13226405364E+03  0.00000000000E+00 0. -1.
</event>
<event>
 7    1  0.5018917E-005  0.3933399E+03  0.7818608E-02  0.1295226E+00
          2   -1    0    0  502    0  0.00000000000E+00  0.00000000000E+00  0.28418463305E+03  0.28418463305E+03  0.00000000000E+00 0. -1.
          1   -1    0    0  501    0 -0.00000000000E+00 -0.00000000000E+00 -0.28580496489E+04  0.28580496489E+04  0.00000000000E+00 0. -1.
         25    2    1    2    0    0 -0.33105171517E+03 -0.22011149854E+03 -0.16861192883E+04  0.17368555938E+04  0.12499915789E+03 0.  0.
          2    1    1    2  501    0 -0.76411494526E+01  0.20731617720E+02 -0.99716584846E+03  0.99741060575E+03  0.00000000000E+00 0. -1.
          1    1    1    2  502    0  0.33869286462E+03  0.19937988082E+03  0.10942012087E+03  0.40796808242E+03  0.00000000000E+00 0. -1.
         22    1    3    3    0    0 -0.33015689984E+03 -0.17891293956E+03 -0.15156825393E+04  0.15615079182E+04  0.00000000000E+00 0.  1.
         22    1    3    3    0    0 -0.89481532855E+00 -0.41198558973E+02 -0.17043674898E+03  0.17534767566E+03  0.00000000000E+00 0.  1.
</event>
<event>
 7    1  0.5018917E-005  0.1832936E+03  0.7818608E-02  0.1220122E+00
          2   -1    0    0  502    0  0.00000000000E+00  0.00000000000E+00  0.21002764014E+04  0.21002764014E+04  0.00000000000E+00 0. -1.
          1   -1    0    0  501    0 -0.00000000000E+00 -0.00000000000E+00 -0.17887244351E+04  0.17887244351E+04  0.00000000000E+00 0. -1.
         25    2    1    2    0    0  0.25596080305E+03 -0.30682879685E+02  0.24809549376E+03  0.37899085159E+03  0.12500127903E+03 0.  0.
          2    1    1    2  501    0 -0.79520868942E+02  0.59860112153E+02 -0.17173572182E+04  0.17202391161E+04  0.00000000000E+00 0. -1.
          1    1    1    2  502    0 -0.17643993411E+03 -0.29177232468E+02  0.17808136908E+04  0.17897708687E+04  0.00000000000E+00 0. -1.
         22    1    3    3    0    0 -0.53752265429E+01 -0.51251532074E+01  0.48747911117E+02  0.49310435955E+02  0.00000000000E+00 0. -1.
         22    1    3    3    0    0  0.26133602960E+03 -0.25557726477E+02  0.19934758264E+03  0.32968041564E+03  0.00000000000E+00 0. -1.
</event>
<event>
 7    1  0.5018917E-005  0.6533581E+03  0.7818608E-02  0.1161818E+00
          2   -1    0    0  502    0  0.00000000000E+00  0.00000000000E+00  0.23442396325E+04  0.23442396325E+04  0.00000000000E+00 0. -1.
          1   -1    0    0  501    0 -0.00000000000E+00 -0.00000000000E+00 -0.12932897428E+04  0.12932897428E+04  0.00000000000E+00 0. -1.
         25    2    1    2    0    0  0.77736210917E+02  0.65969961571E+03  0.18300699795E+04  0.19509060419E+04  0.12502700972E+03 0.  0.
          2    1    1    2  501    0 -0.26678130634E+02 -0.45954196714E+02 -0.10228893469E+04  0.10242685814E+04  0.00000000000E+00 0. -1.
          1    1    1    2  502    0 -0.51058080283E+02 -0.61374541899E+03  0.24376925704E+03  0.66235475206E+03  0.00000000000E+00 0. -1.
         22    1    3    3    0    0  0.83068758789E+02  0.25451548972E+03  0.64014554867E+03  0.69387670135E+03  0.00000000000E+00 0.  1.
         22    1    3    3    0    0 -0.53325478719E+01  0.40518412599E+03  0.11899244308E+04  0.12570293406E+04  0.00000000000E+00 0.  1.
</event>
<event>
 7    1  0.5018917E-005  0.2828453E+03  0.7818608E-02  0.1249320E+00
          2   -1    0    0  502    0  0.00000000000E+00  0.00000000000E+00  0.34026966776E+04  0.34026966776E+04  0.00000000000E+00 0. -1.
          1   -1    0    0  501    0 -0.00000000000E+00 -0.00000000000E+00 -0.57671971603E+03  0.57671971603E+03  0.00000000000E+00 0. -1.
         25    2    1    2    0    0  0.19621649769E+02  0.25939264421E+03  0.36586917542E+03  0.46599787469E+03  0.12499685068E+03 0.  0.
          2    1    1    2  501    0 -0.40022028682E+02  0.26179840397E+02 -0.51869188461E+03  0.52089194463E+03  0.00000000000E+00 0. -1.
          1    1    1    2  502    0  0.20400378913E+02 -0.28557248461E+03  0.29787996707E+04  0.29925265743E+04  0.00000000000E+00 0. -1.
         22    1    3    3    0    0  0.75412189211E+01  0.23493036064E+03  0.37005642126E+03  0.43839582486E+03  0.00000000000E+00 0. -1.
         22    1    3    3    0    0  0.12080430848E+02  0.24462283574E+02 -0.41872458448E+01  0.27602049831E+02  0.00000000000E+00 0. -1.
</event>
<event>
 7    1  0.5018917E-005  0.7228632E+03  0.7818608E-02  0.1106811E+00
          2   -1    0    0  502    0  0.00000000000E+00  0.00000000000E+00  0.14711420470E+04  0.14711420470E+04  0.00000000000E+00 0. -1.
          1   -1    0    0  501    0 -0.00000000000E+00 -0.00000000000E+00 -0.27030512378E+04  0.27030512378E+04  0.00000000000E+00 0. -1.
         25    2    1    2    0    0  0.76030253599E+03  0.16137704450E+03  0.33710922042E+03  0.85637001930E+03  0.12499794695E+03 0.  0.
          2    1    1    2  501    0 -0.90933273166E+02  0.23481527347E+02 -0.23044398204E+04  0.23063527762E+04  0.00000000000E+00 0. -1.
          1    1    1    2  502    0 -0.66936926282E+03 -0.18485857184E+03  0.73542140925E+03  0.10114704893E+04  0.00000000000E+00 0. -1.
         22    1    3    3    0    0  0.65707803321E+03  0.12337913766E+03  0.33149064772E+03  0.74623052930E+03  0.00000000000E+00 0.  1.
         22    1    3    3    0    0  0.10322450278E+03  0.37997906840E+02  0.56185727026E+01  0.11013949000E+03  0.00000000000E+00 0.  1.
</event>
<event>
 7    1  0.5018917E-005  0.9617678E+03  0.7818608E-02  0.1151614E+00
          2   -1    0    0  502    0  0.00000000000E+00  0.00000000000E+00  0.13688542573E+04  0.13688542573E+04  0.00000000000E+00 0. -1.
          1   -1    0    0  501    0 -0.00000000000E+00 -0.00000000000E+00 -0.29774094912E+04  0.29774094912E+04  0.00000000000E+00 0. -1.
         25    2    1    2    0    0  0.59694993528E+00  0.99445393023E+03 -0.16081684402E+04  0.18949308795E+04  0.12497331755E+03 0.  0.
          2    1    1    2  501    0  0.18254640188E+02 -0.36351283395E+02 -0.10380614749E+04  0.10388581584E+04  0.00000000000E+00 0. -1.
          1    1    1    2  502    0 -0.18851590123E+02 -0.95810264684E+03  0.10376746811E+04  0.14124747106E+04  0.00000000000E+00 0. -1.
         22    1    3    3    0    0  0.18038086843E+02  0.95867393216E+03 -0.15708578990E+04  0.18403737717E+04  0.00000000000E+00 0.  1.
         22    1    3    3    0    0 -0.17441136908E+02  0.35779998078E+02 -0.37310541222E+02  0.54557107744E+02  0.00000000000E+00 0.  1.
</event>
<event>
 7    1  0.5018917E-005  0.4956892E+03  0.7818608E-02  0.1223444E+00
          2   -1    0    0  502    0  0.00000000000E+00  0.00000000000E+00  0.13600007387E+04  0.13600007387E+04  0.00000000000E+00 0. -1.
          1   -1    0    0  501    0 -0.00000000000E+00 -0.00000000000E+00 -0.27707525528E+03  0.27707525528E+03  0.00000000000E+00 0. -1.
         25    2    1    2    0    0 -0.29979380605E+02  0.47879493694E+03  0.62802145764E+03  0.80011169237E+03  0.12499765640E+03 0.  0.
          2    1    1    2  501    0 -0.79731278591E+01  0.34641281032E+02 -0.84274140789E+02  0.91464309570E+02  0.00000000000E+00 0. -1.
          1    1    1    2  502    0  0.37952508465E+02 -0.51343621798E+03  0.53917816660E+03  0.74549999207E+03  0.00000000000E+00 0. -1.
         22    1    3    3    0    0  0.39429244510E+02  0.25561790886E+03  0.28305813246E+03  0.38342807279E+03  0.00000000000E+00 0.  1.
         22    1    3    3    0    0 -0.69408625116E+02  0.22317702808E+03  0.34496332518E+03  0.41668361958E+03  0.00000000000E+00 0.  1.
</event>
<event>
 7    1  0.5018917E-005  0.1203010E+03  0.7818608E-02  0.1448090E+00
          2   -1    0    0  502    0  0.00000000000E+00  0.00000000000E+00  0.29677655942E+03  0.29677655942E+03  0.00000000000E+00 0. -1.
          1   -1    0    0  501    0 -0.00000000000E+00 -0.00000000000E+00 -0.15786568956E+03  0.15786568956E+03  0.00000000000E+00 0. -1.
         25    2    1    2    0    0 -0.86312843961E+02 -0.10336241888E+03  0.55714389384E+02  0.19199659588E+03  0.12499961190E+03 0.  0.
          2    1    1    2  501    0  0.58452986070E+01  0.19505664118E+02 -0.68548059128E+02  0.71508564932E+02  0.00000000000E+00 0. -1.
          1    1    1    2  502    0  0.80467545354E+02  0.83856754760E+02  0.15174453961E+03  0.19113708817E+03  0.00000000000E+00 0. -1.
         22    1    3    3    0    0 -0.74906356593E+02 -0.94744802028E+01 -0.10938680416E+02  0.76291433087E+02  0.00000000000E+00 0.  1.
         22    1    3    3    0    0 -0.11406487367E+02 -0.93887938675E+02  0.66653069800E+02  0.11570516279E+03  0.00000000000E+00 0.  1.
</event>
<event>
 7    1  0.5018917E-005  0.4807249E+03  0.7818608E-02  0.1216597E+00
          2   -1    0    0  502    0  0.00000000000E+00  0.00000000000E+00  0.45436889198E+03  0.45436889198E+03  0.00000000000E+00 0. -1.
          1   -1    0    0  501    0 -0.00000000000E+00 -0.00000000000E+00 -0.16386586730E+04  0.16386586730E+04  0.00000000000E+00 0. -1.
         25    2    1    2    0    0 -0.34036571125E+03 -0.36664661506E+03 -0.10540822873E+02  0.51576607568E+03  0.12499991260E+03 0.  0.
          2    1    1    2  501    0  0.23665352227E+02  0.31482528216E+02 -0.11112210445E+04  0.11119187957E+04  0.00000000000E+00 0. -1.
          1    1    1    2  502    0  0.31670035902E+03  0.33516408684E+03 -0.62527913655E+02  0.46534269361E+03  0.00000000000E+00 0. -1.
         22    1    3    3    0    0 -0.24385918724E+03 -0.20234496610E+03 -0.51042447089E+02  0.32096124364E+03  0.00000000000E+00 0.  1.
         22    1    3    3    0    0 -0.96506524005E+02 -0.16430164895E+03  0.40501624216E+02  0.19480483204E+03  0.00000000000E+00 0.  1.
</event>
<event>
 7    1  0.5018917E-005  0.9791816E+03  0.7818608E-02  0.1046266E+00
          2   -1    0    0  502    0  0.00000000000E+00  0.00000000000E+00  0.23979571636E+04  0.23979571636E+04  0.00000000000E+00 0. -1.
          1   -1    0    0  501    0 -0.00000000000E+00 -0.00000000000E+00 -0.10504790475E+04  0.10504790475E+04  0.00000000000E+00 0. -1.
         25    2    1    2    0    0 -0.32801536325E+03  0.10000582495E+04 -0.20411508410E+03  0.10793509502E+04  0.12499970091E+03 0.  0.
          2    1    1    2  501    0  0.29719326552E+03 -0.84544711929E+03  0.91852645531E+02  0.90085602461E+03  0.00000000000E+00 0. -1.
          1    1    1    2  502    0  0.30822097735E+02 -0.15461113017E+03  0.14597405547E+04  0.14682292363E+04  0.00000000000E+00 0. -1.
         22    1    3    3    0    0 -0.81575717853E+02  0.32349901009E+03 -0.10771387548E+02  0.33379968553E+03  0.00000000000E+00 0. -1.
         22    1    3    3    0    0 -0.24643964540E+03  0.67655923938E+03 -0.19334369655E+03  0.74555126464E+03  0.00000000000E+00 0. -1.
</event>
<event>
 7    1  0.5018917E-005  0.2218012E+03  0.7818608E-02  0.1182778E+00
          2   -1    0    0  502    0  0.00000000000E+00  0.00000000000E+00  0.12447578841E+04  0.12447578841E+04  0.00000000000E+00 0. -1.
          1   -1    0    0  501    0 -0.00000000000E+00 -0.00000000000E+00 -0.15062280859E+03  0.15062280859E+03  0.00000000000E+00 0. -1.
         25    2    1    2    0    0  0.15053942784E+03 -0.23632129023E+03  0.92584873894E+03  0.97536213805E+03  0.12500216556E+03 0.  0.
          2    1    1    2  501    0 -0.88069837769E+02  0.86261268268E+02 -0.62122805909E+02  0.13804544810E+03  0.00000000000E+00 0. -1.
          1    1    1    2  502    0 -0.62469590068E+02  0.15006002196E+03  0.23040914246E+03  0.28197310653E+03  0.00000000000E+00 0. -1.
         22    1    3    3    0    0  0.17309033750E+03 -0.21048286858E+03  0.82437328149E+03  0.86824801188E+03  0.00000000000E+00 0. -1.
         22    1    3    3    0    0 -0.22550909666E+02 -0.25838421653E+02  0.10147545745E+03  0.10711412617E+03  0.00000000000E+00 0. -1.
</event>
<event>
 7    1  0.5018917E-005  0.2751637E+03  0.7818608E-02  0.1229389E+00
          2   -1    0    0  502    0  0.00000000000E+00  0.00000000000E+00  0.35390753527E+04  0.35390753527E+04  0.00000000000E+00 0. -1.
          1   -1    0    0  501    0 -0.00000000000E+00 -0.00000000000E+00 -0.59700849804E+02  0.59700849804E+02  0.00000000000E+00 0. -1.
         25    2    1    2    0    0  0.16408257418E+03  0.17858883722E+03  0.76396845511E+03  0.81122784633E+03  0.12500301730E+03 0.  0.
          2    1    1    2  501    0 -0.21293782347E+03 -0.21376482027E+03  0.60290936003E+03  0.67419404585E+03  0.00000000000E+00 0. -1.
          1    1    1    2  502    0  0.48855249297E+02  0.35175983052E+02  0.21124966878E+04  0.21133543103E+04  0.00000000000E+00 0. -1.
         22    1    3    3    0    0  0.34183511135E+02  0.28146406975E+02  0.37395148970E+02  0.57958000532E+02  0.00000000000E+00 0. -1.
         22    1    3    3    0    0  0.12989906304E+03  0.15044243024E+03  0.72657330613E+03  0.75326984580E+03  0.00000000000E+00 0. -1.
</event>
<event>
 7    1  0.5018917E-005  0.5174305E+03  0.7818608E-02  0.1232651E+00
          2   -1    0    0  502    0  0.00000000000E+00  0.00000000000E+00  0.11185628648E+04  0.11185628648E+04  0.00000000000E+00 0. -1.
          1   -1    0    0  501    0 -0.00000000000E+00 -0.00000000000E+00 -0.67077475572E+03  0.67077475572E+03  0.00000000000E+00 0. -1.
         25    2    1    2    0    0 -0.38784772043E+03  0.35001659832E+03 -0.18684805083E+03  0.56874837880E+03  0.12500020375E+03 0.  0.
          2    1    1    2  501    0  0.36017822682E+03 -0.36389658436E+03 -0.68681239358E+02  0.51659093277E+03  0.00000000000E+00 0. -1.
          1    1    1    2  502    0  0.27669493616E+02  0.13879986036E+02  0.70331739924E+03  0.70399830892E+03  0.00000000000E+00 0. -1.
         22    1    3    3    0    0 -0.16832781180E+03  0.15987971313E+03 -0.18083729437E+02  0.23285788835E+03  0.00000000000E+00 0.  1.
         22    1    3    3    0    0 -0.21951990863E+03  0.19013688519E+03 -0.16876432139E+03  0.33589049044E+03  0.00000000000E+00 0.  1.
</event>
<event>
 7    1  0.5018917E-005  0.4000130E+03  0.7818608E-02  0.1230161E+00
          2   -1    0    0  502    0  0.00000000000E+00  0.00000000000E+00  0.72776934498E+03  0.72776934498E+03  0.00000000000E+00 0. -1.
          1   -1    0    0  501    0 -0.00000000000E+00 -0.00000000000E+00 -0.38529127383E+03  0.38529127383E+03  0.00000000000E+00 0. -1.
         25    2    1    2    0    0 -0.37183415491E+02 -0.41022462860E+03 -0.13233626160E+03  0.45033876289E+03  0.12500105172E+03 0.  0.
          2    1    1    2  501    0  0.42409192333E+02  0.36947564652E+03  0.28509201379E+03  0.46860244268E+03  0.00000000000E+00 0. -1.
          1    1    1    2  502    0 -0.52257768419E+01  0.40748982085E+02  0.18972231896E+03  0.19411941324E+03  0.00000000000E+00 0. -1.
         22    1    3    3    0    0 -0.60904962363E+02 -0.29489844829E+03 -0.14055759446E+03  0.33231152042E+03  0.00000000000E+00 0. -1.
         22    1    3    3    0    0  0.23721546871E+02 -0.11532618031E+03  0.82213328638E+01  0.11802724247E+03  0.00000000000E+00 0. -1.
</event>
<event>
 7    1  0.5018917E-005  0.5358134E+03  0.7818608E-02  0.1158449E+00
          2   -1    0    0  502    0  0.00000000000E+00  0.00000000000E+00  0.31957365097E+04  0.31957365097E+04  0.00000000000E+00 0. -1.
          1   -1    0    0  501    0 -0.00000000000E+00 -0.00000000000E+00 -0.74654839913E+03  0.74654839913E+03  0.00000000000E+00 0. -1.
         25    2    1    2    0    0 -0.59434596750E+02  0.52123810358E+03 -0.47080889937E+03  0.71589917533E+03  0.12501590935E+03 0.  0.
          2    1    1    2  501    0  0.42260587601E+02 -0.58639639408E+03  0.41299577207E+03  0.71847908529E+03  0.00000000000E+00 0. -1.
          1    1    1    2  502    0  0.17174009149E+02  0.65158290494E+02  0.25070012379E+04  0.25079066482E+04  0.00000000000E+00 0. -1.
         22    1    3    3    0    0  0.22768496441E+02  0.19737730421E+03 -0.12340903737E+03  0.23389312763E+03  0.00000000000E+00 0. -1.
         22    1    3    3    0    0 -0.82203093191E+02  0.32386079937E+03 -0.34739986200E+03  0.48200604770E+03  0.00000000000E+00 0. -1.
</event>
<event>
 7    1  0.5018917E-005  0.4775793E+03  0.7818608E-02  0.1199180E+00
          2   -1    0    0  502    0  0.00000000000E+00  0.00000000000E+00  0.58941931854E+03  0.58941931854E+03  0.00000000000E+00 0. -1.
          1   -1    0    0  501    0 -0.00000000000E+00 -0.00000000000E+00 -0.15321660126E+04  0.15321660126E+04  0.00000000000E+00 0. -1.
         25    2    1    2    0    0 -0.45790745837E+03  0.79190194540E+01 -0.59797331715E+03  0.76350388135E+03  0.12499655002E+03 0.  0.
          2    1    1    2  501    0  0.49457234941E+03  0.22716139474E+02 -0.77803034645E+03  0.92219794610E+03  0.00000000000E+00 0. -1.
          1    1    1    2  502    0 -0.36664891043E+02 -0.30635158928E+02  0.43325696951E+03  0.43588350373E+03  0.00000000000E+00 0. -1.
         22    1    3    3    0    0 -0.31489087409E+03 -0.14032234416E+02 -0.31465794583E+03  0.44537937656E+03  0.00000000000E+00 0.  1.
         22    1    3    3    0    0 -0.14301658428E+03  0.21951253870E+02 -0.28331537132E+03  0.31812450479E+03  0.00000000000E+00 0.  1.
</event>
<event>
 7    1  0.5018917E-005  0.2937845E+03  0.7818608E-02  0.1239299E+00
          2   -1    0    0  502    0  0.00000000000E+00  0.00000000000E+00  0.51151445180E+03  0.51151445180E+03  0.00000000000E+00 0. -1.
          1   -1    0    0  501    0 -0.00000000000E+00 -0.00000000000E+00 -0.14684334720E+04  0.14684334720E+04  0.00000000000E+00 0. -1.
         25    2    1    2    0    0 -0.27573940942E+02 -0.32693076381E+03 -0.36494390662E+03  0.50641610724E+03  0.12501668748E+03 0.  0.
          2    1    1    2  501    0  0.48291740969E+02  0.28039515722E+03 -0.10115873735E+04  0.10508389746E+04  0.00000000000E+00 0. -1.
          1    1    1    2  502    0 -0.20717800027E+02  0.46535606591E+02  0.41961225992E+03  0.42269284190E+03  0.00000000000E+00 0. -1.
         22    1    3    3    0    0 -0.39422844492E+02 -0.23406124344E+03 -0.17580659456E+03  0.29537566765E+03  0.00000000000E+00 0. -1.
         22    1    3    3    0    0  0.11848903550E+02 -0.92869520374E+02 -0.18913731207E+03  0.21104043960E+03  0.00000000000E+00 0. -1.
</event>
<event>
 7    1  0.5018917E-005  0.4664494E+03  0.7818608E-02  0.1217088E+00
          2   -1    0    0  502    0  0.00000000000E+00  0.00000000000E+00  0.14220919810E+04  0.14220919810E+04  0.00000000000E+00 0. -1.
          1   -1    0    0  501    0 -0.00000000000E+00 -0.00000000000E+00 -0.81003568638E+03  0.81003568638E+03  0.00000000000E+00 0. -1.
         25    2    1    2    0    0 -0.40340450258E+03 -0.26059121024E+03  0.18175357894E+03  0.52849057329E+03  0.12499980417E+03 0.  0.
          2    1    1    2  501    0  0.36855170641E+03  0.28098443758E+03 -0.55185866201E+03  0.72064595835E+03  0.00000000000E+00 0. -1.
          1    1    1    2  502    0  0.34852796170E+02 -0.20393227342E+02  0.98216137767E+03  0.98299113573E+03  0.00000000000E+00 0. -1.
         22    1    3    3    0    0 -0.65737349428E+02 -0.98147312444E+02  0.70707762053E+02  0.13767309710E+03  0.00000000000E+00 0.  1.
         22    1    3    3    0    0 -0.33766715315E+03 -0.16244389779E+03  0.11104581689E+03  0.39081747619E+03  0.00000000000E+00 0.  1.
</event>
<event>
 7    1  0.5018917E-005  0.4441888E+03  0.7818608E-02  0.1210530E+00
          2   -1    0    0  502    0  0.00000000000E+00  0.00000000000E+00  0.33481225160E+04  0.33481225160E+04  0.00000000000E+00 0. -1.
          1   -1    0    0  501    0 -0.00000000000E+00 -0.00000000000E+00 -0.17578232985E+03  0.17578232985E+03  0.00000000000E+00 0. -1.
         25    2    1    2    0    0  0.19476118581E+03  0.41977739905E+03  0.21018058791E+04  0.21557731712E+04  0.12500011258E+03 0.  0.
          2    1    1    2  501    0 -0.65433589247E+01 -0.44986278218E+02 -0.10801045394E+03  0.11718719612E+03  0.00000000000E+00 0. -1.
          1    1    1    2  502    0 -0.18821782688E+03 -0.37479112083E+03  0.11785447610E+04  0.12509444785E+04  0.00000000000E+00 0. -1.
         22    1    3    3    0    0  0.16710897444E+03  0.24695397072E+03  0.14836663037E+04  0.15133331999E+04  0.00000000000E+00 0. -1.
         22    1    3    3    0    0  0.27652211362E+02  0.17282342832E+03  0.61813957536E+03  0.64243997136E+03  0.00000000000E+00 0. -1.
</event>
<event>
 7    1  0.5018917E-005  0.1137543E+03  0.7818608E-02  0.1342971E+00
          2   -1    0    0  502    0  0.00000000000E+00  0.00000000000E+00  0.20027601671E+04  0.20027601671E+04  0.00000000000E+00 0. -1.
          1   -1    0    0  501    0 -0.00000000000E+00 -0.00000000000E+00 -0.86404548720E+03  0.86404548720E+03  0.00000000000E+00 0. -1.
         25    2    1    2    0    0  0.63961676046E+02 -0.96457843181E+01  0.13244234806E+04  0.13318810751E+04  0.12500202021E+03 0.  0.
          2    1    1    2  501    0 -0.11370267403E+03  0.66080554755E+01 -0.85561761134E+03  0.86316479383E+03  0.00000000000E+00 0. -1.
          1    1    1    2  502    0  0.49740997981E+02  0.30377288426E+01  0.66990881065E+03  0.67175978539E+03  0.00000000000E+00 0. -1.
         22    1    3    3    0    0  0.28019392062E+02 -0.50690470438E+01  0.12359222238E+04  0.12362501870E+04  0.00000000000E+00 0.  1.
         22    1    3    3    0    0  0.35942283985E+02 -0.45767372743E+01  0.88501256828E+02  0.95630888118E+02  0.00000000000E+00 0.  1.
</event>
<event>
 7    1  0.5018917E-005  0.4985109E+03  0.7818608E-02  0.1245133E+00
          2   -1    0    0  502    0  0.00000000000E+00  0.00000000000E+00  0.10406952386E+04  0.10406952386E+04  0.00000000000E+00 0. -1.
          1   -1    0    0  501    0 -0.00000000000E+00 -0.00000000000E+00 -0.17658924521E+04  0.17658924521E+04  0.00000000000E+00 0. -1.
         25    2    1    2    0    0  0.21345080359E+03 -0.45111410624E+03  0.86459229604E+03  0.10060927583E+04  0.12505045957E+03 0.  0.
          2    1    1    2  501    0  0.22928205324E+02  0.16587152202E+02 -0.11133280745E+04  0.11136876751E+04  0.00000000000E+00 0. -1.
          1    1    1    2  502    0 -0.23637900891E+03  0.43452695404E+03 -0.47646143495E+03  0.68680725727E+03  0.00000000000E+00 0. -1.
         22    1    3    3    0    0 -0.80468268197E+01 -0.75327854401E+02  0.16647073056E+03  0.18289762492E+03  0.00000000000E+00 0. -1.
         22    1    3    3    0    0  0.22149763041E+03 -0.37578625184E+03  0.69812156548E+03  0.82319513333E+03  0.00000000000E+00 0. -1.
</event>
<event>
 7    1  0.5018917E-005  0.6401891E+03  0.7818608E-02  0.1160940E+00
          2   -1    0    0  502    0  0.00000000000E+00  0.00000000000E+00  0.10056583925E+04  0.10056583925E+04  0.00000000000E+00 0. -1.
          1   -1    0    0  501    0 -0.00000000000E+00 -0.00000000000E+00 -0.35035476763E+04  0.35035476763E+04  0.00000000000E+00 0. -1.
         25    2    1    2    0    0  0.64115935953E+03  0.10927903718E+03 -0.12752857902E+04  0.14370136656E+04  0.12500878443E+03 0.  0.
          2    1    1    2  501    0 -0.21847895888E+02  0.50240215554E+02 -0.20364222487E+04  0.20371590475E+04  0.00000000000E+00 0. -1.
          1    1    1    2  502    0 -0.61931146364E+03 -0.15951925273E+03  0.81381875518E+03  0.10350333556E+04  0.00000000000E+00 0. -1.
         22    1    3    3    0    0  0.49461524926E+03  0.64523207936E+02 -0.10727516786E+04  0.11830484576E+04  0.00000000000E+00 0. -1.
         22    1    3    3    0    0  0.14654411027E+03  0.44755829240E+02 -0.20253411167E+03  0.25396520804E+03  0.00000000000E+00 0. -1.
</event>
<event>
 7    1  0.5018917E-005  0.2310064E+02  0.7818608E-02  0.1699480E+00
          2   -1    0    0  502    0  0.00000000000E+00  0.00000000000E+00  0.16009259031E+03  0.16009259031E+03  0.00000000000E+00 0. -1.
          1   -1    0    0  501    0 -0.00000000000E+00 -0.00000000000E+00 -0.59292910099E+03  0.59292910099E+03  0.00000000000E+00 0. -1.
         25    2    1    2    0    0 -0.43150858304E+02 -0.53241559875E+01  0.41468364473E+02  0.13868854104E+03  0.12499817180E+03 0.  0.
          2    1    1    2  501    0  0.21884659950E+02 -0.16377032001E+01 -0.54230347286E+03  0.54274734185E+03  0.00000000000E+00 0. -1.
          1    1    1    2  502    0  0.21266198354E+02  0.69618591876E+01  0.67998597707E+02  0.71585808412E+02  0.00000000000E+00 0. -1.
         22    1    3    3    0    0 -0.42314602107E+02  0.46706657622E+02 -0.11912924140E+02  0.64140121447E+02  0.00000000000E+00 0. -1.
         22    1    3    3    0    0 -0.83625619701E+00 -0.52030813609E+02  0.53381288613E+02  0.74548419589E+02  0.00000000000E+00 0. -1.
</event>
<event>
 7    1  0.5018917E-005  0.4552771E+03  0.7818608E-02  0.1094405E+00
          2   -1    0    0  502    0  0.00000000000E+00  0.00000000000E+00  0.28393130090E+04  0.28393130090E+04  0.00000000000E+00 0. -1.
          1   -1    0    0  501    0 -0.00000000000E+00 -0.00000000000E+00 -0.10150905166E+04  0.10150905166E+04  0.00000000000E+00 0. -1.
         25    2    1    2    0    0 -0.47541997533E+03  0.32029716292E+03  0.12025402169E+04  0.13380370041E+04  0.12500250204E+03 0.  0.
          2    1    1    2  501    0  0.10899764831E+03 -0.13706710537E+03 -0.91212736477E+03  0.92878641693E+03  0.00000000000E+00 0. -1.
          1    1    1    2  502    0  0.36642232702E+03 -0.18323005754E+03  0.15338096402E+04  0.15875801045E+04  0.00000000000E+00 0. -1.
         22    1    3    3    0    0 -0.36015377974E+03  0.30001438527E+03  0.99142452363E+03  0.10966503374E+04  0.00000000000E+00 0.  1.
         22    1    3    3    0    0 -0.11526619559E+03  0.20282777644E+02  0.21111569329E+03  0.24138666672E+03  0.00000000000E+00 0.  1.
</event>
<event>
 7    1  0.5018917E-005  0.4073501E+03  0.7818608E-02  0.1213208E+00
          2   -1    0    0  502    0  0.00000000000E+00  0.00000000000E+00  0.59381258265E+03  0.59381258265E+03  0.00000000000E+00 0. -1.
          1   -1    0    0  501    0 -0.00000000000E+00 -0.00000000000E+00 -0.95156788504E+03  0.95156788504E+03  0.00000000000E+00 0. -1.
         25    2    1    2    0    0 -0.35342230827E+03 -0.18752326491E+03  0.43463859073E+02  0.42141054212E+03  0.12500174041E+03 0.  0.
          2    1    1    2  501    0  0.13132670913E+02 -0.46353409303E+02 -0.64345040262E+03  0.64525152168E+03  0.00000000000E+00 0. -1.
          1    1    1    2  502    0  0.34028963736E+03  0.23387667421E+03  0.24223124115E+03  0.47871840389E+03  0.00000000000E+00 0. -1.
         22    1    3    3    0    0 -0.89396257915E+02 -0.44661230436E+02 -0.43323280958E+02  0.10891842409E+03  0.00000000000E+00 0.  1.
         22    1    3    3    0    0 -0.26402605035E+03 -0.14286203447E+03  0.86787140031E+02  0.31249211803E+03  0.00000000000E+00 0.  1.
</event>
<event>
 7    1  0.5018917E-005  0.4392693E+03  0.7818608E-02  0.1153899E+00
          2   -1    0    0  502    0  0.00000000000E+00  0.00000000000E+00  0.60153207671E+03  0.60153207671E+03  0.00000000000E+00 0. -1.
          1   -1    0    0  501    0 -0.00000000000E+00 -0.00000000000E+00 -0.28066940788E+04  0.28066940788E+04  0.00000000000E+00 0. -1.
         25    2    1    2    0    0  0.28342561361E+03 -0.31823394878E+03  0.35832660985E+03  0.57063635861E+03  0.12499987932E+03 0.  0.
          2    1    1    2  501    0  0.85180563291E+02 -0.16133619431E+02 -0.22451380547E+04  0.22468112753E+04  0.00000000000E+00 0. -1.
          1    1    1    2  502    0 -0.36860617690E+03  0.33436756821E+03 -0.31835055727E+03  0.59077852165E+03  0.00000000000E+00 0. -1.
         22    1    3    3    0    0  0.25966353859E+03 -0.30074459294E+03  0.36593415475E+03  0.54016689002E+03  0.00000000000E+00 0.  1.
         22    1    3    3    0    0  0.23762075018E+02 -0.17489355843E+02 -0.76075448973E+01  0.30469468593E+02  0.00000000000E+00 0.  1.
</event>
<event>
 7    1  0.5018917E-005  0.4385109E+03  0.7818608E-02  0.1199243E+00
          2   -1    0    0  502    0  0.00000000000E+00  0.00000000000E+00  0.19643228738E+03  0.19643228738E+03  0.00000000000E+00 0. -1.
          1   -1    0    0  501    0 -0.00000000000E+00 -0.00000000000E+00 -0.23095936190E+04  0.23095936190E+04  0.00000000000E+00 0. -1.
         25    2    1    2    0    0 -0.24022776013E+03  0.34899908119E+03 -0.23613619269E+03  0.50089410932E+03  0.12499948737E+03 0.  0.
          2    1    1    2  501    0 -0.38980406409E+02  0.34417200853E+02 -0.10535189271E+04  0.10548014721E+04  0.00000000000E+00 0. -1.
          1    1    1    2  502    0  0.27920816654E+03 -0.38341628204E+03 -0.82350621183E+03  0.95033032495E+03  0.00000000000E+00 0. -1.
         22    1    3    3    0    0  0.88414718585E+01  0.45919911067E+02 -0.43457463359E+02  0.63838554014E+02  0.00000000000E+00 0. -1.
         22    1    3    3    0    0 -0.24906923199E+03  0.30307917012E+03 -0.19267872933E+03  0.43705555530E+03  0.00000000000E+00 0. -1.
</event>
<event>
 7    1  0.5018917E-005  0.2904395E+03  0.7818608E-02  0.1265558E+00
          2   -1    0    0  502    0  0.00000000000E+00  0.00000000000E+00  0.78403707208E+03  0.78403707208E+03  0.00000000000E+00 0. -1.
          1   -1    0    0  501    0 -0.00000000000E+00 -0.00000000000E+00 -0.15646322390E+04  0.15646322390E+04  0.00000000000E+00 0. -1.
         25    2    1    2    0    0  0.21541303135E+03  0.19156525374E+03  0.10203344826E+03  0.33035736120E+03  0.12500056407E+03 0.  0.
          2    1    1    2  501    0 -0.25735909982E+02  0.30199013618E+02 -0.14126818958E+04  0.14132389948E+04  0.00000000000E+00 0. -1.
          1    1    1    2  502    0 -0.18967712137E+03 -0.22176426735E+03  0.53005328068E+03  0.60507295511E+03  0.00000000000E+00 0. -1.
         22    1    3    3    0    0  0.20844306011E+03  0.14084341090E+03  0.11638742127E+03  0.27718478950E+03  0.00000000000E+00 0.  1.
         22    1    3    3    0    0  0.69699712395E+01  0.50721842835E+02 -0.14353973004E+02  0.53172571695E+02  0.00000000000E+00 0.  1.
</event>
<event>
 7    1  0.5018917E-005  0.2097321E+03  0.7818608E-02  0.1208558E+00
          2   -1    0    0  502    0  0.00000000000E+00  0.00000000000E+00  0.93728354071E+02  0.93728354071E+02  0.00000000000E+00 0. -1.
          1   -1    0    0  501    0 -0.00000000000E+00 -0.00000000000E+00 -0.12165022669E+04  0.12165022669E+04  0.00000000000E+00 0. -1.
         25    2    1    2    0    0  0.48916698078E+02 -0.25699576961E+03 -0.51804799510E+03  0.59366506301E+03  0.12499925143E+03 0.  0.
          2    1    1    2  501    0  0.46611733394E+02  0.86578505259E+02 -0.46772979143E+03  0.47795360555E+03  0.00000000000E+00 0. -1.
          1    1    1    2  502    0 -0.95528431472E+02  0.17041726435E+03 -0.13699612626E+03  0.23861195238E+03  0.00000000000E+00 0. -1.
         22    1    3    3    0    0  0.62357910360E+02 -0.24209107155E+03 -0.38455046814E+03  0.45866726334E+03  0.00000000000E+00 0. -1.
         22    1    3    3    0    0 -0.13441212282E+02 -0.14904698066E+02 -0.13349752696E+03  0.13499779967E+03  0.00000000000E+00 0. -1.
</event>
<event>
 7    1  0.5018917E-005  0.7971078E+03  0.7818608E-02  0.1186345E+00
          2   -1    0    0  502    0  0.00000000000E+00  0.00000000000E+00  0.87440115051E+03  0.87440115051E+03  0.00000000000E+00 0. -1.
          1   -1    0    0  501    0 -0.00000000000E+00 -0.00000000000E+00 -0.28813505076E+04  0.28813505076E+04  0.00000000000E+00 0. -1.
         25    2    1    2    0    0  0.38358421515E+03 -0.72402907423E+03 -0.24579974847E+03  0.86452152869E+03  0.12500002710E+03 0.  0.
          2    1    1    2  501    0 -0.35446423586E+03  0.70857867746E+03 -0.22581648460E+04  0.23931228778E+04  0.00000000000E+00 0. -1.
          1    1    1    2  502    0 -0.29119979291E+02  0.15450396772E+02  0.49701523736E+03  0.49810725163E+03  0.00000000000E+00 0. -1.
         22    1    3    3    0    0  0.11234537242E+03 -0.24902414869E+03 -0.23909987485E+02  0.27423748256E+03  0.00000000000E+00 0. -1.
         22    1    3    3    0    0  0.27123884273E+03 -0.47500492553E+03 -0.22188976098E+03  0.59028404613E+03  0.00000000000E+00 0. -1.
</event>
<event>
 7    1  0.5018917E-005  0.3778762E+03  0.7818608E-02  0.1309924E+00
          2   -1    0    0  502    0  0.00000000000E+00  0.00000000000E+00  0.19321363264E+03  0.19321363264E+03  0.00000000000E+00 0. -1.
          1   -1    0    0  501    0 -0.00000000000E+00 -0.00000000000E+00 -0.23904461855E+04  0.23904461855E+04  0.00000000000E+00 0. -1.
         25    2    1    2    0    0  0.72391693466E+02  0.36666994195E+03 -0.99496112234E+02  0.40646276466E+03  0.12500039639E+03 0.  0.
          2    1    1    2  501    0  0.43227236044E+01  0.19625437897E+02 -0.11592223290E+04  0.11593965032E+04  0.00000000000E+00 0. -1.
          1    1    1    2  502    0 -0.76714417070E+02 -0.38629537984E+03 -0.93851411163E+03  0.10178005502E+04  0.00000000000E+00 0. -1.
         22    1    3    3    0    0  0.27129476793E+02  0.33567595811E+03 -0.10098522467E+03  0.35158551302E+03  0.00000000000E+00 0. -1.
         22    1    3    3    0    0  0.45262216673E+02  0.30993983841E+02  0.14891124346E+01  0.54877251647E+02  0.00000000000E+00 0. -1.
</event>
<event>
 7    1  0.5018917E-005  0.2656960E+03  0.7818608E-02  0.1181548E+00
          2   -1    0    0  502    0  0.00000000000E+00  0.00000000000E+00  0.30898914193E+04  0.30898914193E+04  0.00000000000E+00 0. -1.
          1   -1    0    0  501    0 -0.00000000000E+00 -0.00000000000E+00 -0.63380334505E+03  0.63380334505E+03  0.00000000000E+00 0. -1.
         25    2    1    2    0    0 -0.54437698656E+02  0.33058989659E+03  0.14332537403E+04  0.14771913960E+04  0.12499997316E+03 0.  0.
          2    1    1    2  501    0  0.49786332049E+02 -0.91693004105E+02 -0.59856590865E+03  0.60759150163E+03  0.00000000000E+00 0. -1.
          1    1    1    2  502    0  0.46513666073E+01 -0.23889689249E+03  0.16214002426E+04  0.16389118668E+04  0.00000000000E+00 0. -1.
         22    1    3    3    0    0 -0.15451930952E+01  0.28868978060E+03  0.12099960904E+04  0.12439592903E+04  0.00000000000E+00 0. -1.
         22    1    3    3    0    0 -0.52892505561E+02  0.41900115994E+02  0.22325764993E+03  0.23323210568E+03  0.00000000000E+00 0. -1.
</event>
<event>
 7    1  0.5018917E-005  0.6947549E+03  0.7818608E-02  0.1081092E+00
          2   -1    0    0  502    0  0.00000000000E+00  0.00000000000E+00  0.78556598167E+03  0.78556598167E+03  0.00000000000E+00 0. -1.
          1   -1    0    0  501    0 -0.00000000000E+00 -0.00000000000E+00 -0.25092618460E+04  0.25092618460E+04  0.00000000000E+00 0. -1.
         25    2    1    2    0    0 -0.38423211466E+03 -0.64722759039E+03  0.24551703059E+03  0.80152386068E+03  0.12499606086E+03 0.  0.
          2    1    1    2  501    0  0.89346097996E+02  0.10377943370E+03 -0.18604848350E+04  0.18655178148E+04  0.00000000000E+00 0. -1.
          1    1    1    2  502    0  0.29488601666E+03  0.54344815669E+03 -0.10872805989E+03  0.62778615216E+03  0.00000000000E+00 0. -1.
         22    1    3    3    0    0 -0.17508902678E+03 -0.18065277429E+03  0.87434985120E+02  0.26633901100E+03  0.00000000000E+00 0.  1.
         22    1    3    3    0    0 -0.20914308788E+03 -0.46657481610E+03  0.15808204547E+03  0.53518484968E+03  0.00000000000E+00 0.  1.
</event>
<event>
 7    1  0.5018917E-005  0.6942072E+03  0.7818608E-02  0.1019034E+00
          2   -1    0    0  502    0  0.00000000000E+00  0.00000000000E+00  0.98434295425E+03  0.98434295425E+03  0.00000000000E+00 0. -1.
          1   -1    0    0  501    0 -0.00000000000E+00 -0.00000000000E+00 -0.14577829058E+04  0.14577829058E+04  0.00000000000E+00 0. -1.
         25    2    1    2    0    0 -0.36229438517E+03 -0.51298082885E+03 -0.39714865060E+02  0.64156724731E+03  0.12499884009E+03 0.  0.
          2    1    1    2  501    0  0.23079685348E+03 -0.23920801154E+03 -0.86283754750E+03  0.92464928148E+03  0.00000000000E+00 0. -1.
          1    1    1    2  502    0  0.13149753169E+03  0.75218884039E+03  0.42911246099E+03  0.87590933128E+03  0.00000000000E+00 0. -1.
         22    1    3    3    0    0 -0.17635130840E+03 -0.15351125837E+03 -0.37842414712E+02  0.23684918993E+03  0.00000000000E+00 0.  1.
         22    1    3    3    0    0 -0.18594307678E+03 -0.35946957048E+03 -0.18724503472E+01  0.40471805738E+03  0.00000000000E+00 0.  1.
</event>
<event>
 7    1  0.5018917E-005  0.7643493E+03  0.7818608E-02  0.1104221E+00
          2   -1    0    0  502    0  0.00000000000E+00  0.00000000000E+00  0.20442066818E+04  0.20442066818E+04  0.00000000000E+00 0. -1.
          1   -1    0    0  501    0 -0.00000000000E+00 -0.00000000000E+00 -0.45545981144E+03  0.45545981144E+03  0.00000000000E+00 0. -1.
         25    2    1    2    0    0  0.49174657267E+03 -0.55487848270E+03  0.39891614656E+03  0.85115388053E+03  0.12499605618E+03 0.  0.
          2    1    1    2  501    0 -0.46318484883E+03  0.64214489051E+03  0.46566757089E+03  0.91855133290E+03  0.00000000000E+00 0. -1.
          1    1    1    2  502    0 -0.28561723839E+02 -0.87266407814E+02  0.72416315294E+03  0.72996127985E+03  0.00000000000E+00 0. -1.
         22    1    3    3    0    0  0.17173148184E+03 -0.17388147976E+03  0.19809933953E+03  0.31459469032E+03  0.00000000000E+00 0.  1.
         22    1    3    3    0    0  0.32001509084E+03 -0.38099700294E+03  0.20081680703E+03  0.53655919021E+03  0.00000000000E+00 0.  1.
</event>
<event>
 7    1  0.5018917E-005  0.5211184E+02  0.7818608E-02  0.1456661E+00
          2   -1    0    0  502    0  0.00000000000E+00  0.00000000000E+00  0.27879688402E+03  0.27879688402E+03  0.00000000000E+00 0. -1.
          1   -1    0    0  501    0 -0.00000000000E+00 -0.00000000000E+00 -0.25884994360E+04  0.25884994360E+04  0.00000000000E+00 0. -1.
         25    2    1    2    0    0 -0.17735176112E+02 -0.12568214127E+02 -0.33519250792E+02  0.13122911028E+03  0.12500017093E+03 0.  0.
          2    1    1    2  501    0  0.16340929864E+02 -0.41004329330E+02 -0.25028055209E+04  0.25031947301E+04  0.00000000000E+00 0. -1.
          1    1    1    2  502    0  0.13942462477E+01  0.53572543457E+02  0.22662221972E+03  0.23287247971E+03  0.00000000000E+00 0. -1.
         22    1    3    3    0    0 -0.51179260660E+02 -0.20286225364E+02  0.27256574029E+02  0.61431005925E+02  0.00000000000E+00 0. -1.
         22    1    3    3    0    0  0.33444084548E+02  0.77180112373E+01 -0.60775824821E+02  0.69798104354E+02  0.00000000000E+00 0. -1.
</event>
<event>
 7    1  0.5018917E-005  0.3597375E+03  0.7818608E-02  0.1191479E+00
          2   -1    0    0  502    0  0.00000000000E+00  0.00000000000E+00  0.14655716552E+04  0.14655716552E+04  0.00000000000E+00 0. -1.
          1   -1    0    0  501    0 -0.00000000000E+00 -0.00000000000E+00 -0.65588966494E+03  0.65588966494E+03  0.00000000000E+00 0. -1.
         25    2    1    2    0    0  0.28966504048E+03  0.28027147149E+03  0.40833269333E+03  0.58721242163E+03  0.12499962508E+03 0.  0.
          2    1    1    2  501    0 -0.28548225394E+03 -0.21138891335E+03 -0.50932432961E+03  0.62096430069E+03  0.00000000000E+00 0. -1.
          1    1    1    2  502    0 -0.41827865458E+01 -0.68882558143E+02  0.91067362654E+03  0.91328459781E+03  0.00000000000E+00 0. -1.
         22    1    3    3    0    0  0.27497957599E+03  0.19971896747E+03  0.33710700204E+03  0.47868837880E+03  0.00000000000E+00 0. -1.
         22    1    3    3    0    0  0.14685464490E+02  0.80552504027E+02  0.71225691291E+02  0.10852404283E+03  0.00000000000E+00 0. -1.
</event>
<event>
 7    1  0.5018917E-005  0.8118465E+03  0.7818608E-02  0.9614819E-01
          2   -1    0    0  502    0  0.00000000000E+00  0.00000000000E+00  0.42661290212E+04  0.42661290212E+04  0.00000000000E+00 0. -1.
          1   -1    0    0  501    0 -0.00000000000E+00 -0.00000000000E+00 -0.89325262197E+03  0.89325262197E+03  0.00000000000E+00 0. -1.
         25    2    1    2    0    0 -0.11675846869E+04 -0.68296536479E+03  0.12398255090E+04  0.18391541668E+04  0.12500026338E+03 0.  0.
          2    1    1    2  501    0  0.45104696999E+03  0.55803270001E+03 -0.30228031341E+03  0.77859954488E+03  0.00000000000E+00 0. -1.
          1    1    1    2  502    0  0.71653771696E+03  0.12493266478E+03  0.24353312036E+04  0.25416279315E+04  0.00000000000E+00 0. -1.
         22    1    3    3    0    0 -0.91934755678E+03 -0.55114770114E+03  0.10463449348E+04  0.14979323887E+04  0.00000000000E+00 0.  1.
         22    1    3    3    0    0 -0.24823713017E+03 -0.13181766365E+03  0.19348057419E+03  0.34122177808E+03  0.00000000000E+00 0.  1.
</event>
<event>
 7    1  0.5018917E-005  0.5023410E+03  0.7818608E-02  0.1203781E+00
          2   -1    0    0  502    0  0.00000000000E+00  0.00000000000E+00  0.70280854247E+03  0.70280854247E+03  0.00000000000E+00 0. -1.
          1   -1    0    0  501    0 -0.00000000000E+00 -0.00000000000E+00 -0.91355290342E+03  0.91355290342E+03  0.00000000000E+00 0. -1.
         25    2    1    2    0    0 -0.12043804406E+03  0.46946011942E+03 -0.15830705392E+03  0.52496170780E+03  0.12500218057E+03 0.  0.
          2    1    1    2  501    0 -0.41090423620E+02  0.13385382372E+02 -0.44586754588E+03  0.44795698437E+03  0.00000000000E+00 0. -1.
          1    1    1    2  502    0  0.16152846768E+03 -0.48284550179E+03  0.39343023885E+03  0.64344275372E+03  0.00000000000E+00 0. -1.
         22    1    3    3    0    0 -0.99623035659E+01  0.22942708211E+03 -0.31232141170E+02  0.23175737343E+03  0.00000000000E+00 0. -1.
         22    1    3    3    0    0 -0.11047574050E+03  0.24003303731E+03 -0.12707491275E+03  0.29320433437E+03  0.00000000000E+00 0. -1.
</event>
<event>
 7    1  0.5018917E-005  0.3829547E+03  0.7818608E-02  0.1206425E+00
          2   -1    0    0  502    0  0.00000000000E+00  0.00000000000E+00  0.12121847585E+03  0.12121847585E+03  0.00000000000E+00 0. -1.
          1   -1    0    0  501    0 -0.00000000000E+00 -0.00000000000E+00 -0.26126258091E+04  0.26126258091E+04  0.00000000000E+00 0. -1.
         25    2    1    2    0    0  0.32288149548E+03  0.18328259917E+03 -0.15708469755E+04  0.16189596366E+04  0.12500045221E+03 0.  0.
          2    1    1    2  501    0 -0.37200984414E+03 -0.15834123680E+03 -0.96359184313E+03  0.10449748856E+04  0.00000000000E+00 0. -1.
          1    1    1    2  502    0  0.49128348656E+02 -0.24941362368E+02  0.43031485381E+02  0.69909762784E+02  0.00000000000E+00 0. -1.
         22    1    3    3    0    0  0.15676522716E+03  0.15594001472E+03 -0.80410226439E+03  0.83395028403E+03  0.00000000000E+00 0.  1.
         22    1    3    3    0    0  0.16611626832E+03  0.27342584453E+02 -0.76674471114E+03  0.78500935254E+03  0.00000000000E+00 0.  1.
</event>
<event>
 7    1  0.5018917E-005  0.1027594E+04  0.7818608E-02  0.1151165E+00
          2   -1    0    0  502    0  0.00000000000E+00  0.00000000000E+00  0.34577410472E+04  0.34577410472E+04  0.00000000000E+00 0. -1.
          1   -1    0    0  501    0 -0.00000000000E+00 -0.00000000000E+00 -0.30625014444E+04  0.30625014444E+04  0.00000000000E+00 0. -1.
         25    2    1    2    0    0  0.81082743065E+02  0.10461095662E+04  0.13718321150E+04  0.17316086162E+04  0.12500164949E+03 0.  0.
          2    1    1    2  501    0 -0.10951314690E+03 -0.10204846715E+04 -0.27910484544E+04  0.29737742969E+04  0.00000000000E+00 0. -1.
          1    1    1    2  502    0  0.28430403830E+02 -0.25624894624E+02  0.18144559423E+04  0.18148595785E+04  0.00000000000E+00 0. -1.
         22    1    3    3    0    0  0.45624170774E+02  0.58397524954E+03  0.86645636011E+03  0.10458753659E+04  0.00000000000E+00 0. -1.
         22    1    3    3    0    0  0.35458572292E+02  0.46213431662E+03  0.50537575484E+03  0.68573325027E+03  0.00000000000E+00 0. -1.
</event>
<event>
 7    1  0.5018917E-005  0.1242833E+04  0.7818608E-02  0.9463981E-01
          2   -1    0    0  502    0  0.00000000000E+00  0.00000000000E+00  0.34866000519E+04  0.34866000519E+04  0.00000000000E+00 0. -1.
          1   -1    0    0  501    0 -0.00000000000E+00 -0.00000000000E+00 -0.22728969858E+04  0.22728969858E+04  0.00000000000E+00 0. -1.
         25    2    1    2    0    0 -0.17455514970E+04 -0.72868652412E+01  0.18351962243E+04  0.25358573883E+04  0.12499753961E+03 0.  0.
          2    1    1    2  501    0  0.11782531430E+04  0.22849958407E+03 -0.16428423775E+04  0.20345573490E+04  0.00000000000E+00 0. -1.
          1    1    1    2  502    0  0.56729835401E+03 -0.22121271883E+03  0.10213492193E+04  0.11890823004E+04  0.00000000000E+00 0. -1.
         22    1    3    3    0    0 -0.13463232150E+04  0.18172087243E+02  0.14807322564E+04  0.20013706401E+04  0.00000000000E+00 0.  1.
         22    1    3    3    0    0 -0.39922828209E+03 -0.25458952484E+02  0.35446396796E+03  0.53448674826E+03  0.00000000000E+00 0.  1.
</event>
<event>
 7    1  0.5018917E-005  0.5091652E+02  0.7818608E-02  0.1464351E+00
          2   -1    0    0  502    0  0.00000000000E+00  0.00000000000E+00  0.12257368503E+04  0.12257368503E+04  0.00000000000E+00 0. -1.
          1   -1    0    0  501    0 -0.00000000000E+00 -0.00000000000E+00 -0.30940251198E+02  0.30940251198E+02  0.00000000000E+00 0. -1.
         25    2    1    2    0    0 -0.74575373606E+02  0.76100838446E+01  0.17970604469E+03  0.23138536916E+03  0.12500210734E+03 0.  0.
          2    1    1    2  501    0  0.29616579458E+02 -0.30793013203E+02  0.99247967100E+02  0.10805327582E+03  0.00000000000E+00 0. -1.
          1    1    1    2  502    0  0.44958794148E+02  0.23182929359E+02  0.91584258733E+03  0.91723845653E+03  0.00000000000E+00 0. -1.
         22    1    3    3    0    0 -0.37035843219E+02  0.65508486340E+02  0.11020705284E+03  0.13344890393E+03  0.00000000000E+00 0. -1.
         22    1    3    3    0    0 -0.37539530387E+02 -0.57898402496E+02  0.69498991849E+02  0.97936465227E+02  0.00000000000E+00 0. -1.
</event>
<event>
 7    1  0.5018917E-005  0.4750153E+03  0.7818608E-02  0.1108436E+00
          2   -1    0    0  502    0  0.00000000000E+00  0.00000000000E+00  0.14725444285E+04  0.14725444285E+04  0.00000000000E+00 0. -1.
          1   -1    0    0  501    0 -0.00000000000E+00 -0.00000000000E+00 -0.98658333391E+03  0.98658333391E+03  0.00000000000E+00 0. -1.
         25    2    1    2    0    0 -0.85848018853E+02 -0.56861856756E+03 -0.18009797036E+03  0.61543079810E+03  0.12499132210E+03 0.  0.
          2    1    1    2  501    0 -0.59069066179E+02  0.12690459464E+03 -0.53647362846E+03  0.55443474346E+03  0.00000000000E+00 0. -1.
          1    1    1    2  502    0  0.14491708503E+03  0.44171397292E+03  0.12025326934E+04  0.12892622208E+04  0.00000000000E+00 0. -1.
         22    1    3    3    0    0 -0.47774001235E+02 -0.52112173980E+03 -0.18327970796E+03  0.55447423225E+03  0.00000000000E+00 0.  1.
         22    1    3    3    0    0 -0.38074017618E+02 -0.47496827766E+02  0.31817375971E+01  0.60956565845E+02  0.00000000000E+00 0.  1.
</event>
<event>
 7    1  0.5018917E-005  0.7965914E+03  0.7818608E-02  0.1077557E+00
          2   -1    0    0  502    0  0.00000000000E+00  0.00000000000E+00  0.73449773684E+03  0.73449773684E+03  0.00000000000E+00 0. -1.
          1   -1    0    0  501    0 -0.00000000000E+00 -0.00000000000E+00 -0.17880736835E+04  0.17880736835E+04  0.00000000000E+00 0. -1.
         25    2    1    2    0    0  0.46332873255E+03  0.75975975408E+03 -0.75474871680E+03  0.11735330238E+04  0.12500293611E+03 0.  0.
          2    1    1    2  501    0 -0.89571872633E+02 -0.87568929317E+02 -0.53105620985E+03  0.54563003562E+03  0.00000000000E+00 0. -1.
          1    1    1    2  502    0 -0.37375685991E+03 -0.67219082477E+03  0.23222898002E+03  0.80340836092E+03  0.00000000000E+00 0. -1.
         22    1    3    3    0    0  0.15547099581E+02  0.11109015332E+02 -0.45145671742E+02  0.49022996686E+02  0.00000000000E+00 0.  1.
         22    1    3    3    0    0  0.44778163297E+03  0.74865073875E+03 -0.70960304506E+03  0.11245100271E+04  0.00000000000E+00 0.  1.
</event>
<event>
 7    1  0.5018917E-005  0.3244585E+03  0.7818608E-02  0.1168448E+00
          2   -1    0    0  502    0  0.00000000000E+00  0.00000000000E+00  0.10165011704E+04  0.10165011704E+04  0.00000000000E+00 0. -1.
          1   -1    0    0  501    0 -0.00000000000E+00 -0.00000000000E+00 -0.15497069142E+04  0.15497069142E+04  0.00000000000E+00 0. -1.
         25    2    1    2    0    0 -0.33464098839E+03  0.19477378180E+03  0.21683381514E+03  0.46104344542E+03  0.12499095164E+03 0.  0.
          2    1    1    2  501    0  0.99073298151E+02  0.31319823745E+01 -0.13908208417E+04  0.13943485725E+04  0.00000000000E+00 0. -1.
          1    1    1    2  502    0  0.23556769024E+03 -0.19790576418E+03  0.64078128283E+03  0.71081606665E+03  0.00000000000E+00 0. -1.
         22    1    3    3    0    0 -0.21039851442E+03  0.16996814028E+03  0.19262715593E+03  0.33205711072E+03  0.00000000000E+00 0.  1.
         22    1    3    3    0    0 -0.12424247397E+03  0.24805641529E+02  0.24206659211E+02  0.12898633470E+03  0.00000000000E+00 0.  1.
</event>
<event>
 7    1  0.5018917E-005  0.4591984E+03  0.7818608E-02  0.1240506E+00
          2   -1    0    0  502    0  0.00000000000E+00  0.00000000000E+00  0.10975293536E+04  0.10975293536E+04  0.00000000000E+00 0. -1.
          1   -1    0    0  501    0 -0.00000000000E+00 -0.00000000000E+00 -0.56493255520E+03  0.56493255520E+03  0.00000000000E+00 0. -1.
         25    2    1    2    0    0 -0.27011676498E+03  0.38723664110E+03  0.60178652470E+03  0.77504029592E+03  0.12500062422E+03 0.  0.
          2    1    1    2  501    0  0.25301157075E+02 -0.19905020686E+02 -0.35829536056E+03  0.35973868821E+03  0.00000000000E+00 0. -1.
          1    1    1    2  502    0  0.24481560791E+03 -0.36733162041E+03  0.28910563430E+03  0.52768292469E+03  0.00000000000E+00 0. -1.
         22    1    3    3    0    0 -0.26252025390E+03  0.29465267255E+03  0.50469141669E+03  0.64066411421E+03  0.00000000000E+00 0. -1.
         22    1    3    3    0    0 -0.75965110807E+01  0.92583968547E+02  0.97095108007E+02  0.13437618171E+03  0.00000000000E+00 0. -1.
</event>
<event>
 7    1  0.5018917E-005  0.1301689E+04  0.7818608E-02  0.1113467E+00
          2   -1    0    0  502    0  0.00000000000E+00  0.00000000000E+00  0.29267145449E+04  0.29267145449E+04  0.00000000000E+00 0. -1.
          1   -1    0    0  501    0 -0.00000000000E+00 -0.00000000000E+00 -0.22626577848E+04  0.22626577848E+04  0.00000000000E+00 0. -1.
         25    2    1    2    0    0 -0.20668396039E+03 -0.12613611499E+04  0.48155231497E+03  0.13715931199E+04  0.12499937801E+03 0.  0.
          2    1    1    2  501    0  0.24899720007E+03  0.12838448199E+04 -0.15820392670E+04  0.20525850456E+04  0.00000000000E+00 0. -1.
          1    1    1    2  502    0 -0.42313239688E+02 -0.22483669975E+02  0.17645437121E+04  0.17651941643E+04  0.00000000000E+00 0. -1.
         22    1    3    3    0    0 -0.13080902195E+03 -0.48663880103E+03  0.22617797864E+03  0.55234482066E+03  0.00000000000E+00 0. -1.
         22    1    3    3    0    0 -0.75874938438E+02 -0.77472234886E+03  0.25537433633E+03  0.81924829921E+03  0.00000000000E+00 0. -1.
</event>
<event>
 7    1  0.5018917E-005  0.3371402E+03  0.7818608E-02  0.1125827E+00
          2   -1    0    0  502    0  0.00000000000E+00  0.00000000000E+00  0.12607815163E+04  0.12607815163E+04  0.00000000000E+00 0. -1.
          1   -1    0    0  501    0 -0.00000000000E+00 -0.00000000000E+00 -0.31608471903E+04  0.31608471903E+04  0.00000000000E+00 0. -1.
         25    2    1    2    0    0 -0.29301727266E+03  0.39485967072E+03  0.19501654403E+03  0.54353454896E+03  0.12500028729E+03 0.  0.
          2    1    1    2  501    0  0.20058436434E+03 -0.26611106743E+03 -0.29701516460E+04  0.29887873775E+04  0.00000000000E+00 0. -1.
          1    1    1    2  502    0  0.92432908320E+02 -0.12874860329E+03  0.87506942796E+03  0.88930678011E+03  0.00000000000E+00 0. -1.
         22    1    3    3    0    0 -0.15744010274E+02  0.45172126420E+02 -0.15244588097E+02  0.50207492778E+02  0.00000000000E+00 0.  1.
         22    1    3    3    0    0 -0.27727326239E+03  0.34968754430E+03  0.21026113212E+03  0.49332705618E+03  0.00000000000E+00 0.  1.
</event>
<event>
 7    1  0.5018917E-005  0.6422230E+03  0.7818608E-02  0.1195418E+00
          2   -1    0    0  502    0  0.00000000000E+00  0.00000000000E+00  0.11808812509E+04  0.11808812509E+04  0.00000000000E+00 0. -1.
          1   -1    0    0  501    0 -0.00000000000E+00 -0.00000000000E+00 -0.91625833576E+03  0.91625833576E+03  0.00000000000E+00 0. -1.
         25    2    1    2    0    0 -0.46958275347E+03 -0.44853799258E+03 -0.46232258153E+03  0.80688430236E+03  0.12500325943E+03 0.  0.
          2    1    1    2  501    0  0.47428781754E+03  0.41181939156E+03  0.69716546561E+02  0.63198460582E+03  0.00000000000E+00 0. -1.
          1    1    1    2  502    0 -0.47050640761E+01  0.36718601027E+02  0.65722895009E+03  0.65827067846E+03  0.00000000000E+00 0. -1.
         22    1    3    3    0    0 -0.23641034971E+03 -0.17195028615E+03 -0.26624937297E+03  0.39540546653E+03  0.00000000000E+00 0.  1.
         22    1    3    3    0    0 -0.23317240375E+03 -0.27658770643E+03 -0.19607320856E+03  0.41147883583E+03  0.00000000000E+00 0.  1.
</event>
<event>
 7    1  0.5018917E-005  0.2126405E+03  0.7818608E-02  0.1182877E+00
          2   -1    0    0  502    0  0.00000000000E+00  0.00000000000E+00  0.22412407594E+04  0.22412407594E+04  0.00000000000E+00 0. -1.
          1   -1    0    0  501    0 -0.00000000000E+00 -0.00000000000E+00 -0.56732571930E+02  0.56732571930E+02  0.00000000000E+00 0. -1.
         25    2    1    2    0    0 -0.30473319138E+03 -0.73442158563E+02  0.83871770916E+03  0.90406225799E+03  0.12500040834E+03 0.  0.
          2    1    1    2  501    0  0.11754213989E+03  0.51789206149E+02  0.24029401080E+03  0.27246924258E+03  0.00000000000E+00 0. -1.
          1    1    1    2  502    0  0.18719105149E+03  0.21652952413E+02  0.11054964675E+04  0.11214418308E+04  0.00000000000E+00 0. -1.
         22    1    3    3    0    0 -0.51598667872E+02  0.60750248227E+01  0.50776567103E+02  0.72647011085E+02  0.00000000000E+00 0.  1.
         22    1    3    3    0    0 -0.25313452351E+03 -0.79517183385E+02  0.78794114205E+03  0.83141524690E+03  0.00000000000E+00 0.  1.
</event>
<event>
 7    1  0.5018917E-005  0.7520349E+03  0.7818608E-02  0.1114166E+00
          2   -1    0    0  502    0  0.00000000000E+00  0.00000000000E+00  0.20838742088E+04  0.20838742088E+04  0.00000000000E+00 0. -1.
          1   -1    0    0  501    0 -0.00000000000E+00 -0.00000000000E+00 -0.79497983406E+03  0.79497983406E+03  0.00000000000E+00 0. -1.
         25    2    1    2    0    0 -0.17382541624E+03  0.73291214602E+03 -0.36735921198E+03  0.84732141652E+03  0.12500121260E+03 0.  0.
          2    1    1    2  501    0  0.92648909838E+02 -0.74589176055E+03  0.57290802084E+03  0.94507245188E+03  0.00000000000E+00 0. -1.
          1    1    1    2  502    0  0.81176506399E+02  0.12979614536E+02  0.10833455659E+04  0.10864601745E+04  0.00000000000E+00 0. -1.
         22    1    3    3    0    0 -0.83701485718E+02  0.13998270333E+03 -0.93688602483E+02  0.18809213215E+03  0.00000000000E+00 0.  1.
         22    1    3    3    0    0 -0.90123930518E+02  0.59292944269E+03 -0.27367060950E+03  0.65922928437E+03  0.00000000000E+00 0.  1.
</event>
<event>
 7    1  0.5018917E-005  0.2125082E+03  0.7818608E-02  0.1169425E+00
          2   -1    0    0  502    0  0.00000000000E+00  0.00000000000E+00  0.27735700489E+03  0.27735700489E+03  0.00000000000E+00 0. -1.
          1   -1    0    0  501    0 -0.00000000000E+00 -0.00000000000E+00 -0.58372919720E+03  0.58372919720E+03  0.00000000000E+00 0. -1.
         25    2    1    2    0    0  0.21918879480E+03  0.23881233304E+03 -0.71550366633E+02  0.35470749376E+03  0.12499157165E+03 0.  0.
          2    1    1    2  501    0 -0.83027907788E+02 -0.12451227694E+03 -0.28478666411E+03  0.32171475663E+03  0.00000000000E+00 0. -1.
          1    1    1    2  502    0 -0.13616088702E+03 -0.11430005610E+03  0.49964838433E+02  0.18466395170E+03  0.00000000000E+00 0. -1.
         22    1    3    3    0    0  0.24200872559E+02 -0.13479689235E+02  0.91574754191E+00  0.27716833298E+02  0.00000000000E+00 0.  1.
         22    1    3    3    0    0  0.19498792225E+03  0.25229202228E+03 -0.72466114175E+02  0.32699066046E+03  0.00000000000E+00 0.  1.
</event>
<event>
 7    1  0.5018917E-005  0.3796349E+03  0.7818608E-02  0.1231320E+00
          2   -1    0    0  502    0  0.00000000000E+00  0.00000000000E+00  0.52849465295E+03  0.52849465295E+03  0.00000000000E+00 0. -1.
          1   -1    0    0  501    0 -0.00000000000E+00 -0.00000000000E+00 -0.11588740097E+04  0.11588740097E+04  0.00000000000E+00 0. -1.
         25    2    1    2    0    0 -0.10055328475E+03  0.33540219125E+03 -0.18389612426E+03  0.41478696381E+03  0.12499939145E+03 0.  0.
          2    1    1    2  501    0  0.12485352107E+03 -0.37060272745E+03 -0.81374494522E+03  0.90283753754E+03  0.00000000000E+00 0. -1.
          1    1    1    2  502    0 -0.24300236315E+02  0.35200536203E+02  0.36726171269E+03  0.36974416134E+03  0.00000000000E+00 0. -1.
         22    1    3    3    0    0 -0.21047562491E+02  0.44108397441E+02  0.17414959637E+02  0.51882862592E+02  0.00000000000E+00 0.  1.
         22    1    3    3    0    0 -0.79505722261E+02  0.29129379381E+03 -0.20131108390E+03  0.36290410122E+03  0.00000000000E+00 0.  1.
</event>
<event>
 7    1  0.5018917E-005  0.1836262E+03  0.7818608E-02  0.1164824E+00
          2   -1    0    0  502    0  0.00000000000E+00  0.00000000000E+00  0.39051944180E+03  0.39051944180E+03  0.00000000000E+00 0. -1.
          1   -1    0    0  501    0 -0.00000000000E+00 -0.00000000000E+00 -0.14752243778E+04  0.14752243778E+04  0.00000000000E+00 0. -1.
         25    2    1    2    0    0 -0.11809966593E+03 -0.92627993172E+02 -0.45634579764E+03  0.49639155405E+03  0.12500244678E+03 0.  0.
          2    1    1    2  501    0  0.15719373072E+03 -0.92913882429E+02 -0.96546324009E+03  0.98257932326E+03  0.00000000000E+00 0. -1.
          1    1    1    2  502    0 -0.39094064794E+02  0.18554187560E+03  0.33710410172E+03  0.38677294230E+03  0.00000000000E+00 0. -1.
         22    1    3    3    0    0 -0.99704550116E+02 -0.44470733887E+01 -0.18109243890E+03  0.20677341512E+03  0.00000000000E+00 0.  1.
         22    1    3    3    0    0 -0.18395115811E+02 -0.88180919783E+02 -0.27525335874E+03  0.28961813893E+03  0.00000000000E+00 0.  1.
</event>
<event>
 7    1  0.5018917E-005  0.5691875E+03  0.7818608E-02  0.1114051E+00
          2   -1    0    0  502    0  0.00000000000E+00  0.00000000000E+00  0.36260454662E+04  0.36260454662E+04  0.00000000000E+00 0. -1.
          1   -1    0    0  501    0 -0.00000000000E+00 -0.00000000000E+00 -0.41706755282E+03  0.41706755282E+03  0.00000000000E+00 0. -1.
         25    2    1    2    0    0  0.45744837068E+03 -0.16384170358E+03  0.10388261965E+04  0.11536413585E+04  0.12500160764E+03 0.  0.
          2    1    1    2  501    0 -0.53770796947E+03  0.23725960036E+03 -0.11739862974E+03  0.59933664719E+03  0.00000000000E+00 0. -1.
          1    1    1    2  502    0  0.80259598794E+02 -0.73417896780E+02  0.22875503467E+04  0.22901350134E+04  0.00000000000E+00 0. -1.
         22    1    3    3    0    0  0.13871135369E+03 -0.18666540622E+02  0.19512603646E+03  0.24013215004E+03  0.00000000000E+00 0. -1.
         22    1    3    3    0    0  0.31873701699E+03 -0.14517516296E+03  0.84370016001E+03  0.91350920846E+03  0.00000000000E+00 0. -1.
</event>
<event>
 7    1  0.5018917E-005  0.5362980E+03  0.7818608E-02  0.1196355E+00
          2   -1    0    0  502    0  0.00000000000E+00  0.00000000000E+00  0.25413351026E+04  0.25413351026E+04  0.00000000000E+00 0. -1.
          1   -1    0    0  501    0 -0.00000000000E+00 -0.00000000000E+00 -0.35108375857E+03  0.35108375857E+03  0.00000000000E+00 0. -1.
         25    2    1    2    0    0 -0.12003988952E+03 -0.49128333775E+03  0.60163374210E+03  0.79583737364E+03  0.12500029048E+03 0.  0.
          2    1    1    2  501    0  0.13558055573E+03  0.53231758716E+03  0.43707612753E+02  0.55104850613E+03  0.00000000000E+00 0. -1.
          1    1    1    2  502    0 -0.15540666211E+02 -0.41034249409E+02  0.15449099892E+04  0.15455329814E+04  0.00000000000E+00 0. -1.
         22    1    3    3    0    0 -0.10575317382E+03 -0.38730512155E+03  0.39057634826E+03  0.56012398161E+03  0.00000000000E+00 0. -1.
         22    1    3    3    0    0 -0.14286715701E+02 -0.10397821620E+03  0.21105739383E+03  0.23571339203E+03  0.00000000000E+00 0. -1.
</event>
<event>
 7    1  0.5018917E-005  0.9883717E+03  0.7818608E-02  0.1195077E+00
          2   -1    0    0  502    0  0.00000000000E+00  0.00000000000E+00  0.29857204064E+04  0.29857204064E+04  0.00000000000E+00 0. -1.
          1   -1    0    0  501    0 -0.00000000000E+00 -0.00000000000E+00 -0.83517639760E+03  0.83517639760E+03  0.00000000000E+00 0. -1.
         25    2    1    2    0    0 -0.90729060016E+03  0.42916937266E+03  0.56037170836E+03  0.11562921047E+04  0.12502958201E+03 0.  0.
          2    1    1    2  501    0  0.88895290924E+03 -0.41346395537E+03 -0.89756056348E+02  0.98450285266E+03  0.00000000000E+00 0. -1.
          1    1    1    2  502    0  0.18337690915E+02 -0.15705417292E+02  0.16799283568E+04  0.16801018467E+04  0.00000000000E+00 0. -1.
         22    1    3    3    0    0 -0.82226735228E+03  0.42612886663E+03  0.51994576825E+03  0.10620984001E+04  0.00000000000E+00 0. -1.
         22    1    3    3    0    0 -0.85023247878E+02  0.30405060307E+01  0.40425940112E+02  0.94193704623E+02  0.00000000000E+00 0. -1.
</event>
<event>
 7    1  0.5018917E-005  0.2012276E+03  0.7818608E-02  0.1214146E+00
          2   -1    0    0  502    0  0.00000000000E+00  0.00000000000E+00  0.14475197747E+04  0.14475197747E+04  0.00000000000E+00 0. -1.
          1   -1    0    0  501    0 -0.00000000000E+00 -0.00000000000E+00 -0.40104297050E+03  0.40104297050E+03  0.00000000000E+00 0. -1.
         25    2    1    2    0    0  0.82455508208E+02 -0.27840719646E+03  0.32747715383E+02  0.31781639675E+03  0.12500148521E+03 0.  0.
          2    1    1    2  501    0 -0.44811000291E+02  0.85533974842E+02 -0.24157240062E+03  0.26015632097E+03  0.00000000000E+00 0. -1.
          1    1    1    2  502    0 -0.37644507917E+02  0.19287322162E+03  0.12553014895E+04  0.12705900275E+04  0.00000000000E+00 0. -1.
         22    1    3    3    0    0  0.74171097597E+01 -0.22192467971E+03  0.18447120963E+02  0.22281353921E+03  0.00000000000E+00 0. -1.
         22    1    3    3    0    0  0.75038398448E+02 -0.56482516748E+02  0.14300594420E+02  0.95002857539E+02  0.00000000000E+00 0. -1.
</event>
<event>
 7    1  0.5018917E-005  0.5361661E+03  0.7818608E-02  0.1205651E+00
          2   -1    0    0  502    0  0.00000000000E+00  0.00000000000E+00  0.12824255099E+04  0.12824255099E+04  0.00000000000E+00 0. -1.
          1   -1    0    0  501    0 -0.00000000000E+00 -0.00000000000E+00 -0.21276808925E+04  0.21276808925E+04  0.00000000000E+00 0. -1.
         25    2    1    2    0    0  0.41416204193E+03  0.28088962119E+03  0.38960597329E+03  0.64641028710E+03  0.12499707423E+03 0.  0.
          2    1    1    2  501    0 -0.43956932863E+03 -0.31137053436E+03 -0.19624435925E+04  0.20350325939E+04  0.00000000000E+00 0. -1.
          1    1    1    2  502    0  0.25407286696E+02  0.30480913173E+02  0.72758223665E+03  0.72866352137E+03  0.00000000000E+00 0. -1.
         22    1    3    3    0    0  0.16065075778E+03  0.11844969571E+03  0.23375299002E+03  0.30737510754E+03  0.00000000000E+00 0. -1.
         22    1    3    3    0    0  0.25351128415E+03  0.16243992548E+03  0.15585298327E+03  0.33903517956E+03  0.00000000000E+00 0. -1.
</event>
<event>
 7    1  0.5018917E-005  0.3317256E+03  0.7818608E-02  0.1164360E+00
          2   -1    0    0  502    0  0.00000000000E+00  0.00000000000E+00  0.22337322780E+04  0.22337322780E+04  0.00000000000E+00 0. -1.
          1   -1    0    0  501    0 -0.00000000000E+00 -0.00000000000E+00 -0.14057343336E+03  0.14057343336E+03  0.00000000000E+00 0. -1.
         25    2    1    2    0    0 -0.14437622960E+02  0.40614225734E+03  0.82203018956E+03  0.92548295371E+03  0.12500034761E+03 0.  0.
          2    1    1    2  501    0  0.18606217358E+02 -0.99904084856E+02 -0.34835900097E+02  0.10742698651E+03  0.00000000000E+00 0. -1.
          1    1    1    2  502    0 -0.41685943980E+01 -0.30623817248E+03  0.13059645552E+04  0.13413957712E+04  0.00000000000E+00 0. -1.
         22    1    3    3    0    0 -0.23893921522E+02  0.27515510528E+03  0.66934428413E+03  0.72408771716E+03  0.00000000000E+00 0. -1.
         22    1    3    3    0    0  0.94562985619E+01  0.13098715205E+03  0.15268590543E+03  0.20139523655E+03  0.00000000000E+00 0. -1.
</event>
<event>
 7    1  0.5018917E-005  0.6184995E+03  0.7818608E-02  0.1129801E+00
          2   -1    0    0  502    0  0.00000000000E+00  0.00000000000E+00  0.16581444178E+04  0.16581444178E+04  0.00000000000E+00 0. -1.
          1   -1    0    0  501    0 -0.00000000000E+00 -0.00000000000E+00 -0.22118629684E+04  0.22118629684E+04  0.00000000000E+00 0. -1.
         25    2    1    2    0    0 -0.61186159085E+03  0.50192559886E+02 -0.19582972077E+04  0.20560755914E+04  0.12499993749E+03 0.  0.
          2    1    1    2  501    0  0.66344791241E+03 -0.11427010110E+03  0.35490128159E+03  0.76103594407E+03  0.00000000000E+00 0. -1.
          1    1    1    2  502    0 -0.51586321563E+02  0.64077541212E+02  0.10496773755E+04  0.10528958507E+04  0.00000000000E+00 0. -1.
         22    1    3    3    0    0 -0.24938937983E+03  0.53227402234E+02 -0.64233418031E+03  0.69110159768E+03  0.00000000000E+00 0. -1.
         22    1    3    3    0    0 -0.36247221102E+03 -0.30348423483E+01 -0.13159630274E+04  0.13649739937E+04  0.00000000000E+00 0. -1.
</event>
<event>
 7    1  0.5018917E-005  0.3390229E+03  0.7818608E-02  0.1074547E+00
          2   -1    0    0  502    0  0.00000000000E+00  0.00000000000E+00  0.22312278639E+04  0.22312278639E+04  0.00000000000E+00 0. -1.
          1   -1    0    0  501    0 -0.00000000000E+00 -0.00000000000E+00 -0.39312728768E+03  0.39312728768E+03  0.00000000000E+00 0. -1.
         25    2    1    2    0    0 -0.14559002940E+03  0.40836754095E+03  0.10483806691E+04  0.11413533832E+04  0.12500005125E+03 0.  0.
          2    1    1    2  501    0 -0.14433030069E+03 -0.30860946739E+03 -0.23468327028E+03  0.41369950013E+03  0.00000000000E+00 0. -1.
          1    1    1    2  502    0  0.28992033009E+03 -0.99758073561E+02  0.10244031775E+04  0.10693022683E+04  0.00000000000E+00 0. -1.
         22    1    3    3    0    0 -0.10955814488E+02 -0.38121488845E+01  0.73233488019E+02  0.74146517906E+02  0.00000000000E+00 0.  1.
         22    1    3    3    0    0 -0.13463421491E+03  0.41217968984E+03  0.97514718105E+03  0.10672068653E+04  0.00000000000E+00 0.  1.
</event>
<event>
 7    1  0.5018917E-005  0.2715235E+03  0.7818608E-02  0.1244811E+00
          2   -1    0    0  502    0  0.00000000000E+00  0.00000000000E+00  0.17816002367E+04  0.17816002367E+04  0.00000000000E+00 0. -1.
          1   -1    0    0  501    0 -0.00000000000E+00 -0.00000000000E+00 -0.12923522370E+03  0.12923522370E+03  0.00000000000E+00 0. -1.
         25    2    1    2    0    0  0.89080236143E+02 -0.29462948364E+03  0.60623649422E+03  0.69129545718E+03  0.12499960442E+03 0.  0.
          2    1    1    2  501    0  0.16665839204E+01  0.52098521271E+02 -0.62320055672E+02  0.81245447624E+02  0.00000000000E+00 0. -1.
          1    1    1    2  502    0 -0.90746820063E+02  0.24253096237E+03  0.11084485745E+04  0.11382945556E+04  0.00000000000E+00 0. -1.
         22    1    3    3    0    0  0.99164266429E+02 -0.15396649444E+03  0.26557533395E+03  0.32259803340E+03  0.00000000000E+00 0. -1.
         22    1    3    3    0    0 -0.10084030287E+02 -0.14066298919E+03  0.34066116026E+03  0.36869742379E+03  0.00000000000E+00 0. -1.
</event>
<event>
 7    1  0.5018917E-005  0.3650619E+03  0.7818608E-02  0.1229652E+00
          2   -1    0    0  502    0  0.00000000000E+00  0.00000000000E+00  0.42899012278E+03  0.42899012278E+03  0.00000000000E+00 0. -1.
          1   -1    0    0  501    0 -0.00000000000E+00 -0.00000000000E+00 -0.36270838910E+04  0.36270838910E+04  0.00000000000E+00 0. -1.
         25    2    1    2    0    0 -0.38498861640E+03 -0.10525700338E+03 -0.22831096866E+03  0.47649337794E+03  0.12499907717E+03 0.  0.
          2    1    1    2  501    0  0.39983140188E+02  0.21194173348E+02 -0.31710744059E+04  0.31713972839E+04  0.00000000000E+00 0. -1.
          1    1    1    2  502    0  0.34500547621E+03  0.84062830029E+02  0.20129160635E+03  0.40818335194E+03  0.00000000000E+00 0. -1.
         22    1    3    3    0    0 -0.16095848088E+03 -0.45857347634E+02 -0.27051841896E+02  0.16953563357E+03  0.00000000000E+00 0.  1.
         22    1    3    3    0    0 -0.22403013552E+03 -0.59399655743E+02 -0.20125912676E+03  0.30695774437E+03  0.00000000000E+00 0.  1.
</event>
<event>
 7    1  0.5018917E-005  0.2296600E+03  0.7818608E-02  0.1201336E+00
          2   -1    0    0  502    0  0.00000000000E+00  0.00000000000E+00  0.16823135011E+04  0.16823135011E+04  0.00000000000E+00 0. -1.
          1   -1    0    0  501    0 -0.00000000000E+00 -0.00000000000E+00 -0.10305679980E+04  0.10305679980E+04  0.00000000000E+00 0. -1.
         25    2    1    2    0    0  0.79572161586E+02 -0.28563530973E+03 -0.16633158821E+02  0.32221120295E+03  0.12499655303E+03 0.  0.
          2    1    1    2  501    0 -0.45839307598E+01  0.22401536388E+03 -0.84499014573E+03  0.87419233699E+03  0.00000000000E+00 0. -1.
          1    1    1    2  502    0 -0.74988230826E+02  0.61619945851E+02  0.15133688076E+04  0.15164779591E+04  0.00000000000E+00 0. -1.
         22    1    3    3    0    0  0.27348881193E+02 -0.84517762944E+02 -0.63511794918E+02  0.10920147274E+03  0.00000000000E+00 0. -1.
         22    1    3    3    0    0  0.52223280393E+02 -0.20111754679E+03  0.46878636098E+02  0.21300973021E+03  0.00000000000E+00 0. -1.
</event>
<event>
 7    1  0.5018917E-005  0.9128268E+03  0.7818608E-02  0.1209000E+00
          2   -1    0    0  502    0  0.00000000000E+00  0.00000000000E+00  0.20357414937E+04  0.20357414937E+04  0.00000000000E+00 0. -1.
          1   -1    0    0  501    0 -0.00000000000E+00 -0.00000000000E+00 -0.75864641874E+03  0.75864641874E+03  0.00000000000E+00 0. -1.
         25    2    1    2    0    0 -0.31063318884E+03 -0.84441482667E+03  0.39901217191E+03  0.99215077796E+03  0.12499230119E+03 0.  0.
          2    1    1    2  501    0  0.26995343713E+01 -0.22322871940E+02 -0.30378497486E+03  0.30461600261E+03  0.00000000000E+00 0. -1.
          1    1    1    2  502    0  0.30793365447E+03  0.86673769861E+03  0.11818678779E+04  0.14976211318E+04  0.00000000000E+00 0. -1.
         22    1    3    3    0    0 -0.24384516246E+03 -0.48720138069E+03  0.24842193892E+03  0.59878135270E+03  0.00000000000E+00 0.  1.
         22    1    3    3    0    0 -0.66788026383E+02 -0.35721344598E+03  0.15059023299E+03  0.39336942526E+03  0.00000000000E+00 0.  1.
</event>
<event>
 7    1  0.5018917E-005  0.4897095E+03  0.7818608E-02  0.1119869E+00
          2   -1    0    0  502    0  0.00000000000E+00  0.00000000000E+00  0.87274428482E+03  0.87274428482E+03  0.00000000000E+00 0. -1.
          1   -1    0    0  501    0 -0.00000000000E+00 -0.00000000000E+00 -0.11594465220E+04  0.11594465220E+04  0.00000000000E+00 0. -1.
         25    2    1    2    0    0  0.50569311415E+03 -0.12275162026E+03 -0.40529170326E+03  0.67132683261E+03  0.12499946190E+03 0.  0.
          2    1    1    2  501    0 -0.18946429889E+02  0.11597117945E+03 -0.53396459144E+03  0.54674168177E+03  0.00000000000E+00 0. -1.
          1    1    1    2  502    0 -0.48674668426E+03  0.67804408131E+01  0.65255405754E+03  0.81412229243E+03  0.00000000000E+00 0. -1.
         22    1    3    3    0    0  0.44066798526E+03 -0.14827739580E+03 -0.34361828085E+03  0.57814183577E+03  0.00000000000E+00 0. -1.
         22    1    3    3    0    0  0.65025128890E+02  0.25525775533E+02 -0.61673422409E+02  0.93184996836E+02  0.00000000000E+00 0. -1.
</event>
<event>
 7    1  0.5127133E-005  0.7884452E+03  0.7818608E-02  0.1153358E+00
          2   -1    0    0  502    0  0.00000000000E+00  0.00000000000E+00  0.14613110801E+04  0.14613110801E+04  0.00000000000E+00 0. -1.
          1   -1    0    0  501    0 -0.00000000000E+00 -0.00000000000E+00 -0.20869111525E+04  0.20869111525E+04  0.00000000000E+00 0. -1.
         25    2    1    2    0    0  0.42178517004E+03 -0.62758802779E+03 -0.38289719407E+03  0.85674069365E+03  0.12499957053E+03 0.  0.
          2    1    1    2  501    0 -0.43859667113E+03  0.67319761500E+03 -0.13565152722E+04  0.15766089409E+04  0.00000000000E+00 0. -1.
          1    1    1    2  502    0  0.16811501084E+02 -0.45609587204E+02  0.11138123939E+04  0.11148725980E+04  0.00000000000E+00 0. -1.
         22    1    3    3    0    0  0.19631790462E+03 -0.29855417738E+03 -0.25085366711E+03  0.43658089607E+03  0.00000000000E+00 0.  1.
         22    1    3    3    0    0  0.22546726542E+03 -0.32903385041E+03 -0.13204352695E+03  0.42015979757E+03  0.00000000000E+00 0.  1.
</event>
<event>
 7    1  0.5018917E-005  0.4247001E+02  0.7818608E-02  0.1556528E+00
          2   -1    0    0  502    0  0.00000000000E+00  0.00000000000E+00  0.97417306752E+03  0.97417306752E+03  0.00000000000E+00 0. -1.
          1   -1    0    0  501    0 -0.00000000000E+00 -0.00000000000E+00 -0.11802797227E+04  0.11802797227E+04  0.00000000000E+00 0. -1.
         25    2    1    2    0    0 -0.23281033481E+02  0.27181641237E+00  0.69904699457E+03  0.71051647989E+03  0.12499954870E+03 0.  0.
          2    1    1    2  501    0 -0.26742443033E+02  0.60427297236E+01 -0.11720240332E+04  0.11723446623E+04  0.00000000000E+00 0. -1.
          1    1    1    2  502    0  0.50023476514E+02 -0.63145461360E+01  0.26687038346E+03  0.27159164800E+03  0.00000000000E+00 0. -1.
         22    1    3    3    0    0 -0.41394133070E+02  0.12834096376E+02  0.68001362159E+03  0.68139321528E+03  0.00000000000E+00 0. -1.
         22    1    3    3    0    0  0.18113099590E+02 -0.12562279963E+02  0.19033372982E+02  0.29123264613E+02  0.00000000000E+00 0. -1.
</event>
<event>
 7    1  0.5018917E-005  0.2766246E+03  0.7818608E-02  0.1241778E+00
          2   -1    0    0  502    0  0.00000000000E+00  0.00000000000E+00  0.50847333260E+03  0.50847333260E+03  0.00000000000E+00 0. -1.
          1   -1    0    0  501    0 -0.00000000000E+00 -0.00000000000E+00 -0.83466773043E+03  0.83466773043E+03  0.00000000000E+00 0. -1.
         25    2    1    2    0    0 -0.18422302420E+03 -0.16899837215E+03  0.13990493216E+03  0.31256397535E+03  0.12499710479E+03 0.  0.
          2    1    1    2  501    0 -0.30061553075E+02 -0.43351938517E+02 -0.66638206461E+03  0.66846701009E+03  0.00000000000E+00 0. -1.
          1    1    1    2  502    0  0.21428457728E+03  0.21235031067E+03  0.20028273463E+03  0.36211007759E+03  0.00000000000E+00 0. -1.
         22    1    3    3    0    0 -0.15106145245E+03 -0.18139349087E+03  0.14464001064E+03  0.27684633576E+03  0.00000000000E+00 0. -1.
         22    1    3    3    0    0 -0.33161571756E+02  0.12395118722E+02 -0.47350784793E+01  0.35717639587E+02  0.00000000000E+00 0. -1.
</event>
<event>
 7    1  0.5018917E-005  0.1431140E+03  0.7818608E-02  0.1213666E+00
          2   -1    0    0  502    0  0.00000000000E+00  0.00000000000E+00  0.39224041481E+03  0.39224041481E+03  0.00000000000E+00 0. -1.
          1   -1    0    0  501    0 -0.00000000000E+00 -0.00000000000E+00 -0.38794246223E+03  0.38794246223E+03  0.00000000000E+00 0. -1.
         25    2    1    2    0    0  0.16528302392E+03  0.59705899734E+02  0.70462619670E+02  0.22687769110E+03  0.12500093395E+03 0.  0.
          2    1    1    2  501    0 -0.11226121701E+03  0.77589645353E+02 -0.26962504583E+03  0.30219265254E+03  0.00000000000E+00 0. -1.
          1    1    1    2  502    0 -0.53021806911E+02 -0.13729554509E+03  0.20346037875E+03  0.25111253340E+03  0.00000000000E+00 0. -1.
         22    1    3    3    0    0  0.16728022355E+03  0.74951024166E+02  0.88186751205E+02  0.20341394323E+03  0.00000000000E+00 0. -1.
         22    1    3    3    0    0 -0.19971996260E+01 -0.15245124432E+02 -0.17724131535E+02  0.23463747867E+02  0.00000000000E+00 0. -1.
</event>
<event>
 7    1  0.5018917E-005  0.1179752E+04  0.7818608E-02  0.1147244E+00
          2   -1    0    0  502    0  0.00000000000E+00  0.00000000000E+00  0.33332756180E+04  0.33332756180E+04  0.00000000000E+00 0. -1.
          1   -1    0    0  501    0 -0.00000000000E+00 -0.00000000000E+00 -0.13389488565E+04  0.13389488565E+04  0.00000000000E+00 0. -1.
         25    2    1    2    0    0  0.32465259554E+03 -0.11267456114E+04 -0.16271478642E+03  0.11904016248E+04  0.12499978460E+03 0.  0.
          2    1    1    2  501    0 -0.29805038465E+03  0.11493750930E+04 -0.13002571247E+03  0.11944889377E+04  0.00000000000E+00 0. -1.
          1    1    1    2  502    0 -0.26602210893E+02 -0.22629481654E+02  0.22870672605E+04  0.22873339120E+04  0.00000000000E+00 0. -1.
         22    1    3    3    0    0  0.95785300550E+02 -0.18221980695E+03 -0.51459910931E+02  0.21219567450E+03  0.00000000000E+00 0.  1.
         22    1    3    3    0    0  0.22886729499E+03 -0.94452580443E+03 -0.11125487549E+03  0.97820595033E+03  0.00000000000E+00 0.  1.
</event>
<event>
 7    1  0.5018917E-005  0.2013000E+04  0.7818608E-02  0.1049045E+00
          2   -1    0    0  502    0  0.00000000000E+00  0.00000000000E+00  0.22713691049E+04  0.22713691049E+04  0.00000000000E+00 0. -1.
          1   -1    0    0  501    0 -0.00000000000E+00 -0.00000000000E+00 -0.32856125879E+04  0.32856125879E+04  0.00000000000E+00 0. -1.
         25    2    1    2    0    0  0.16794996500E+03 -0.20310805665E+04  0.47196106324E+03  0.20956782932E+04  0.12499921991E+03 0.  0.
          2    1    1    2  501    0  0.43179941251E+02  0.59717127248E+02 -0.14768065815E+04  0.14786440822E+04  0.00000000000E+00 0. -1.
          1    1    1    2  502    0 -0.21112990625E+03  0.19713634393E+04 -0.93979647229E+01  0.19826593174E+04  0.00000000000E+00 0. -1.
         22    1    3    3    0    0  0.49792386702E+02 -0.97983205353E+03  0.17154481481E+03  0.99598080222E+03  0.00000000000E+00 0.  1.
         22    1    3    3    0    0  0.11815757830E+03 -0.10512485130E+04  0.30041624843E+03  0.10996974910E+04  0.00000000000E+00 0.  1.
</event>
<event>
 7    1  0.5018917E-005  0.2668896E+03  0.7818608E-02  0.1238540E+00
          2   -1    0    0  502    0  0.00000000000E+00  0.00000000000E+00  0.46505662244E+03  0.46505662244E+03  0.00000000000E+00 0. -1.
          1   -1    0    0  501    0 -0.00000000000E+00 -0.00000000000E+00 -0.46841129600E+03  0.46841129600E+03  0.00000000000E+00 0. -1.
         25    2    1    2    0    0 -0.27782592412E+03  0.21208321636E+02  0.22135870805E+03  0.37717438491E+03  0.12499520784E+03 0.  0.
          2    1    1    2  501    0  0.24898078780E+02 -0.50725655284E+02 -0.28833652422E+03  0.29382130221E+03  0.00000000000E+00 0. -1.
          1    1    1    2  502    0  0.25292784534E+03  0.29517333648E+02  0.63623142616E+02  0.26247223131E+03  0.00000000000E+00 0. -1.
         22    1    3    3    0    0 -0.15353295917E+03  0.57890100479E+02  0.17409043966E+03  0.23923025408E+03  0.00000000000E+00 0. -1.
         22    1    3    3    0    0 -0.12429296495E+03 -0.36681778843E+02  0.47268268392E+02  0.13794413083E+03  0.00000000000E+00 0. -1.
</event>
<event>
 7    1  0.5018917E-005  0.5350267E+03  0.7818608E-02  0.1257789E+00
          2   -1    0    0  502    0  0.00000000000E+00  0.00000000000E+00  0.14334789972E+04  0.14334789972E+04  0.00000000000E+00 0. -1.
          1   -1    0    0  501    0 -0.00000000000E+00 -0.00000000000E+00 -0.13076189244E+04  0.13076189244E+04  0.00000000000E+00 0. -1.
         25    2    1    2    0    0  0.12025811208E+03 -0.52739621348E+03  0.50750850616E+03  0.75219582423E+03  0.12499957855E+03 0.  0.
          2    1    1    2  501    0 -0.22584535404E+02  0.54934308413E+01 -0.10974355595E+04  0.10976816689E+04  0.00000000000E+00 0. -1.
          1    1    1    2  502    0 -0.97673576680E+02  0.52190278264E+03  0.71578712616E+03  0.89122042845E+03  0.00000000000E+00 0. -1.
         22    1    3    3    0    0  0.55340624799E+01  0.34912938352E+01 -0.26266657626E+01  0.70508406027E+01  0.00000000000E+00 0.  1.
         22    1    3    3    0    0  0.11472404960E+03 -0.53088750732E+03  0.51013517193E+03  0.74514498362E+03  0.00000000000E+00 0.  1.
</event>
<event>
 7    1  0.5018917E-005  0.9834062E+03  0.7818608E-02  0.1155272E+00
          2   -1    0    0  502    0  0.00000000000E+00  0.00000000000E+00  0.16313933633E+04  0.16313933633E+04  0.00000000000E+00 0. -1.
          1   -1    0    0  501    0 -0.00000000000E+00 -0.00000000000E+00 -0.81773355531E+03  0.81773355531E+03  0.00000000000E+00 0. -1.
         25    2    1    2    0    0 -0.34775282197E+03 -0.92869796588E+03  0.29163585963E+02  0.99994221164E+03  0.12498789885E+03 0.  0.
          2    1    1    2  501    0  0.37116760969E+03  0.89863523788E+03  0.38157630125E+03  0.10444669257E+04  0.00000000000E+00 0. -1.
          1    1    1    2  502    0 -0.23414787724E+02  0.30062727999E+02  0.40291992082E+03  0.40471778129E+03  0.00000000000E+00 0. -1.
         22    1    3    3    0    0 -0.23075305213E+03 -0.44835257276E+03  0.35684780915E+02  0.50551004358E+03  0.00000000000E+00 0.  1.
         22    1    3    3    0    0 -0.11699976984E+03 -0.48034539312E+03 -0.65211949522E+01  0.49443216807E+03  0.00000000000E+00 0.  1.
</event>
<event>
 7    1  0.5018917E-005  0.2961798E+03  0.7818608E-02  0.1147440E+00
          2   -1    0    0  502    0  0.00000000000E+00  0.00000000000E+00  0.28917657390E+03  0.28917657390E+03  0.00000000000E+00 0. -1.
          1   -1    0    0  501    0 -0.00000000000E+00 -0.00000000000E+00 -0.12482877680E+04  0.12482877680E+04  0.00000000000E+00 0. -1.
         25    2    1    2    0    0 -0.26235300522E+03  0.27123987647E+03 -0.67710697909E+03  0.78517652190E+03  0.12501255726E+03 0.  0.
          2    1    1    2  501    0  0.20391386962E+03 -0.14535085114E+03 -0.46169737554E+03  0.52523537841E+03  0.00000000000E+00 0. -1.
          1    1    1    2  502    0  0.58439135608E+02 -0.12588902532E+03  0.17969316056E+03  0.22705244157E+03  0.00000000000E+00 0. -1.
         22    1    3    3    0    0 -0.23446125123E+03  0.27701638912E+03 -0.65609784271E+03  0.74978299353E+03  0.00000000000E+00 0.  1.
         22    1    3    3    0    0 -0.27891753992E+02 -0.57765126551E+01 -0.21009136376E+02  0.35393528370E+02  0.00000000000E+00 0.  1.
</event>
<event>
 7    1  0.5018917E-005  0.7436708E+03  0.7818608E-02  0.1180654E+00
          2   -1    0    0  502    0  0.00000000000E+00  0.00000000000E+00  0.76499590205E+03  0.76499590205E+03  0.00000000000E+00 0. -1.
          1   -1    0    0  501    0 -0.00000000000E+00 -0.00000000000E+00 -0.10177830042E+04  0.10177830042E+04  0.00000000000E+00 0. -1.
         25    2    1    2    0    0  0.69944984386E+03 -0.17720662579E+03 -0.27984687440E+03  0.78394411039E+03  0.12498729058E+03 0.  0.
          2    1    1    2  501    0  0.36744089854E+02  0.82243800830E+01 -0.20517465516E+03  0.20860107307E+03  0.00000000000E+00 0. -1.
          1    1    1    2  502    0 -0.73619393371E+03  0.16898224570E+03  0.23223442739E+03  0.79023372281E+03  0.00000000000E+00 0. -1.
         22    1    3    3    0    0  0.11941079236E+03 -0.33826587155E+02  0.11467186847E+00  0.12410958255E+03  0.00000000000E+00 0. -1.
         22    1    3    3    0    0  0.58003905150E+03 -0.14338003863E+03 -0.27996154627E+03  0.65983452784E+03  0.00000000000E+00 0. -1.
</event>
<event>
 7    1  0.5018917E-005  0.9919170E+03  0.7818608E-02  0.1069422E+00
          2   -1    0    0  502    0  0.00000000000E+00  0.00000000000E+00  0.23467245109E+04  0.23467245109E+04  0.00000000000E+00 0. -1.
          1   -1    0    0  501    0 -0.00000000000E+00 -0.00000000000E+00 -0.14089846802E+04  0.14089846802E+04  0.00000000000E+00 0. -1.
         25    2    1    2    0    0  0.96350195356E+03 -0.47608490561E+03 -0.15990210125E+03  0.10937034726E+04  0.12500300875E+03 0.  0.
          2    1    1    2  501    0 -0.11239992853E+03 -0.38663413737E+00 -0.65050919241E+03  0.66014854604E+03  0.00000000000E+00 0. -1.
          1    1    1    2  502    0 -0.85110202502E+03  0.47647153975E+03  0.17481511244E+04  0.20018571724E+04  0.00000000000E+00 0. -1.
         22    1    3    3    0    0  0.61117472665E+03 -0.36733961256E+03 -0.11404961528E+03  0.72213589593E+03  0.00000000000E+00 0.  1.
         22    1    3    3    0    0  0.35232722691E+03 -0.10874529305E+03 -0.45852485966E+02  0.37156757669E+03  0.00000000000E+00 0.  1.
</event>
<event>
 7    1  0.5018917E-005  0.1171753E+04  0.7818608E-02  0.1160689E+00
          2   -1    0    0  502    0  0.00000000000E+00  0.00000000000E+00  0.20379414258E+04  0.20379414258E+04  0.00000000000E+00 0. -1.
          1   -1    0    0  501    0 -0.00000000000E+00 -0.00000000000E+00 -0.84118118860E+03  0.84118118860E+03  0.00000000000E+00 0. -1.
         25    2    1    2    0    0 -0.11820898440E+04 -0.90017692210E+01  0.48308852585E+03  0.12831297899E+04  0.12502040956E+03 0.  0.
          2    1    1    2  501    0  0.17946715758E+02  0.24063918394E+02 -0.14581110867E+03  0.14886919153E+03  0.00000000000E+00 0. -1.
          1    1    1    2  502    0  0.11641431282E+04 -0.15062149173E+02  0.85948281999E+03  0.14471236330E+04  0.00000000000E+00 0. -1.
         22    1    3    3    0    0 -0.76398628734E+03  0.27742001203E+02  0.36478038090E+03  0.84705926130E+03  0.00000000000E+00 0.  1.
         22    1    3    3    0    0 -0.41810355662E+03 -0.36743770424E+02  0.11830814496E+03  0.43607052856E+03  0.00000000000E+00 0.  1.
</event>
<event>
 7    1  0.5018917E-005  0.6980794E+03  0.7818608E-02  0.1140597E+00
          2   -1    0    0  502    0  0.00000000000E+00  0.00000000000E+00  0.14948080387E+04  0.14948080387E+04  0.00000000000E+00 0. -1.
          1   -1    0    0  501    0 -0.00000000000E+00 -0.00000000000E+00 -0.14414410012E+04  0.14414410012E+04  0.00000000000E+00 0. -1.
         25    2    1    2    0    0 -0.14185496247E+03 -0.73073049285E+03 -0.93993824105E+02  0.76062337923E+03  0.12499280984E+03 0.  0.
          2    1    1    2  501    0 -0.15882521151E+02  0.61909724079E+02 -0.91127812778E+03  0.91351677302E+03  0.00000000000E+00 0. -1.
          1    1    1    2  502    0  0.15773748362E+03  0.66882076877E+03  0.10586389893E+04  0.12621088876E+04  0.00000000000E+00 0. -1.
         22    1    3    3    0    0 -0.10209409241E+03 -0.24476401414E+03 -0.59626420539E+02  0.27182335505E+03  0.00000000000E+00 0. -1.
         22    1    3    3    0    0 -0.39760870060E+02 -0.48596647871E+03 -0.34367403566E+02  0.48880002418E+03  0.00000000000E+00 0. -1.
</event>
<event>
 7    1  0.5018917E-005  0.7206067E+03  0.7818608E-02  0.1151069E+00
          2   -1    0    0  502    0  0.00000000000E+00  0.00000000000E+00  0.83988679350E+03  0.83988679350E+03  0.00000000000E+00 0. -1.
          1   -1    0    0  501    0 -0.00000000000E+00 -0.00000000000E+00 -0.18398931088E+04  0.18398931088E+04  0.00000000000E+00 0. -1.
         25    2    1    2    0    0  0.64573417736E+03  0.29013175882E+03 -0.61766887875E+03  0.94778117625E+03  0.12500099603E+03 0.  0.
          2    1    1    2  501    0 -0.64467444569E+03 -0.34476319428E+03 -0.92925253597E+03  0.11823608065E+04  0.00000000000E+00 0. -1.
          1    1    1    2  502    0 -0.10597316635E+01  0.54631435461E+02  0.54691509937E+03  0.54963791963E+03  0.00000000000E+00 0. -1.
         22    1    3    3    0    0  0.17083987276E+03  0.25505133468E+02 -0.18379641227E+03  0.25222588115E+03  0.00000000000E+00 0. -1.
         22    1    3    3    0    0  0.47489430459E+03  0.26462662535E+03 -0.43387246648E+03  0.69555529510E+03  0.00000000000E+00 0. -1.
</event>
<event>
 7    1  0.5018917E-005  0.1631795E+03  0.7818608E-02  0.1299285E+00
          2   -1    0    0  502    0  0.00000000000E+00  0.00000000000E+00  0.10545994568E+04  0.10545994568E+04  0.00000000000E+00 0. -1.
          1   -1    0    0  501    0 -0.00000000000E+00 -0.00000000000E+00 -0.20688982885E+03  0.20688982885E+03  0.00000000000E+00 0. -1.
         25    2    1    2    0    0  0.16030790838E+03  0.13307792393E+03  0.26336694648E+03  0.35831983548E+03  0.12499038632E+03 0.  0.
          2    1    1    2  501    0 -0.12489959701E+03 -0.95964201285E+02 -0.11934388842E+03  0.19761579129E+03  0.00000000000E+00 0. -1.
          1    1    1    2  502    0 -0.35408311370E+02 -0.37113722641E+02  0.70368656988E+03  0.70555365888E+03  0.00000000000E+00 0. -1.
         22    1    3    3    0    0  0.85760685217E+02  0.14966663630E+02  0.42206367977E+02  0.96748507207E+02  0.00000000000E+00 0. -1.
         22    1    3    3    0    0  0.74547223167E+02  0.11811126030E+03  0.22116057850E+03  0.26157132827E+03  0.00000000000E+00 0. -1.
</event>
<event>
 7    1  0.5018917E-005  0.1153028E+03  0.7818608E-02  0.1309096E+00
          2   -1    0    0  502    0  0.00000000000E+00  0.00000000000E+00  0.22722680650E+03  0.22722680650E+03  0.00000000000E+00 0. -1.
          1   -1    0    0  501    0 -0.00000000000E+00 -0.00000000000E+00 -0.21857253467E+03  0.21857253467E+03  0.00000000000E+00 0. -1.
         25    2    1    2    0    0 -0.28958630869E+02 -0.14403681157E+03  0.21193028273E+02  0.19405794498E+03  0.12499654464E+03 0.  0.
          2    1    1    2  501    0  0.65644355861E+02  0.88743668194E+02 -0.95182806347E+02  0.14575454273E+03  0.00000000000E+00 0. -1.
          1    1    1    2  502    0 -0.36685724992E+02  0.55293143380E+02  0.82644049905E+02  0.10598685347E+03  0.00000000000E+00 0. -1.
         22    1    3    3    0    0 -0.20560073649E+02  0.61867105163E+01 -0.28431117880E+02  0.35627524182E+02  0.00000000000E+00 0. -1.
         22    1    3    3    0    0 -0.83985572201E+01 -0.15022352209E+03  0.49624146153E+02  0.15843042080E+03  0.00000000000E+00 0. -1.
</event>
<event>
 7    1  0.5018917E-005  0.1333482E+04  0.7818608E-02  0.1066954E+00
          2   -1    0    0  502    0  0.00000000000E+00  0.00000000000E+00  0.36575549623E+04  0.36575549623E+04  0.00000000000E+00 0. -1.
          1   -1    0    0  501    0 -0.00000000000E+00 -0.00000000000E+00 -0.11848175527E+04  0.11848175527E+04  0.00000000000E+00 0. -1.
         25    2    1    2    0    0 -0.68380755343E+03  0.11222497755E+04  0.10225585017E+04  0.16698167359E+04  0.12499885383E+03 0.  0.
          2    1    1    2  501    0  0.54107125618E+02  0.67490371227E+02 -0.66214811816E+03  0.66777440923E+03  0.00000000000E+00 0. -1.
          1    1    1    2  502    0  0.62970042781E+03 -0.11897401467E+04  0.21123270261E+04  0.25047813698E+04  0.00000000000E+00 0. -1.
         22    1    3    3    0    0 -0.47502213156E+03  0.66856980825E+03  0.65864140792E+03  0.10518745734E+04  0.00000000000E+00 0. -1.
         22    1    3    3    0    0 -0.20878542187E+03  0.45367996721E+03  0.36391709377E+03  0.61794216248E+03  0.00000000000E+00 0. -1.
</event>
<event>
 7    1  0.5018917E-005  0.2845801E+03  0.7818608E-02  0.1150868E+00
          2   -1    0    0  502    0  0.00000000000E+00  0.00000000000E+00  0.42193921402E+03  0.42193921402E+03  0.00000000000E+00 0. -1.
          1   -1    0    0  501    0 -0.00000000000E+00 -0.00000000000E+00 -0.15403058471E+04  0.15403058471E+04  0.00000000000E+00 0. -1.
         25    2    1    2    0    0  0.32950236906E+03 -0.20944143290E+03 -0.36390336962E+03  0.54816787082E+03  0.12499930856E+03 0.  0.
          2    1    1    2  501    0 -0.24823280544E+03  0.97055712779E+02 -0.10523011931E+04  0.10855308094E+04  0.00000000000E+00 0. -1.
          1    1    1    2  502    0 -0.81269563626E+02  0.11238572012E+03  0.29783792967E+03  0.32854638091E+03  0.00000000000E+00 0. -1.
         22    1    3    3    0    0  0.96792663968E+02 -0.48003037371E+02 -0.33780994489E+02  0.11320011919E+03  0.00000000000E+00 0. -1.
         22    1    3    3    0    0  0.23270970510E+03 -0.16143839553E+03 -0.33012237513E+03  0.43496775163E+03  0.00000000000E+00 0. -1.
</event>
<event>
 7    1  0.5018917E-005  0.1982160E+03  0.7818608E-02  0.1290082E+00
          2   -1    0    0  502    0  0.00000000000E+00  0.00000000000E+00  0.84407543995E+02  0.84407543995E+02  0.00000000000E+00 0. -1.
          1   -1    0    0  501    0 -0.00000000000E+00 -0.00000000000E+00 -0.27597275489E+04  0.27597275489E+04  0.00000000000E+00 0. -1.
         25    2    1    2    0    0 -0.29408631566E+02 -0.22678986097E+03 -0.29739233218E+03  0.39543142480E+03  0.12500121532E+03 0.  0.
          2    1    1    2  501    0  0.54453436069E+02  0.18820594279E+03 -0.23924554636E+04  0.24004644965E+04  0.00000000000E+00 0. -1.
          1    1    1    2  502    0 -0.25044804504E+02  0.38583918181E+02  0.14527790833E+02  0.48239171648E+02  0.00000000000E+00 0. -1.
         22    1    3    3    0    0 -0.33192152181E+02 -0.19192403926E+02 -0.10722499517E+03  0.11387390801E+03  0.00000000000E+00 0.  1.
         22    1    3    3    0    0  0.37835206154E+01 -0.20759745704E+03 -0.19016733701E+03  0.28155751679E+03  0.00000000000E+00 0.  1.
</event>
<event>
 7    1  0.5018917E-005  0.3104329E+03  0.7818608E-02  0.1162373E+00
          2   -1    0    0  502    0  0.00000000000E+00  0.00000000000E+00  0.44330041515E+03  0.44330041515E+03  0.00000000000E+00 0. -1.
          1   -1    0    0  501    0 -0.00000000000E+00 -0.00000000000E+00 -0.78704686315E+03  0.78704686315E+03  0.00000000000E+00 0. -1.
         25    2    1    2    0    0  0.18092313935E+03  0.19002006609E+03  0.76243799695E+01  0.29072674864E+03  0.12499241311E+03 0.  0.
          2    1    1    2  501    0 -0.31335806194E+01  0.11107332497E+03 -0.53378870342E+03  0.54523158634E+03  0.00000000000E+00 0. -1.
          1    1    1    2  502    0 -0.17778955873E+03 -0.30109339106E+03  0.18241787545E+03  0.39438894333E+03  0.00000000000E+00 0. -1.
         22    1    3    3    0    0  0.17783937906E+03  0.11026177982E+03  0.18974072389E+02  0.21010597387E+03  0.00000000000E+00 0. -1.
         22    1    3    3    0    0  0.30837602947E+01  0.79758286275E+02 -0.11349692420E+02  0.80620774774E+02  0.00000000000E+00 0. -1.
</event>
<event>
 7    1  0.5018917E-005  0.2364728E+03  0.7818608E-02  0.1241450E+00
          2   -1    0    0  502    0  0.00000000000E+00  0.00000000000E+00  0.53868562853E+03  0.53868562853E+03  0.00000000000E+00 0. -1.
          1   -1    0    0  501    0 -0.00000000000E+00 -0.00000000000E+00 -0.71241516375E+03  0.71241516375E+03  0.00000000000E+00 0. -1.
         25    2    1    2    0    0 -0.26096409826E+03 -0.11216081136E+03  0.77572918030E+02  0.31987985623E+03  0.12499302631E+03 0.  0.
          2    1    1    2  501    0  0.57451906033E+02  0.23089429647E+02 -0.55305690114E+03  0.55651215546E+03  0.00000000000E+00 0. -1.
          1    1    1    2  502    0  0.20351219223E+03  0.89071381715E+02  0.30175444790E+03  0.37470878059E+03  0.00000000000E+00 0. -1.
         22    1    3    3    0    0 -0.16858832706E+03 -0.23108989869E+02  0.43062449370E+00  0.17016531630E+03  0.00000000000E+00 0. -1.
         22    1    3    3    0    0 -0.92375771199E+02 -0.89051821493E+02  0.77142293536E+02  0.14971453993E+03  0.00000000000E+00 0. -1.
</event>
<event>
 7    1  0.5018917E-005  0.2853780E+03  0.7818608E-02  0.1111519E+00
          2   -1    0    0  502    0  0.00000000000E+00  0.00000000000E+00  0.28165973602E+03  0.28165973602E+03  0.00000000000E+00 0. -1.
          1   -1    0    0  501    0 -0.00000000000E+00 -0.00000000000E+00 -0.25976907735E+04  0.25976907735E+04  0.00000000000E+00 0. -1.
         25    2    1    2    0    0 -0.29586703744E+03 -0.76245620538E+02 -0.60926863959E+02  0.33569004008E+03  0.12500008704E+03 0.  0.
          2    1    1    2  501    0  0.13005003243E+03 -0.18240979894E+03 -0.22235447145E+04  0.22348014326E+04  0.00000000000E+00 0. -1.
          1    1    1    2  502    0  0.16581700501E+03  0.25865541947E+03 -0.31559458994E+02  0.30885903682E+03  0.00000000000E+00 0. -1.
         22    1    3    3    0    0 -0.30043088412E+02  0.13958044913E+02 -0.43172197191E+02  0.54417394181E+02  0.00000000000E+00 0. -1.
         22    1    3    3    0    0 -0.26582394903E+03 -0.90203665451E+02 -0.17754666768E+02  0.28127264590E+03  0.00000000000E+00 0. -1.
</event>
<event>
 7    1  0.5018917E-005  0.4064889E+03  0.7818608E-02  0.1123519E+00
          2   -1    0    0  502    0  0.00000000000E+00  0.00000000000E+00  0.21351241270E+04  0.21351241270E+04  0.00000000000E+00 0. -1.
          1   -1    0    0  501    0 -0.00000000000E+00 -0.00000000000E+00 -0.21463243228E+03  0.21463243228E+03  0.00000000000E+00 0. -1.
         25    2    1    2    0    0 -0.12970285899E+03  0.49174911010E+03  0.77860618950E+03  0.93834592609E+03  0.12500183909E+03 0.  0.
          2    1    1    2  501    0  0.80125576765E+02 -0.36589205275E+03  0.13912244022E+03  0.39956495804E+03  0.00000000000E+00 0. -1.
          1    1    1    2  502    0  0.49577282229E+02 -0.12585705735E+03  0.10027630650E+04  0.10118456752E+04  0.00000000000E+00 0. -1.
         22    1    3    3    0    0 -0.49685854464E+02  0.62077475686E+02  0.70752372244E+02  0.10643399504E+03  0.00000000000E+00 0.  1.
         22    1    3    3    0    0 -0.80017004530E+02  0.42967163441E+03  0.70785381725E+03  0.83191193106E+03  0.00000000000E+00 0.  1.
</event>
<event>
 7    1  0.6266822E-005  0.7905555E+02  0.7818608E-02  0.1414097E+00
          2   -1    0    0  502    0  0.00000000000E+00  0.00000000000E+00  0.21252514982E+04  0.21252514982E+04  0.00000000000E+00 0. -1.
          1   -1    0    0  501    0 -0.00000000000E+00 -0.00000000000E+00 -0.25939251989E+04  0.25939251989E+04  0.00000000000E+00 0. -1.
         25    2    1    2    0    0 -0.22702815820E+02 -0.74030458761E+02 -0.44705346795E+03  0.47061437148E+03  0.12500062707E+03 0.  0.
          2    1    1    2  501    0  0.39956507359E+02 -0.31387327772E+01 -0.21341634229E+04  0.21345397372E+04  0.00000000000E+00 0. -1.
          1    1    1    2  502    0 -0.17253691539E+02  0.77169191538E+02  0.21125431902E+04  0.21140225884E+04  0.00000000000E+00 0. -1.
         22    1    3    3    0    0 -0.58573262054E+02  0.35590408319E+01 -0.22915267415E+03  0.23654691262E+03  0.00000000000E+00 0. -1.
         22    1    3    3    0    0  0.35870446233E+02 -0.77589499593E+02 -0.21790079380E+03  0.23406745886E+03  0.00000000000E+00 0. -1.
</event>
<event>
 7    1  0.5018917E-005  0.5799073E+03  0.7818608E-02  0.1114767E+00
          2   -1    0    0  502    0  0.00000000000E+00  0.00000000000E+00  0.53463176465E+03  0.53463176465E+03  0.00000000000E+00 0. -1.
          1   -1    0    0  501    0 -0.00000000000E+00 -0.00000000000E+00 -0.20684955735E+04  0.20684955735E+04  0.00000000000E+00 0. -1.
         25    2    1    2    0    0  0.46700194828E+03  0.36255437163E+03  0.24084560615E+03  0.65051680526E+03  0.12501606229E+03 0.  0.
          2    1    1    2  501    0  0.70596250993E+01 -0.10556605652E+03 -0.10176743196E+04  0.10231593480E+04  0.00000000000E+00 0. -1.
          1    1    1    2  502    0 -0.47406157338E+03 -0.25698831511E+03 -0.75703509541E+03  0.92945118492E+03  0.00000000000E+00 0. -1.
         22    1    3    3    0    0  0.15757223380E+03  0.17707949151E+03  0.49486125192E+02  0.24214671537E+03  0.00000000000E+00 0.  1.
         22    1    3    3    0    0  0.30942971448E+03  0.18547488012E+03  0.19135948096E+03  0.40837008989E+03  0.00000000000E+00 0.  1.
</event>
<event>
 7    1  0.5018917E-005  0.1164956E+04  0.7818608E-02  0.1106058E+00
          2   -1    0    0  502    0  0.00000000000E+00  0.00000000000E+00  0.11320027064E+04  0.11320027064E+04  0.00000000000E+00 0. -1.
          1   -1    0    0  501    0 -0.00000000000E+00 -0.00000000000E+00 -0.51691383749E+04  0.51691383749E+04  0.00000000000E+00 0. -1.
         25    2    1    2    0    0 -0.11885573699E+04  0.23982127605E+03 -0.16935037923E+04  0.20865674368E+04  0.12500283043E+03 0.  0.
          2    1    1    2  501    0  0.58672936555E+02  0.44429838693E+01 -0.29215727539E+04  0.29221652263E+04  0.00000000000E+00 0. -1.
          1    1    1    2  502    0  0.11298844334E+04 -0.24426425992E+03  0.57794087763E+03  0.12924084182E+04  0.00000000000E+00 0. -1.
         22    1    3    3    0    0 -0.11596067158E+04  0.25338374253E+03 -0.16493245587E+04  0.20320340933E+04  0.00000000000E+00 0. -1.
         22    1    3    3    0    0 -0.28950654130E+02 -0.13562466483E+02 -0.44179233619E+02  0.54533343514E+02  0.00000000000E+00 0. -1.
</event>
<event>
 7    1  0.5018917E-005  0.3376741E+03  0.7818608E-02  0.1122315E+00
          2   -1    0    0  502    0  0.00000000000E+00  0.00000000000E+00  0.11206744425E+04  0.11206744425E+04  0.00000000000E+00 0. -1.
          1   -1    0    0  501    0 -0.00000000000E+00 -0.00000000000E+00 -0.10653472230E+04  0.10653472230E+04  0.00000000000E+00 0. -1.
         25    2    1    2    0    0  0.25507938285E+03  0.42041427673E+03 -0.27304187206E+03  0.57618585113E+03  0.12499846206E+03 0.  0.
          2    1    1    2  501    0 -0.98616401816E+02 -0.13265252269E+03 -0.60158673761E+03  0.62388179117E+03  0.00000000000E+00 0. -1.
          1    1    1    2  502    0 -0.15646298103E+03 -0.28776175404E+03  0.92995582916E+03  0.98595402312E+03  0.00000000000E+00 0. -1.
         22    1    3    3    0    0  0.14343764728E+03  0.16539494156E+03 -0.17755608577E+03  0.28187942271E+03  0.00000000000E+00 0.  1.
         22    1    3    3    0    0  0.11164173556E+03  0.25501933517E+03 -0.95485786288E+02  0.29430642842E+03  0.00000000000E+00 0.  1.
</event>
<event>
 7    1  0.5018917E-005  0.5567483E+02  0.7818608E-02  0.1417903E+00
          2   -1    0    0  502    0  0.00000000000E+00  0.00000000000E+00  0.77783870576E+03  0.77783870576E+03  0.00000000000E+00 0. -1.
          1   -1    0    0  501    0 -0.00000000000E+00 -0.00000000000E+00 -0.21608972293E+03  0.21608972293E+03  0.00000000000E+00 0. -1.
         25    2    1    2    0    0 -0.22125365028E+02 -0.26018124204E+01  0.19966144285E+03  0.23661975633E+03  0.12501166395E+03 0.  0.
          2    1    1    2  501    0  0.20814295641E+02 -0.52642884972E+02 -0.19215409599E+03  0.20031900770E+03  0.00000000000E+00 0. -1.
          1    1    1    2  502    0  0.13110693870E+01  0.55244697392E+02  0.55424163597E+03  0.55698966465E+03  0.00000000000E+00 0. -1.
         22    1    3    3    0    0  0.32567292298E+01  0.50295152939E+02  0.33794548011E+02  0.60681794385E+02  0.00000000000E+00 0. -1.
         22    1    3    3    0    0 -0.25382094258E+02 -0.52896965360E+02  0.16586689483E+03  0.17593796195E+03  0.00000000000E+00 0. -1.
</event>
<event>
 7    1  0.5018917E-005  0.4102899E+03  0.7818608E-02  0.1270184E+00
          2   -1    0    0  502    0  0.00000000000E+00  0.00000000000E+00  0.16633845379E+04  0.16633845379E+04  0.00000000000E+00 0. -1.
          1   -1    0    0  501    0 -0.00000000000E+00 -0.00000000000E+00 -0.74914790777E+03  0.74914790777E+03  0.00000000000E+00 0. -1.
         25    2    1    2    0    0  0.54260678661E+02  0.40399177652E+03  0.51055500588E+03  0.66516550593E+03  0.12500063803E+03 0.  0.
          2    1    1    2  501    0 -0.81077847177E+02 -0.40257541317E+03 -0.60889500011E+03  0.73443427327E+03  0.00000000000E+00 0. -1.
          1    1    1    2  502    0  0.26817168517E+02 -0.14163633440E+01  0.10125766243E+04  0.10129326664E+04  0.00000000000E+00 0. -1.
         22    1    3    3    0    0  0.25794046596E+02  0.53086749407E+02  0.15019629417E+03  0.16137677214E+03  0.00000000000E+00 0. -1.
         22    1    3    3    0    0  0.28466632064E+02  0.35090502711E+03  0.36035871171E+03  0.50378873379E+03  0.00000000000E+00 0. -1.
</event>
<event>
 7    1  0.5018917E-005  0.3220843E+03  0.7818608E-02  0.1179651E+00
          2   -1    0    0  502    0  0.00000000000E+00  0.00000000000E+00  0.32778027835E+04  0.32778027835E+04  0.00000000000E+00 0. -1.
          1   -1    0    0  501    0 -0.00000000000E+00 -0.00000000000E+00 -0.16119920764E+04  0.16119920764E+04  0.00000000000E+00 0. -1.
         25    2    1    2    0    0  0.20633355136E+03 -0.23518521694E+03  0.12027492466E+04  0.12490464307E+04  0.12500246047E+03 0.  0.
          2    1    1    2  501    0 -0.13848180500E+03  0.29110304308E+03 -0.15715330165E+04  0.16042550339E+04  0.00000000000E+00 0. -1.
          1    1    1    2  502    0 -0.67851746363E+02 -0.55917826142E+02  0.20345944771E+04  0.20364933952E+04  0.00000000000E+00 0. -1.
         22    1    3    3    0    0  0.14435563326E+03 -0.17421516182E+03  0.62292800515E+03  0.66274336743E+03  0.00000000000E+00 0. -1.
         22    1    3    3    0    0  0.61977918095E+02 -0.60970055117E+02  0.57982124142E+03  0.58630306323E+03  0.00000000000E+00 0. -1.
</event>
<event>
 7    1  0.5018917E-005  0.8106181E+03  0.7818608E-02  0.1059582E+00
          2   -1    0    0  502    0  0.00000000000E+00  0.00000000000E+00  0.23124199258E+04  0.23124199258E+04  0.00000000000E+00 0. -1.
          1   -1    0    0  501    0 -0.00000000000E+00 -0.00000000000E+00 -0.18892745727E+04  0.18892745727E+04  0.00000000000E+00 0. -1.
         25    2    1    2    0    0 -0.79467542530E+03 -0.16991893100E+03  0.18822711328E+04  0.20540084856E+04  0.12499906642E+03 0.  0.
          2    1    1    2  501    0  0.48182651596E+02 -0.15011336689E+03 -0.13130151766E+04  0.13224463864E+04  0.00000000000E+00 0. -1.
          1    1    1    2  502    0  0.74649277370E+03  0.32003229789E+03 -0.14611060309E+03  0.82523962654E+03  0.00000000000E+00 0. -1.
         22    1    3    3    0    0 -0.20868789978E+03  0.10038596834E+02  0.50164984254E+03  0.54341878645E+03  0.00000000000E+00 0. -1.
         22    1    3    3    0    0 -0.58598752552E+03 -0.17995752783E+03  0.13806212903E+04  0.15105896991E+04  0.00000000000E+00 0. -1.
</event>
<event>
 7    1  0.5018917E-005  0.6258549E+03  0.7818608E-02  0.1106392E+00
          2   -1    0    0  502    0  0.00000000000E+00  0.00000000000E+00  0.23310261447E+04  0.23310261447E+04  0.00000000000E+00 0. -1.
          1   -1    0    0  501    0 -0.00000000000E+00 -0.00000000000E+00 -0.69741340103E+03  0.69741340103E+03  0.00000000000E+00 0. -1.
         25    2    1    2    0    0  0.18844120106E+03 -0.65380902849E+03  0.11898913320E+04  0.13763872884E+04  0.12499701541E+03 0.  0.
          2    1    1    2  501    0 -0.64647099238E+02  0.87830715018E+02 -0.51797160711E+03  0.52932793967E+03  0.00000000000E+00 0. -1.
          1    1    1    2  502    0 -0.12379410182E+03  0.56597831347E+03  0.96169301885E+03  0.11227243177E+04  0.00000000000E+00 0. -1.
         22    1    3    3    0    0  0.52273399879E+02 -0.72876165260E+02  0.10373304056E+03  0.13712763216E+03  0.00000000000E+00 0.  1.
         22    1    3    3    0    0  0.13616780118E+03 -0.58093286323E+03  0.10861582914E+04  0.12392596563E+04  0.00000000000E+00 0.  1.
</event>
<event>
 7    1  0.5018917E-005  0.2111968E+03  0.7818608E-02  0.1145975E+00
          2   -1    0    0  502    0  0.00000000000E+00  0.00000000000E+00  0.11336359989E+04  0.11336359989E+04  0.00000000000E+00 0. -1.
          1   -1    0    0  501    0 -0.00000000000E+00 -0.00000000000E+00 -0.96206870923E+03  0.96206870923E+03  0.00000000000E+00 0. -1.
         25    2    1    2    0    0  0.34267826750E+03  0.64779583911E+02  0.49806638115E+02  0.37380613899E+03  0.12500215533E+03 0.  0.
          2    1    1    2  501    0 -0.14916182463E+03 -0.13031372817E+03 -0.77615635713E+03  0.80103034175E+03  0.00000000000E+00 0. -1.
          1    1    1    2  502    0 -0.19351644287E+03  0.65534144255E+02  0.89791700868E+03  0.92086822738E+03  0.00000000000E+00 0. -1.
         22    1    3    3    0    0  0.23080468833E+03  0.93235098117E+01 -0.18046128607E+02  0.23169677328E+03  0.00000000000E+00 0.  1.
         22    1    3    3    0    0  0.11187357918E+03  0.55456074099E+02  0.67852766722E+02  0.14210936571E+03  0.00000000000E+00 0.  1.
</event>
<event>
 7    1  0.5018917E-005  0.3618413E+03  0.7818608E-02  0.1248445E+00
          2   -1    0    0  502    0  0.00000000000E+00  0.00000000000E+00  0.73242835825E+03  0.73242835825E+03  0.00000000000E+00 0. -1.
          1   -1    0    0  501    0 -0.00000000000E+00 -0.00000000000E+00 -0.12379287854E+04  0.12379287854E+04  0.00000000000E+00 0. -1.
         25    2    1    2    0    0 -0.32763388808E+03  0.21250697145E+03  0.32079912742E+03  0.52061544526E+03  0.12500073665E+03 0.  0.
          2    1    1    2  501    0  0.31298803980E+03 -0.17775470162E+03 -0.11082725161E+04  0.11652580044E+04  0.00000000000E+00 0. -1.
          1    1    1    2  502    0  0.14645848276E+02 -0.34752269832E+02  0.28197296148E+03  0.28448369397E+03  0.00000000000E+00 0. -1.
         22    1    3    3    0    0 -0.52025362228E+02  0.39094033944E+01  0.93055355116E+02  0.10668280492E+03  0.00000000000E+00 0.  1.
         22    1    3    3    0    0 -0.27560852585E+03  0.20859756806E+03  0.22774377230E+03  0.41393264034E+03  0.00000000000E+00 0.  1.
</event>
<event>
 7    1  0.5018917E-005  0.5181185E+03  0.7818608E-02  0.1131003E+00
          2   -1    0    0  502    0  0.00000000000E+00  0.00000000000E+00  0.14371898226E+04  0.14371898226E+04  0.00000000000E+00 0. -1.
          1   -1    0    0  501    0 -0.00000000000E+00 -0.00000000000E+00 -0.17306435988E+04  0.17306435988E+04  0.00000000000E+00 0. -1.
         25    2    1    2    0    0  0.47339415786E+03  0.35252722981E+03  0.29708805681E+03  0.67250555356E+03  0.12499971849E+03 0.  0.
          2    1    1    2  501    0 -0.75966371911E+02 -0.59935298314E+02 -0.14773122336E+04  0.14804778165E+04  0.00000000000E+00 0. -1.
          1    1    1    2  502    0 -0.39742778595E+03 -0.29259193150E+03  0.88677040056E+03  0.10148500514E+04  0.00000000000E+00 0. -1.
         22    1    3    3    0    0  0.13006579165E+03  0.10446655982E+03  0.24015366436E+02  0.16854408950E+03  0.00000000000E+00 0. -1.
         22    1    3    3    0    0  0.34332836621E+03  0.24806066999E+03  0.27307269037E+03  0.50396146407E+03  0.00000000000E+00 0. -1.
</event>
<event>
 7    1  0.5018917E-005  0.1113141E+03  0.7818608E-02  0.1334520E+00
          2   -1    0    0  502    0  0.00000000000E+00  0.00000000000E+00  0.20161585262E+03  0.20161585262E+03  0.00000000000E+00 0. -1.
          1   -1    0    0  501    0 -0.00000000000E+00 -0.00000000000E+00 -0.53977924407E+03  0.53977924407E+03  0.00000000000E+00 0. -1.
         25    2    1    2    0    0  0.81888698035E+02 -0.63181209325E+02 -0.39399058687E+03  0.42608863288E+03  0.12500126581E+03 0.  0.
          2    1    1    2  501    0 -0.13025909129E+03  0.37421491057E+02 -0.87865425428E+02  0.16151820901E+03  0.00000000000E+00 0. -1.
          1    1    1    2  502    0  0.48370393250E+02  0.25759718268E+02  0.14369262084E+03  0.15378825480E+03  0.00000000000E+00 0. -1.
         22    1    3    3    0    0  0.50318824569E+02 -0.54649159715E+02 -0.38509941278E+03  0.39219902152E+03  0.00000000000E+00 0. -1.
         22    1    3    3    0    0  0.31569873466E+02 -0.85320496100E+01 -0.88911740905E+01  0.33889611357E+02  0.00000000000E+00 0. -1.
</event>
<event>
 7    1  0.5018917E-005  0.4910057E+03  0.7818608E-02  0.1160156E+00
          2   -1    0    0  502    0  0.00000000000E+00  0.00000000000E+00  0.18092464639E+04  0.18092464639E+04  0.00000000000E+00 0. -1.
          1   -1    0    0  501    0 -0.00000000000E+00 -0.00000000000E+00 -0.77712478519E+03  0.77712478519E+03  0.00000000000E+00 0. -1.
         25    2    1    2    0    0 -0.10774666971E+03 -0.46615831480E+03  0.40814954595E+03  0.64118893357E+03  0.12499710948E+03 0.  0.
          2    1    1    2  501    0  0.65678348508E+02 -0.29707560101E+02 -0.61020655594E+03  0.61444953047E+03  0.00000000000E+00 0. -1.
          1    1    1    2  502    0  0.42068321206E+02  0.49586587490E+03  0.12341786887E+04  0.13307327851E+04  0.00000000000E+00 0. -1.
         22    1    3    3    0    0  0.21711446395E+02 -0.32944579943E+02  0.53895067918E+02  0.66793791613E+02  0.00000000000E+00 0. -1.
         22    1    3    3    0    0 -0.12945811611E+03 -0.43321373486E+03  0.35425447803E+03  0.57439514196E+03  0.00000000000E+00 0. -1.
</event>
<event>
 7    1  0.5018917E-005  0.6443964E+03  0.7818608E-02  0.1062401E+00
          2   -1    0    0  502    0  0.00000000000E+00  0.00000000000E+00  0.50357419224E+03  0.50357419224E+03  0.00000000000E+00 0. -1.
          1   -1    0    0  501    0 -0.00000000000E+00 -0.00000000000E+00 -0.23245921890E+04  0.23245921890E+04  0.00000000000E+00 0. -1.
         25    2    1    2    0    0  0.14846884299E+03  0.67240993512E+03 -0.54586058412E+03  0.88756249007E+03  0.12500111325E+03 0.  0.
          2    1    1    2  501    0 -0.18633927654E+03 -0.40402235239E+02 -0.12932246104E+04  0.13072048652E+04  0.00000000000E+00 0. -1.
          1    1    1    2  502    0  0.37870433550E+02 -0.63200769988E+03  0.18067197798E+02  0.63339902595E+03  0.00000000000E+00 0. -1.
         22    1    3    3    0    0  0.73427147094E+02  0.33904424760E+03 -0.19568320693E+03  0.39828942396E+03  0.00000000000E+00 0.  1.
         22    1    3    3    0    0  0.75041695894E+02  0.33336568751E+03 -0.35017737718E+03  0.48927306612E+03  0.00000000000E+00 0.  1.
</event>
<event>
 7    1  0.5018917E-005  0.4483603E+03  0.7818608E-02  0.1230740E+00
          2   -1    0    0  502    0  0.00000000000E+00  0.00000000000E+00  0.21794442850E+04  0.21794442850E+04  0.00000000000E+00 0. -1.
          1   -1    0    0  501    0 -0.00000000000E+00 -0.00000000000E+00 -0.37526431128E+03  0.37526431128E+03  0.00000000000E+00 0. -1.
         25    2    1    2    0    0  0.27737807713E+03 -0.35677711612E+03  0.19165117899E+04  0.19730360791E+04  0.12500168016E+03 0.  0.
          2    1    1    2  501    0  0.11905863882E+01  0.36415054388E+02 -0.15104131396E+03  0.15537358915E+03  0.00000000000E+00 0. -1.
          1    1    1    2  502    0 -0.27856866351E+03  0.32036206173E+03  0.38709497784E+02  0.42629892811E+03  0.00000000000E+00 0. -1.
         22    1    3    3    0    0  0.62979754328E+02 -0.11164630644E+03  0.79241309951E+03  0.80271406334E+03  0.00000000000E+00 0.  1.
         22    1    3    3    0    0  0.21439832280E+03 -0.24513080968E+03  0.11240986904E+04  0.11703220157E+04  0.00000000000E+00 0.  1.
</event>
<event>
 7    1  0.5018917E-005  0.7401528E+03  0.7818608E-02  0.1174220E+00
          2   -1    0    0  502    0  0.00000000000E+00  0.00000000000E+00  0.18249507410E+04  0.18249507410E+04  0.00000000000E+00 0. -1.
          1   -1    0    0  501    0 -0.00000000000E+00 -0.00000000000E+00 -0.80207571610E+03  0.80207571610E+03  0.00000000000E+00 0. -1.
         25    2    1    2    0    0 -0.40270014086E+03  0.58195778934E+03 -0.18980513414E+03  0.74329917767E+03  0.12500162619E+03 0.  0.
          2    1    1    2  501    0 -0.32486688869E+02  0.24488119812E+02 -0.24377034119E+03  0.24714172495E+03  0.00000000000E+00 0. -1.
          1    1    1    2  502    0  0.43518682973E+03 -0.60644590915E+03  0.14564505002E+04  0.16365855545E+04  0.00000000000E+00 0. -1.
         22    1    3    3    0    0 -0.13298440252E+03  0.24683556192E+03 -0.12976008393E+03  0.30895036061E+03  0.00000000000E+00 0. -1.
         22    1    3    3    0    0 -0.26971573835E+03  0.33512222742E+03 -0.60045050210E+02  0.43434881706E+03  0.00000000000E+00 0. -1.
</event>
<event>
 7    1  0.5018917E-005  0.3484506E+03  0.7818608E-02  0.1089040E+00
          2   -1    0    0  502    0  0.00000000000E+00  0.00000000000E+00  0.36630622354E+03  0.36630622354E+03  0.00000000000E+00 0. -1.
          1   -1    0    0  501    0 -0.00000000000E+00 -0.00000000000E+00 -0.14667015870E+04  0.14667015870E+04  0.00000000000E+00 0. -1.
         25    2    1    2    0    0 -0.39747648452E+03 -0.65460597212E+00 -0.86026003207E+03  0.95585187230E+03  0.12496997542E+03 0.  0.
          2    1    1    2  501    0  0.11961834108E+03 -0.21446638115E+03 -0.41686344924E+03  0.48381764279E+03  0.00000000000E+00 0. -1.
          1    1    1    2  502    0  0.27785814344E+03  0.21512098713E+03  0.17672811789E+03  0.39333829541E+03  0.00000000000E+00 0. -1.
         22    1    3    3    0    0 -0.52169400854E+02  0.44125893270E+02 -0.13235514915E+03  0.14895175846E+03  0.00000000000E+00 0.  1.
         22    1    3    3    0    0 -0.34530708367E+03 -0.44780499242E+02 -0.72790488291E+03  0.80690011384E+03  0.00000000000E+00 0.  1.
</event>
<event>
 7    1  0.5018917E-005  0.5679083E+03  0.7818608E-02  0.1135990E+00
          2   -1    0    0  502    0  0.00000000000E+00  0.00000000000E+00  0.75796818145E+03  0.75796818145E+03  0.00000000000E+00 0. -1.
          1   -1    0    0  501    0 -0.00000000000E+00 -0.00000000000E+00 -0.76570609460E+03  0.76570609460E+03  0.00000000000E+00 0. -1.
         25    2    1    2    0    0  0.38171943532E+03 -0.47612942399E+03 -0.17654439694E+03  0.64745827012E+03  0.12500132705E+03 0.  0.
          2    1    1    2  501    0 -0.82387444273E+02  0.10602926476E+02 -0.19631869522E+03  0.21316928277E+03  0.00000000000E+00 0. -1.
          1    1    1    2  502    0 -0.29933199105E+03  0.46552649752E+03  0.36512517901E+03  0.66304672317E+03  0.00000000000E+00 0. -1.
         22    1    3    3    0    0  0.33813566668E+03 -0.46905123032E+03 -0.17084726656E+03  0.60293745466E+03  0.00000000000E+00 0. -1.
         22    1    3    3    0    0  0.43583768638E+02 -0.70781936752E+01 -0.56971303795E+01  0.44520815457E+02  0.00000000000E+00 0. -1.
</event>
<event>
 7    1  0.5018917E-005  0.2475602E+03  0.7818608E-02  0.1189950E+00
          2   -1    0    0  502    0  0.00000000000E+00  0.00000000000E+00  0.90065708608E+03  0.90065708608E+03  0.00000000000E+00 0. -1.
          1   -1    0    0  501    0 -0.00000000000E+00 -0.00000000000E+00 -0.12061378516E+04  0.12061378516E+04  0.00000000000E+00 0. -1.
         25    2    1    2    0    0 -0.92746288360E+02 -0.24740690049E+03 -0.40134143364E+03  0.49649857112E+03  0.12499534532E+03 0.  0.
          2    1    1    2  501    0 -0.76919601933E+02  0.66966386084E+02 -0.73564792688E+03  0.74268364352E+03  0.00000000000E+00 0. -1.
          1    1    1    2  502    0  0.16966589029E+03  0.18044051441E+03  0.83150859502E+03  0.86761272302E+03  0.00000000000E+00 0. -1.
         22    1    3    3    0    0 -0.35041454110E+01 -0.11412200618E+03 -0.25489839781E+03  0.27930145817E+03  0.00000000000E+00 0. -1.
         22    1    3    3    0    0 -0.89242142949E+02 -0.13328489431E+03 -0.14644303583E+03  0.21719711295E+03  0.00000000000E+00 0. -1.
</event>
<event>
 7    1  0.5018917E-005  0.6197897E+03  0.7818608E-02  0.1121493E+00
          2   -1    0    0  502    0  0.00000000000E+00  0.00000000000E+00  0.19151504311E+04  0.19151504311E+04  0.00000000000E+00 0. -1.
          1   -1    0    0  501    0 -0.00000000000E+00 -0.00000000000E+00 -0.12926314161E+04  0.12926314161E+04  0.00000000000E+00 0. -1.
         25    2    1    2    0    0  0.12462763017E+03  0.66346052490E+03  0.70811500325E+03  0.98628888857E+03  0.12500799810E+03 0.  0.
          2    1    1    2  501    0  0.73552033944E+01 -0.90684097180E+02 -0.10705910190E+04  0.10744500148E+04  0.00000000000E+00 0. -1.
          1    1    1    2  502    0 -0.13198283357E+03 -0.57277642772E+03  0.98499503071E+03  0.11470429439E+04  0.00000000000E+00 0. -1.
         22    1    3    3    0    0  0.86183205322E+02  0.61996807312E+03  0.62190051532E+03  0.88235378819E+03  0.00000000000E+00 0.  1.
         22    1    3    3    0    0  0.38444424852E+02  0.43492451786E+02  0.86214487921E+02  0.10393510039E+03  0.00000000000E+00 0.  1.
</event>
<event>
 7    1  0.5018917E-005  0.3252138E+03  0.7818608E-02  0.1184920E+00
          2   -1    0    0  502    0  0.00000000000E+00  0.00000000000E+00  0.10116152886E+04  0.10116152886E+04  0.00000000000E+00 0. -1.
          1   -1    0    0  501    0 -0.00000000000E+00 -0.00000000000E+00 -0.84657084237E+03  0.84657084237E+03  0.00000000000E+00 0. -1.
         25    2    1    2    0    0 -0.25974519738E+03  0.27086115952E+03 -0.33179299003E+03  0.51627882815E+03  0.12499561938E+03 0.  0.
          2    1    1    2  501    0  0.18900394762E+03 -0.22921413535E+03 -0.36812881658E+03  0.47305437072E+03  0.00000000000E+00 0. -1.
          1    1    1    2  502    0  0.70741249757E+02 -0.41647024171E+02  0.86496625286E+03  0.86885293211E+03  0.00000000000E+00 0. -1.
         22    1    3    3    0    0 -0.13017186856E+02 -0.61259051705E+01  0.50230998380E+01  0.15238287298E+02  0.00000000000E+00 0.  1.
         22    1    3    3    0    0 -0.24672801052E+03  0.27698706469E+03 -0.33681608987E+03  0.50104054085E+03  0.00000000000E+00 0.  1.
</event>
<event>
 7    1  0.5018917E-005  0.2316118E+03  0.7818608E-02  0.1126612E+00
          2   -1    0    0  502    0  0.00000000000E+00  0.00000000000E+00  0.12727685278E+04  0.12727685278E+04  0.00000000000E+00 0. -1.
          1   -1    0    0  501    0 -0.00000000000E+00 -0.00000000000E+00 -0.55959686389E+03  0.55959686389E+03  0.00000000000E+00 0. -1.
         25    2    1    2    0    0  0.26543436528E+02 -0.27572883838E+03  0.75886000044E+03  0.81744971914E+03  0.12499838684E+03 0.  0.
          2    1    1    2  501    0 -0.19869681508E+03  0.11279113538E+03 -0.47354762184E+03  0.52578476080E+03  0.00000000000E+00 0. -1.
          1    1    1    2  502    0  0.17215337855E+03  0.16293770300E+03  0.42785928527E+03  0.48913091171E+03  0.00000000000E+00 0. -1.
         22    1    3    3    0    0  0.70300297509E+02 -0.19891551111E+03  0.59448913215E+03  0.63081442646E+03  0.00000000000E+00 0. -1.
         22    1    3    3    0    0 -0.43756860981E+02 -0.76813327271E+02  0.16437086829E+03  0.18663529268E+03  0.00000000000E+00 0. -1.
</event>
<event>
 7    1  0.5018917E-005  0.2838564E+03  0.7818608E-02  0.1299301E+00
          2   -1    0    0  502    0  0.00000000000E+00  0.00000000000E+00  0.16464010690E+04  0.16464010690E+04  0.00000000000E+00 0. -1.
          1   -1    0    0  501    0 -0.00000000000E+00 -0.00000000000E+00 -0.82320071686E+03  0.82320071686E+03  0.00000000000E+00 0. -1.
         25    2    1    2    0    0  0.11330549758E+03  0.28098436163E+03  0.14967253605E+04  0.15321890789E+04  0.12500488524E+03 0.  0.
          2    1    1    2  501    0 -0.12563498740E+03 -0.25420296141E+03 -0.77841789709E+03  0.82845501879E+03  0.00000000000E+00 0. -1.
          1    1    1    2  502    0  0.12329489816E+02 -0.26781400221E+02  0.10489288864E+03  0.10895768814E+03  0.00000000000E+00 0. -1.
         22    1    3    3    0    0  0.12912415744E+03  0.27091953741E+03  0.14642492262E+04  0.14946893457E+04  0.00000000000E+00 0. -1.
         22    1    3    3    0    0 -0.15818659856E+02  0.10064824215E+02  0.32476134321E+02  0.37499733153E+02  0.00000000000E+00 0. -1.
</event>
<event>
 7    1  0.5018917E-005  0.3486707E+03  0.7818608E-02  0.1148323E+00
          2   -1    0    0  502    0  0.00000000000E+00  0.00000000000E+00  0.32530241825E+04  0.32530241825E+04  0.00000000000E+00 0. -1.
          1   -1    0    0  501    0 -0.00000000000E+00 -0.00000000000E+00 -0.63968635400E+03  0.63968635400E+03  0.00000000000E+00 0. -1.
         25    2    1    2    0    0 -0.42048320457E+03 -0.11450389635E+03  0.12375848777E+04  0.13180118374E+04  0.12498642496E+03 0.  0.
          2    1    1    2  501    0  0.11563450863E+03  0.15477426978E+02 -0.58062869170E+03  0.59223354173E+03  0.00000000000E+00 0. -1.
          1    1    1    2  502    0  0.30484869595E+03  0.99026469372E+02  0.19563816425E+04  0.19824651574E+04  0.00000000000E+00 0. -1.
         22    1    3    3    0    0 -0.36508241071E+03 -0.66472748655E+02  0.91888543728E+03  0.99098649827E+03  0.00000000000E+00 0.  1.
         22    1    3    3    0    0 -0.55400793868E+02 -0.48031147695E+02  0.31869944039E+03  0.32702533910E+03  0.00000000000E+00 0.  1.
</event>
<event>
 7    1  0.5018917E-005  0.7871706E+03  0.7818608E-02  0.1083259E+00
          2   -1    0    0  502    0  0.00000000000E+00  0.00000000000E+00  0.10990032575E+04  0.10990032575E+04  0.00000000000E+00 0. -1.
          1   -1    0    0  501    0 -0.00000000000E+00 -0.00000000000E+00 -0.19580788601E+04  0.19580788601E+04  0.00000000000E+00 0. -1.
         25    2    1    2    0    0  0.47518314130E+03 -0.58710433548E+03  0.42663014362E+03  0.87642936717E+03  0.12499855073E+03 0.  0.
          2    1    1    2  501    0 -0.57828589160E+01 -0.11725825872E+03 -0.13279770004E+04  0.13331563503E+04  0.00000000000E+00 0. -1.
          1    1    1    2  502    0 -0.46940028239E+03  0.70436259420E+03  0.42271254249E+02  0.84749640008E+03  0.00000000000E+00 0. -1.
         22    1    3    3    0    0  0.44385693047E+03 -0.48247625298E+03  0.35155104788E+03  0.74389545547E+03  0.00000000000E+00 0.  1.
         22    1    3    3    0    0  0.31326210837E+02 -0.10462808250E+03  0.75079095742E+02  0.13253391170E+03  0.00000000000E+00 0.  1.
</event>
<event>
 7    1  0.5018917E-005  0.3340145E+03  0.7818608E-02  0.1209801E+00
          2   -1    0    0  502    0  0.00000000000E+00  0.00000000000E+00  0.11579770439E+04  0.11579770439E+04  0.00000000000E+00 0. -1.
          1   -1    0    0  501    0 -0.00000000000E+00 -0.00000000000E+00 -0.18831642471E+03  0.18831642471E+03  0.00000000000E+00 0. -1.
         25    2    1    2    0    0  0.27683623529E+03 -0.26355688840E+03  0.84451744590E+03  0.93537922253E+03  0.12499615569E+03 0.  0.
          2    1    1    2  501    0 -0.24306034747E+03  0.21284945560E+03  0.74197398119E+02  0.33149430938E+03  0.00000000000E+00 0. -1.
          1    1    1    2  502    0 -0.33775887817E+02  0.50707432797E+02  0.50945775205E+02  0.79419936729E+02  0.00000000000E+00 0. -1.
         22    1    3    3    0    0  0.26145102970E+03 -0.27224993040E+03  0.75458384731E+03  0.84372593190E+03  0.00000000000E+00 0.  1.
         22    1    3    3    0    0  0.15385205584E+02  0.86930419987E+01  0.89933598587E+02  0.91653290639E+02  0.00000000000E+00 0.  1.
</event>
<event>
 7    1  0.5018917E-005  0.5646710E+02  0.7818608E-02  0.1474818E+00
          2   -1    0    0  502    0  0.00000000000E+00  0.00000000000E+00  0.12648720998E+04  0.12648720998E+04  0.00000000000E+00 0. -1.
          1   -1    0    0  501    0 -0.00000000000E+00 -0.00000000000E+00 -0.48751433481E+03  0.48751433481E+03  0.00000000000E+00 0. -1.
         25    2    1    2    0    0 -0.64647203148E+02 -0.57049823213E+02 -0.95433044018E+02  0.17934825036E+03  0.12499754323E+03 0.  0.
          2    1    1    2  501    0  0.34461081820E+02  0.94759510391E+01 -0.34856047296E+03  0.35038801794E+03  0.00000000000E+00 0. -1.
          1    1    1    2  502    0  0.30186121329E+02  0.47573872174E+02  0.12213512819E+04  0.12226501663E+04  0.00000000000E+00 0. -1.
         22    1    3    3    0    0 -0.23231285511E+02 -0.90801085510E+02 -0.38650672358E+02  0.10138246510E+03  0.00000000000E+00 0.  1.
         22    1    3    3    0    0 -0.41415917637E+02  0.33751262297E+02 -0.56782371660E+02  0.77965785263E+02  0.00000000000E+00 0.  1.
</event>
<event>
 7    1  0.5018917E-005  0.2992395E+03  0.7818608E-02  0.1144036E+00
          2   -1    0    0  502    0  0.00000000000E+00  0.00000000000E+00  0.45937010297E+03  0.45937010297E+03  0.00000000000E+00 0. -1.
          1   -1    0    0  501    0 -0.00000000000E+00 -0.00000000000E+00 -0.55298740211E+03  0.55298740211E+03  0.00000000000E+00 0. -1.
         25    2    1    2    0    0 -0.28827217718E+02  0.40897001942E+03 -0.17260204132E+02  0.42896290838E+03  0.12499510733E+03 0.  0.
          2    1    1    2  501    0  0.29952439827E+02 -0.26590578236E+03 -0.24460677459E+03  0.36254035351E+03  0.00000000000E+00 0. -1.
          1    1    1    2  502    0 -0.11252221087E+01 -0.14306423706E+03  0.16824967959E+03  0.22085424318E+03  0.00000000000E+00 0. -1.
         22    1    3    3    0    0 -0.34469607898E+02  0.13391486930E+03  0.47715747524E+02  0.14628102628E+03  0.00000000000E+00 0.  1.
         22    1    3    3    0    0  0.56423901798E+01  0.27505515013E+03 -0.64975951656E+02  0.28268188211E+03  0.00000000000E+00 0.  1.
</event>
<event>
 7    1  0.5018917E-005  0.3507957E+03  0.7818608E-02  0.1245190E+00
          2   -1    0    0  502    0  0.00000000000E+00  0.00000000000E+00  0.41050383233E+03  0.41050383233E+03  0.00000000000E+00 0. -1.
          1   -1    0    0  501    0 -0.00000000000E+00 -0.00000000000E+00 -0.79658732831E+03  0.79658732831E+03  0.00000000000E+00 0. -1.
         25    2    1    2    0    0  0.28220632323E+03 -0.19640701682E+03 -0.33958792785E+03  0.49916077608E+03  0.12500157802E+03 0.  0.
          2    1    1    2  501    0 -0.17129981464E+02 -0.36358711359E+02 -0.28130426838E+03  0.28416101697E+03  0.00000000000E+00 0. -1.
          1    1    1    2  502    0 -0.26507634177E+03  0.23276572818E+03  0.23480870026E+03  0.42376936758E+03  0.00000000000E+00 0. -1.
         22    1    3    3    0    0  0.12078408553E+03 -0.86910073639E+02 -0.23414928238E+03  0.27743114940E+03  0.00000000000E+00 0. -1.
         22    1    3    3    0    0  0.16142223770E+03 -0.10949694319E+03 -0.10543864547E+03  0.22172962669E+03  0.00000000000E+00 0. -1.
</event>
<event>
 7    1  0.5018917E-005  0.2037978E+03  0.7818608E-02  0.1170399E+00
          2   -1    0    0  502    0  0.00000000000E+00  0.00000000000E+00  0.35568595494E+04  0.35568595494E+04  0.00000000000E+00 0. -1.
          1   -1    0    0  501    0 -0.00000000000E+00 -0.00000000000E+00 -0.10975199384E+04  0.10975199384E+04  0.00000000000E+00 0. -1.
         25    2    1    2    0    0  0.31637741574E+03 -0.11349375885E+03  0.11160842901E+04  0.11722815160E+04  0.12499723051E+03 0.  0.
          2    1    1    2  501    0 -0.15260483186E+03  0.22969503032E+02 -0.10601981033E+04  0.10713710146E+04  0.00000000000E+00 0. -1.
          1    1    1    2  502    0 -0.16377258388E+03  0.90524255815E+02  0.24034534241E+04  0.24107269571E+04  0.00000000000E+00 0. -1.
         22    1    3    3    0    0  0.89094091807E+02 -0.87903469996E+02  0.48985422023E+03  0.50559067862E+03  0.00000000000E+00 0.  1.
         22    1    3    3    0    0  0.22728332393E+03 -0.25590288851E+02  0.62623006992E+03  0.66669083741E+03  0.00000000000E+00 0.  1.
</event>
<event>
 7    1  0.5018917E-005  0.3804072E+03  0.7818608E-02  0.1247323E+00
          2   -1    0    0  502    0  0.00000000000E+00  0.00000000000E+00  0.23906210313E+04  0.23906210313E+04  0.00000000000E+00 0. -1.
          1   -1    0    0  501    0 -0.00000000000E+00 -0.00000000000E+00 -0.11431691103E+04  0.11431691103E+04  0.00000000000E+00 0. -1.
         25    2    1    2    0    0  0.91689703281E+02  0.38154549381E+03  0.11654223001E+04  0.12360493757E+04  0.12499982407E+03 0.  0.
          2    1    1    2  501    0  0.22489007130E+02 -0.28465664486E+02 -0.10786113958E+04  0.10792212899E+04  0.00000000000E+00 0. -1.
          1    1    1    2  502    0 -0.11417871041E+03 -0.35307982932E+03  0.11606410167E+04  0.12185194760E+04  0.00000000000E+00 0. -1.
         22    1    3    3    0    0  0.10271862712E+03  0.38103545765E+03  0.11560982087E+04  0.12215982173E+04  0.00000000000E+00 0.  1.
         22    1    3    3    0    0 -0.11028923843E+02  0.51003615895E+00  0.93240913801E+01  0.14451158365E+02  0.00000000000E+00 0.  1.
</event>
<event>
 7    1  0.5018917E-005  0.9674869E+03  0.7818608E-02  0.1183131E+00
          2   -1    0    0  502    0  0.00000000000E+00  0.00000000000E+00  0.73697715683E+03  0.73697715683E+03  0.00000000000E+00 0. -1.
          1   -1    0    0  501    0 -0.00000000000E+00 -0.00000000000E+00 -0.28605155331E+04  0.28605155331E+04  0.00000000000E+00 0. -1.
         25    2    1    2    0    0  0.29022315103E+03  0.93519862249E+03 -0.68632409195E+03  0.12022825818E+04  0.12496682144E+03 0.  0.
          2    1    1    2  501    0  0.15490819106E+02 -0.23505177608E+02 -0.14333407618E+04  0.14336171728E+04  0.00000000000E+00 0. -1.
          1    1    1    2  502    0 -0.30571397013E+03 -0.91169344488E+03 -0.38735225247E+01  0.96159293526E+03  0.00000000000E+00 0. -1.
         22    1    3    3    0    0  0.21976003602E+03  0.70302577175E+03 -0.44762943152E+03  0.86192332439E+03  0.00000000000E+00 0.  1.
         22    1    3    3    0    0  0.70463115009E+02  0.23217285074E+03 -0.23869466043E+03  0.34035925742E+03  0.00000000000E+00 0.  1.
</event>
<event>
 7    1  0.5018917E-005  0.3763651E+03  0.7818608E-02  0.1102576E+00
          2   -1    0    0  502    0  0.00000000000E+00  0.00000000000E+00  0.44676236548E+03  0.44676236548E+03  0.00000000000E+00 0. -1.
          1   -1    0    0  501    0 -0.00000000000E+00 -0.00000000000E+00 -0.13369861861E+04  0.13369861861E+04  0.00000000000E+00 0. -1.
         25    2    1    2    0    0 -0.51392595498E+03 -0.48449282767E+02 -0.25822345431E+03  0.59056960375E+03  0.12500353725E+03 0.  0.
          2    1    1    2  501    0  0.34644192840E+03 -0.42272356411E+02 -0.84091541194E+03  0.91046564565E+03  0.00000000000E+00 0. -1.
          1    1    1    2  502    0  0.16748402658E+03  0.90721639178E+02  0.20891504559E+03  0.28271330221E+03  0.00000000000E+00 0. -1.
         22    1    3    3    0    0 -0.32231108952E+03  0.16214969124E+02 -0.20178222284E+03  0.38060928668E+03  0.00000000000E+00 0. -1.
         22    1    3    3    0    0 -0.19161486545E+03 -0.64664251891E+02 -0.56441231462E+02  0.20996031707E+03  0.00000000000E+00 0. -1.
</event>
<event>
 7    1  0.5018917E-005  0.4614602E+03  0.7818608E-02  0.1253651E+00
          2   -1    0    0  502    0  0.00000000000E+00  0.00000000000E+00  0.15494488346E+04  0.15494488346E+04  0.00000000000E+00 0. -1.
          1   -1    0    0  501    0 -0.00000000000E+00 -0.00000000000E+00 -0.21596281693E+03  0.21596281693E+03  0.00000000000E+00 0. -1.
         25    2    1    2    0    0  0.25140945716E+03  0.39197184557E+03  0.48602769126E+03  0.68461443053E+03  0.12500143581E+03 0.  0.
          2    1    1    2  501    0 -0.22446593838E+03 -0.39986192466E+03  0.33578398606E+03  0.56835323662E+03  0.00000000000E+00 0. -1.
          1    1    1    2  502    0 -0.26943518779E+02  0.78900790944E+01  0.51167434038E+03  0.51244398441E+03  0.00000000000E+00 0. -1.
         22    1    3    3    0    0  0.19030737554E+03  0.30840274777E+03  0.29477964015E+03  0.46714471876E+03  0.00000000000E+00 0.  1.
         22    1    3    3    0    0  0.61102081617E+02  0.83569097790E+02  0.19124805111E+03  0.21746971177E+03  0.00000000000E+00 0.  1.
</event>
<event>
 7    1  0.5018917E-005  0.2164141E+03  0.7818608E-02  0.1285961E+00
          2   -1    0    0  502    0  0.00000000000E+00  0.00000000000E+00  0.46555416777E+03  0.46555416777E+03  0.00000000000E+00 0. -1.
          1   -1    0    0  501    0 -0.00000000000E+00 -0.00000000000E+00 -0.17431039226E+03  0.17431039226E+03  0.00000000000E+00 0. -1.
         25    2    1    2    0    0 -0.14118481975E+03 -0.19489686918E+03  0.20950712549E+03  0.34268930288E+03  0.12499911891E+03 0.  0.
          2    1    1    2  501    0  0.26360348332E+02  0.34972890516E+02 -0.45190706934E+02  0.62929889785E+02  0.00000000000E+00 0. -1.
          1    1    1    2  502    0  0.11482447142E+03  0.15992397867E+03  0.12692735695E+03  0.23424536737E+03  0.00000000000E+00 0. -1.
         22    1    3    3    0    0 -0.14488805088E+02 -0.96930604944E+02  0.30830772377E+02  0.10274241662E+03  0.00000000000E+00 0. -1.
         22    1    3    3    0    0 -0.12669601466E+03 -0.97966264240E+02  0.17867635312E+03  0.23994688625E+03  0.00000000000E+00 0. -1.
</event>
<event>
 7    1  0.5018917E-005  0.7491516E+03  0.7818608E-02  0.1097930E+00
          2   -1    0    0  502    0  0.00000000000E+00  0.00000000000E+00  0.22034326543E+04  0.22034326543E+04  0.00000000000E+00 0. -1.
          1   -1    0    0  501    0 -0.00000000000E+00 -0.00000000000E+00 -0.13353126312E+04  0.13353126312E+04  0.00000000000E+00 0. -1.
         25    2    1    2    0    0 -0.55774769641E+03  0.53112593874E+03 -0.77782655247E+03  0.11017333161E+04  0.12499959326E+03 0.  0.
          2    1    1    2  501    0  0.45694935523E+03 -0.54414360675E+03 -0.73693677871E+02  0.71437086739E+03  0.00000000000E+00 0. -1.
          1    1    1    2  502    0  0.10079834118E+03  0.13017668017E+02  0.17196402534E+04  0.17226411021E+04  0.00000000000E+00 0. -1.
         22    1    3    3    0    0 -0.10834022784E+03  0.42475268054E+02 -0.11671156754E+03  0.16481305580E+03  0.00000000000E+00 0.  1.
         22    1    3    3    0    0 -0.44940746857E+03  0.48865067068E+03 -0.66111498493E+03  0.93692026025E+03  0.00000000000E+00 0.  1.
</event>
<event>
 7    1  0.5018917E-005  0.2962470E+03  0.7818608E-02  0.1121628E+00
          2   -1    0    0  502    0  0.00000000000E+00  0.00000000000E+00  0.79289366971E+03  0.79289366971E+03  0.00000000000E+00 0. -1.
          1   -1    0    0  501    0 -0.00000000000E+00 -0.00000000000E+00 -0.12112710420E+04  0.12112710420E+04  0.00000000000E+00 0. -1.
         25    2    1    2    0    0 -0.22136574113E+03 -0.31813347130E+03 -0.75643821523E+02  0.41419339380E+03  0.12498993088E+03 0.  0.
          2    1    1    2  501    0  0.33825230052E+02  0.28749100808E+03 -0.92932625025E+03  0.97336658321E+03  0.00000000000E+00 0. -1.
          1    1    1    2  502    0  0.18754051108E+03  0.30642463217E+02  0.58659269945E+03  0.61660473473E+03  0.00000000000E+00 0. -1.
         22    1    3    3    0    0 -0.22668316568E+03 -0.31635034879E+03 -0.55300970307E+02  0.39309158996E+03  0.00000000000E+00 0.  1.
         22    1    3    3    0    0  0.53174245412E+01 -0.17831225113E+01 -0.20342851216E+02  0.21101803838E+02  0.00000000000E+00 0.  1.
</event>
<event>
 7    1  0.5018917E-005  0.1572996E+04  0.7818608E-02  0.1108711E+00
          2   -1    0    0  502    0  0.00000000000E+00  0.00000000000E+00  0.18638861909E+04  0.18638861909E+04  0.00000000000E+00 0. -1.
          1   -1    0    0  501    0 -0.00000000000E+00 -0.00000000000E+00 -0.20319046708E+04  0.20319046708E+04  0.00000000000E+00 0. -1.
         25    2    1    2    0    0 -0.53735047577E+03  0.15003113893E+04  0.28607764476E+03  0.16239288329E+04  0.12499854764E+03 0.  0.
          2    1    1    2  501    0  0.52949080201E+01 -0.41788447103E+02 -0.69887800762E+03  0.70014625607E+03  0.00000000000E+00 0. -1.
          1    1    1    2  502    0  0.53205556775E+03 -0.14585229422E+04  0.24478188293E+03  0.15717157727E+04  0.00000000000E+00 0. -1.
         22    1    3    3    0    0 -0.51912869792E+03  0.14705114049E+04  0.26152100886E+03  0.15812310505E+04  0.00000000000E+00 0.  1.
         22    1    3    3    0    0 -0.18221777855E+02  0.29799984385E+02  0.24556635907E+02  0.42697782432E+02  0.00000000000E+00 0.  1.
</event>
<event>
 7    1  0.5018917E-005  0.1218510E+04  0.7818608E-02  0.1106096E+00
          2   -1    0    0  502    0  0.00000000000E+00  0.00000000000E+00  0.15480552953E+04  0.15480552953E+04  0.00000000000E+00 0. -1.
          1   -1    0    0  501    0 -0.00000000000E+00 -0.00000000000E+00 -0.43923210194E+04  0.43923210194E+04  0.00000000000E+00 0. -1.
         25    2    1    2    0    0  0.93757418914E+03 -0.74667755806E+03  0.55050944111E+03  0.13248620293E+04  0.12500406472E+03 0.  0.
          2    1    1    2  501    0  0.29614931988E+02 -0.47795632481E+02 -0.33629847451E+04  0.33634547511E+04  0.00000000000E+00 0. -1.
          1    1    1    2  502    0 -0.96718912113E+03  0.79447319054E+03 -0.31790420015E+02  0.12520595343E+04  0.00000000000E+00 0. -1.
         22    1    3    3    0    0  0.59317782412E+03 -0.42806697859E+03  0.39012406679E+03  0.82903441224E+03  0.00000000000E+00 0.  1.
         22    1    3    3    0    0  0.34439636502E+03 -0.31861057947E+03  0.16038537431E+03  0.49582761710E+03  0.00000000000E+00 0.  1.
</event>
<event>
 7    1  0.5018917E-005  0.1696056E+03  0.7818608E-02  0.1205734E+00
          2   -1    0    0  502    0  0.00000000000E+00  0.00000000000E+00  0.44086516137E+03  0.44086516137E+03  0.00000000000E+00 0. -1.
          1   -1    0    0  501    0 -0.00000000000E+00 -0.00000000000E+00 -0.23087683260E+03  0.23087683260E+03  0.00000000000E+00 0. -1.
         25    2    1    2    0    0 -0.16070603761E+03 -0.19699812973E+03  0.18615539944E+03  0.33898920796E+03  0.12500062692E+03 0.  0.
          2    1    1    2  501    0  0.10040020095E+03  0.75018447087E+02 -0.90851676010E+02  0.15479662395E+03  0.00000000000E+00 0. -1.
          1    1    1    2  502    0  0.60305836659E+02  0.12197968264E+03  0.11468460534E+03  0.17795616206E+03  0.00000000000E+00 0. -1.
         22    1    3    3    0    0 -0.74448545400E+02 -0.15091297523E+03  0.17119975971E+03  0.24005555551E+03  0.00000000000E+00 0. -1.
         22    1    3    3    0    0 -0.86257492208E+02 -0.46085154499E+02  0.14955639725E+02  0.98933652448E+02  0.00000000000E+00 0. -1.
</event>
<event>
 7    1  0.5018917E-005  0.7719585E+03  0.7818608E-02  0.1142107E+00
          2   -1    0    0  502    0  0.00000000000E+00  0.00000000000E+00  0.20703025937E+04  0.20703025937E+04  0.00000000000E+00 0. -1.
          1   -1    0    0  501    0 -0.00000000000E+00 -0.00000000000E+00 -0.10735317758E+04  0.10735317758E+04  0.00000000000E+00 0. -1.
         25    2    1    2    0    0 -0.36088304109E+03  0.65478416904E+03  0.79719336766E+03  0.11000544537E+04  0.12499463285E+03 0.  0.
          2    1    1    2  501    0 -0.50880545972E+02  0.25149769155E+02 -0.78011173320E+03  0.78217367453E+03  0.00000000000E+00 0. -1.
          1    1    1    2  502    0  0.41176358706E+03 -0.67993393819E+03  0.97968918342E+03  0.12616062413E+04  0.00000000000E+00 0. -1.
         22    1    3    3    0    0 -0.20809794755E+03  0.49218740299E+03  0.58102579869E+03  0.78939481515E+03  0.00000000000E+00 0. -1.
         22    1    3    3    0    0 -0.15278509353E+03  0.16259676605E+03  0.21616756897E+03  0.31065963853E+03  0.00000000000E+00 0. -1.
</event>
<event>
 7    1  0.5018917E-005  0.1904765E+03  0.7818608E-02  0.1267675E+00
          2   -1    0    0  502    0  0.00000000000E+00  0.00000000000E+00  0.93286769327E+03  0.93286769327E+03  0.00000000000E+00 0. -1.
          1   -1    0    0  501    0 -0.00000000000E+00 -0.00000000000E+00 -0.10203298020E+04  0.10203298020E+04  0.00000000000E+00 0. -1.
         25    2    1    2    0    0  0.19896230836E+03 -0.14321799790E+03  0.51242065108E+03  0.58163214039E+03  0.12499451190E+03 0.  0.
          2    1    1    2  501    0 -0.14258024572E+03  0.12494824870E+03 -0.97425580009E+03  0.99252987629E+03  0.00000000000E+00 0. -1.
          1    1    1    2  502    0 -0.56382062640E+02  0.18269749199E+02  0.37437304029E+03  0.37903547858E+03  0.00000000000E+00 0. -1.
         22    1    3    3    0    0  0.10250792396E+03 -0.76603364753E+01  0.25711858467E+03  0.27690525782E+03  0.00000000000E+00 0. -1.
         22    1    3    3    0    0  0.96454384391E+02 -0.13555766142E+03  0.25530206642E+03  0.30472688256E+03  0.00000000000E+00 0. -1.
</event>
<event>
 7    1  0.5018917E-005  0.5908113E+03  0.7818608E-02  0.1136779E+00
          2   -1    0    0  502    0  0.00000000000E+00  0.00000000000E+00  0.14677522247E+04  0.14677522247E+04  0.00000000000E+00 0. -1.
          1   -1    0    0  501    0 -0.00000000000E+00 -0.00000000000E+00 -0.21521725581E+04  0.21521725581E+04  0.00000000000E+00 0. -1.
         25    2    1    2    0    0  0.47008870592E+03  0.35664172069E+03 -0.16272230835E+04  0.17354125116E+04  0.12499965391E+03 0.  0.
          2    1    1    2  501    0 -0.42405671172E+03 -0.42095092978E+03 -0.27949942060E+03  0.65965423227E+03  0.00000000000E+00 0. -1.
          1    1    1    2  502    0 -0.46031994206E+02  0.64309209095E+02  0.12223021707E+04  0.12248580389E+04  0.00000000000E+00 0. -1.
         22    1    3    3    0    0  0.37045511838E+03  0.29645446688E+03 -0.14270011893E+04  0.15038133660E+04  0.00000000000E+00 0. -1.
         22    1    3    3    0    0  0.99633587546E+02  0.60187253801E+02 -0.20022189422E+03  0.23159914554E+03  0.00000000000E+00 0. -1.
</event>
<event>
 7    1  0.5018917E-005  0.4416928E+03  0.7818608E-02  0.1256475E+00
          2   -1    0    0  502    0  0.00000000000E+00  0.00000000000E+00  0.95821992381E+03  0.95821992381E+03  0.00000000000E+00 0. -1.
          1   -1    0    0  501    0 -0.00000000000E+00 -0.00000000000E+00 -0.90903712605E+03  0.90903712605E+03  0.00000000000E+00 0. -1.
         25    2    1    2    0    0 -0.44802942089E+03  0.10837844911E+03 -0.16229582578E+03  0.50442197800E+03  0.12500138645E+03 0.  0.
          2    1    1    2  501    0  0.26356219835E+02  0.10902892351E+02 -0.51426192242E+03  0.51505227719E+03  0.00000000000E+00 0. -1.
          1    1    1    2  502    0  0.42167320105E+03 -0.11928134146E+03  0.72574054595E+03  0.84778279467E+03  0.00000000000E+00 0. -1.
         22    1    3    3    0    0 -0.13488469219E+03  0.42418915900E+02 -0.11220754576E+03  0.18050977242E+03  0.00000000000E+00 0. -1.
         22    1    3    3    0    0 -0.31314472870E+03  0.65959533209E+02 -0.50088280022E+02  0.32391220559E+03  0.00000000000E+00 0. -1.
</event>
<event>
 7    1  0.5018917E-005  0.7061354E+03  0.7818608E-02  0.1095246E+00
          2   -1    0    0  502    0  0.00000000000E+00  0.00000000000E+00  0.48602543024E+03  0.48602543024E+03  0.00000000000E+00 0. -1.
          1   -1    0    0  501    0 -0.00000000000E+00 -0.00000000000E+00 -0.45004869484E+04  0.45004869484E+04  0.00000000000E+00 0. -1.
         25    2    1    2    0    0  0.71351222806E+03 -0.20466863722E+03 -0.72547069137E+03  0.10454290978E+04  0.12500129559E+03 0.  0.
          2    1    1    2  501    0 -0.69332551439E+03  0.94836136800E+02 -0.35703976816E+04  0.36383284303E+04  0.00000000000E+00 0. -1.
          1    1    1    2  502    0 -0.20186713663E+02  0.10983250042E+03  0.28140685484E+03  0.30275485051E+03  0.00000000000E+00 0. -1.
         22    1    3    3    0    0  0.48169004704E+03 -0.97501133598E+02 -0.53754369161E+03  0.72834400723E+03  0.00000000000E+00 0. -1.
         22    1    3    3    0    0  0.23182218101E+03 -0.10716750362E+03 -0.18792699976E+03  0.31708509060E+03  0.00000000000E+00 0. -1.
</event>
<event>
 7    1  0.5018917E-005  0.7135373E+03  0.7818608E-02  0.1142433E+00
          2   -1    0    0  502    0  0.00000000000E+00  0.00000000000E+00  0.14168553436E+04  0.14168553436E+04  0.00000000000E+00 0. -1.
          1   -1    0    0  501    0 -0.00000000000E+00 -0.00000000000E+00 -0.83476952110E+03  0.83476952110E+03  0.00000000000E+00 0. -1.
         25    2    1    2    0    0  0.67044131939E+03  0.19811477116E+03  0.78244610165E+03  0.10566873893E+04  0.12500124540E+03 0.  0.
          2    1    1    2  501    0  0.29435219833E+02  0.53615742219E+02 -0.41605100840E+03  0.42052291444E+03  0.00000000000E+00 0. -1.
          1    1    1    2  502    0 -0.69987653923E+03 -0.25173051338E+03  0.21569072921E+03  0.77441456094E+03  0.00000000000E+00 0. -1.
         22    1    3    3    0    0  0.55609829778E+03  0.15315073166E+03  0.70725665915E+03  0.91264037020E+03  0.00000000000E+00 0. -1.
         22    1    3    3    0    0  0.11434302161E+03  0.44964039501E+02  0.75189442498E+02  0.14404701907E+03  0.00000000000E+00 0. -1.
</event>
<event>
 7    1  0.5018917E-005  0.9495758E+03  0.7818608E-02  0.1085849E+00
          2   -1    0    0  502    0  0.00000000000E+00  0.00000000000E+00  0.26260364559E+04  0.26260364559E+04  0.00000000000E+00 0. -1.
          1   -1    0    0  501    0 -0.00000000000E+00 -0.00000000000E+00 -0.14228836491E+04  0.14228836491E+04  0.00000000000E+00 0. -1.
         25    2    1    2    0    0  0.55076432782E+03 -0.81544470688E+03  0.70574711979E+03  0.12173722127E+04  0.12499876917E+03 0.  0.
          2    1    1    2  501    0  0.33401599423E+02  0.87879647321E+02 -0.10340088789E+04  0.10382739816E+04  0.00000000000E+00 0. -1.
          1    1    1    2  502    0 -0.58416592725E+03  0.72756505956E+03  0.15314145658E+04  0.17932739107E+04  0.00000000000E+00 0. -1.
         22    1    3    3    0    0  0.13553323422E+03 -0.11764493225E+03  0.14218528616E+03  0.22896777778E+03  0.00000000000E+00 0. -1.
         22    1    3    3    0    0  0.41523109360E+03 -0.69779977464E+03  0.56356183362E+03  0.98840443488E+03  0.00000000000E+00 0. -1.
</event>
<event>
 7    1  0.5018917E-005  0.1925628E+03  0.7818608E-02  0.1195164E+00
          2   -1    0    0  502    0  0.00000000000E+00  0.00000000000E+00  0.11511137476E+04  0.11511137476E+04  0.00000000000E+00 0. -1.
          1   -1    0    0  501    0 -0.00000000000E+00 -0.00000000000E+00 -0.31975002090E+03  0.31975002090E+03  0.00000000000E+00 0. -1.
         25    2    1    2    0    0  0.27104297040E+03 -0.65926432810E+02  0.34425230256E+03  0.46037591581E+03  0.12500299874E+03 0.  0.
          2    1    1    2  501    0 -0.15380794498E+03  0.10572400847E+03 -0.22235294365E+03  0.29030205210E+03  0.00000000000E+00 0. -1.
          1    1    1    2  502    0 -0.11723502542E+03 -0.39797575657E+02  0.70946436777E+03  0.72018580058E+03  0.00000000000E+00 0. -1.
         22    1    3    3    0    0  0.10195243622E+03  0.32741876878E+02  0.15249564579E+03  0.18633639402E+03  0.00000000000E+00 0.  1.
         22    1    3    3    0    0  0.16909053418E+03 -0.98668309688E+02  0.19175665677E+03  0.27403952179E+03  0.00000000000E+00 0.  1.
</event>
<event>
 7    1  0.5018917E-005  0.2434005E+03  0.7818608E-02  0.1213644E+00
          2   -1    0    0  502    0  0.00000000000E+00  0.00000000000E+00  0.34877867694E+03  0.34877867694E+03  0.00000000000E+00 0. -1.
          1   -1    0    0  501    0 -0.00000000000E+00 -0.00000000000E+00 -0.68997192041E+03  0.68997192041E+03  0.00000000000E+00 0. -1.
         25    2    1    2    0    0 -0.24166336255E+03 -0.68256158031E+01  0.18616001826E+03  0.32973716484E+03  0.12499310240E+03 0.  0.
          2    1    1    2  501    0 -0.67948034419E-01 -0.80256711203E+02 -0.42488131919E+03  0.43239481924E+03  0.00000000000E+00 0. -1.
          1    1    1    2  502    0  0.24173131059E+03  0.87082327006E+02 -0.10247194254E+03  0.27661861326E+03  0.00000000000E+00 0. -1.
         22    1    3    3    0    0 -0.43899252447E+02 -0.26602179877E+01 -0.16095068714E+02  0.46832385825E+02  0.00000000000E+00 0. -1.
         22    1    3    3    0    0 -0.19776411011E+03 -0.41653978154E+01  0.20225508697E+03  0.28290477902E+03  0.00000000000E+00 0. -1.
</event>
<event>
 7    1  0.5018917E-005  0.1796010E+03  0.7818608E-02  0.1306892E+00
          2   -1    0    0  502    0  0.00000000000E+00  0.00000000000E+00  0.20736523471E+04  0.20736523471E+04  0.00000000000E+00 0. -1.
          1   -1    0    0  501    0 -0.00000000000E+00 -0.00000000000E+00 -0.37767263817E+02  0.37767263817E+02  0.00000000000E+00 0. -1.
         25    2    1    2    0    0  0.14433861622E+03  0.15839340982E+03  0.12858602551E+04  0.13095762503E+04  0.12502500241E+03 0.  0.
          2    1    1    2  501    0 -0.10972215776E+03 -0.13211088019E+03  0.27087648597E+03  0.32072777743E+03  0.00000000000E+00 0. -1.
          1    1    1    2  502    0 -0.34616458465E+02 -0.26282529635E+02  0.47914834213E+03  0.48111558312E+03  0.00000000000E+00 0. -1.
         22    1    3    3    0    0 -0.60338570244E+01  0.22630253250E+02  0.40676875196E+03  0.40744245405E+03  0.00000000000E+00 0. -1.
         22    1    3    3    0    0  0.15037247325E+03  0.13576315657E+03  0.87909150318E+03  0.90213379626E+03  0.00000000000E+00 0. -1.
</event>
<event>
 7    1  0.5018917E-005  0.2951201E+03  0.7818608E-02  0.1259556E+00
          2   -1    0    0  502    0  0.00000000000E+00  0.00000000000E+00  0.80346673916E+03  0.80346673916E+03  0.00000000000E+00 0. -1.
          1   -1    0    0  501    0 -0.00000000000E+00 -0.00000000000E+00 -0.12021487667E+04  0.12021487667E+04  0.00000000000E+00 0. -1.
         25    2    1    2    0    0 -0.23088225841E+03  0.18501738382E+03  0.71223356237E+03  0.78131023864E+03  0.12502396595E+03 0.  0.
          2    1    1    2  501    0  0.32346112328E+02  0.25856721309E+02 -0.79361999605E+03  0.79469965342E+03  0.00000000000E+00 0. -1.
          1    1    1    2  502    0  0.19853614609E+03 -0.21087410513E+03 -0.31729559383E+03  0.42960561377E+03  0.00000000000E+00 0. -1.
         22    1    3    3    0    0 -0.16077398821E+03  0.12261098183E+03  0.60947155454E+03  0.64213495773E+03  0.00000000000E+00 0.  1.
         22    1    3    3    0    0 -0.70108270207E+02  0.62406401992E+02  0.10276200784E+03  0.13917528091E+03  0.00000000000E+00 0.  1.
</event>
<event>
 7    1  0.5018917E-005  0.5013807E+03  0.7818608E-02  0.1033910E+00
          2   -1    0    0  502    0  0.00000000000E+00  0.00000000000E+00  0.39589418307E+04  0.39589418307E+04  0.00000000000E+00 0. -1.
          1   -1    0    0  501    0 -0.00000000000E+00 -0.00000000000E+00 -0.12833589797E+04  0.12833589797E+04  0.00000000000E+00 0. -1.
         25    2    1    2    0    0  0.26311283360E+03  0.79524919973E+03  0.81742812820E+03  0.11770577454E+04  0.12500615361E+03 0.  0.
          2    1    1    2  501    0 -0.75860572141E+02 -0.47786252298E+03 -0.10382676661E+04  0.11454724631E+04  0.00000000000E+00 0. -1.
          1    1    1    2  502    0 -0.18725226145E+03 -0.31738667675E+03  0.28964223890E+04  0.29197706018E+04  0.00000000000E+00 0. -1.
         22    1    3    3    0    0  0.23414507751E+02  0.10826301303E+03  0.17121144829E+03  0.20391782460E+03  0.00000000000E+00 0.  1.
         22    1    3    3    0    0  0.23969832584E+03  0.68698618670E+03  0.64621667991E+03  0.97313992084E+03  0.00000000000E+00 0.  1.
</event>
<event>
 7    1  0.5018917E-005  0.8525061E+03  0.7818608E-02  0.1199721E+00
          2   -1    0    0  502    0  0.00000000000E+00  0.00000000000E+00  0.21350235822E+04  0.21350235822E+04  0.00000000000E+00 0. -1.
          1   -1    0    0  501    0 -0.00000000000E+00 -0.00000000000E+00 -0.60346621321E+03  0.60346621321E+03  0.00000000000E+00 0. -1.
         25    2    1    2    0    0 -0.57182541582E+03 -0.61000768861E+03  0.46198023679E+03  0.96340239610E+03  0.12499900513E+03 0.  0.
          2    1    1    2  501    0 -0.23904451777E+02 -0.11688943140E+02 -0.22157184795E+03  0.22316392632E+03  0.00000000000E+00 0. -1.
          1    1    1    2  502    0  0.59572986759E+03  0.62169663175E+03  0.12911489801E+04  0.15519234729E+04  0.00000000000E+00 0. -1.
         22    1    3    3    0    0 -0.11756670465E+03 -0.12987586031E+03  0.41528631748E+02  0.18003970781E+03  0.00000000000E+00 0. -1.
         22    1    3    3    0    0 -0.45425871117E+03 -0.48013182829E+03  0.42045160504E+03  0.78336268829E+03  0.00000000000E+00 0. -1.
</event>
<event>
 7    1  0.5396617E-005  0.3636127E+03  0.7818608E-02  0.1160570E+00
          2   -1    0    0  502    0  0.00000000000E+00  0.00000000000E+00  0.13495436981E+04  0.13495436981E+04  0.00000000000E+00 0. -1.
          1   -1    0    0  501    0 -0.00000000000E+00 -0.00000000000E+00 -0.16658120621E+04  0.16658120621E+04  0.00000000000E+00 0. -1.
         25    2    1    2    0    0  0.34608654172E+03  0.15746287079E+03 -0.32945241235E+03  0.51839615882E+03  0.12500094173E+03 0.  0.
          2    1    1    2  501    0 -0.35647382941E+03 -0.61148848437E+02 -0.12136043770E+04  0.12663523824E+04  0.00000000000E+00 0. -1.
          1    1    1    2  502    0  0.10387287693E+02 -0.96314022357E+02  0.12267884254E+04  0.12306072189E+04  0.00000000000E+00 0. -1.
         22    1    3    3    0    0  0.20812218675E+03  0.11834929547E+03 -0.27595898593E+03  0.36534197990E+03  0.00000000000E+00 0. -1.
         22    1    3    3    0    0  0.13796435496E+03  0.39113575323E+02 -0.53493426425E+02  0.15305417892E+03  0.00000000000E+00 0. -1.
</event>
