<event>
 7    1  0.6315518E-006  0.4193226E+02  0.7818608E-02  0.1514839E+00
          2   -1    0    0  502    0  0.00000000000E+00  0.00000000000E+00  0.70047014254E+02  0.70047014254E+02  0.00000000000E+00 0. -1.
          1   -1    0    0  501    0 -0.00000000000E+00 -0.00000000000E+00 -0.26217985639E+03  0.26217985639E+03  0.00000000000E+00 0. -1.
         25    2    1    2    0    0 -0.16264602206E+02 -0.50480950292E+02 -0.10552020069E+03  0.17196604643E+03  0.12499977898E+03 0.  0.
          2    1    1    2  501    0 -0.20596966328E+02  0.30113987333E+02 -0.10730508314E+03  0.11333784947E+03  0.00000000000E+00 0. -1.
          1    1    1    2  502    0  0.36861568534E+02  0.20366962960E+02  0.20692441694E+02  0.46922974738E+02  0.00000000000E+00 0. -1.
         22    1    3    3    0    0 -0.12341189763E+02 -0.91776853456E+02 -0.59805093033E+02  0.11023586053E+03  0.00000000000E+00 0.  1.
         22    1    3    3    0    0 -0.39234124433E+01  0.41295903163E+02 -0.45715107653E+02  0.61730185898E+02  0.00000000000E+00 0.  1.
</event>
<event>
 7    1  0.6315518E-006  0.8802517E+02  0.7818608E-02  0.1313679E+00
          2   -1    0    0  502    0  0.00000000000E+00  0.00000000000E+00  0.63465769300E+03  0.63465769300E+03  0.00000000000E+00 0. -1.
          1   -1    0    0  501    0 -0.00000000000E+00 -0.00000000000E+00 -0.61247081689E+03  0.61247081689E+03  0.00000000000E+00 0. -1.
         25    2    1    2    0    0 -0.51765535220E+01  0.32093743321E+02  0.97820778862E+02  0.16202146668E+03  0.12500098328E+03 0.  0.
          2    1    1    2  501    0  0.74389304079E+02  0.37675824522E+02 -0.57253767858E+03  0.57857811029E+03  0.00000000000E+00 0. -1.
          1    1    1    2  502    0 -0.69212750557E+02 -0.69769567843E+02  0.49690377583E+03  0.50652893291E+03  0.00000000000E+00 0. -1.
         22    1    3    3    0    0  0.21356913178E+02 -0.40519377446E+01 -0.23898495317E+02  0.32305944010E+02  0.00000000000E+00 0.  1.
         22    1    3    3    0    0 -0.26533466700E+02  0.36145681066E+02  0.12171927418E+03  0.12971552267E+03  0.00000000000E+00 0.  1.
</event>
<event>
 7    1  0.6315518E-006  0.5898558E+02  0.7818608E-02  0.1514700E+00
          2   -1    0    0  502    0  0.00000000000E+00  0.00000000000E+00  0.72100537554E+03  0.72100537554E+03  0.00000000000E+00 0. -1.
          1   -1    0    0  501    0 -0.00000000000E+00 -0.00000000000E+00 -0.36393449184E+03  0.36393449184E+03  0.00000000000E+00 0. -1.
         25    2    1    2    0    0  0.39350479696E+02 -0.79168220063E+01  0.29693513072E+03  0.32466210204E+03  0.12499548922E+03 0.  0.
          2    1    1    2  501    0  0.16462870928E+02 -0.20072849071E+02 -0.34720764380E+03  0.34817681328E+03  0.00000000000E+00 0. -1.
          1    1    1    2  502    0 -0.55813350624E+02  0.27989671077E+02  0.40734339678E+03  0.41210095207E+03  0.00000000000E+00 0. -1.
         22    1    3    3    0    0 -0.57657841168E+01 -0.58522939865E+01 -0.10834118582E+02  0.13596754644E+02  0.00000000000E+00 0.  1.
         22    1    3    3    0    0  0.45116263813E+02 -0.20645280198E+01  0.30776924930E+03  0.31106534740E+03  0.00000000000E+00 0.  1.
</event>
<event>
 7    1  0.6315518E-006  0.1010025E+03  0.7818608E-02  0.1300858E+00
          2   -1    0    0  502    0  0.00000000000E+00  0.00000000000E+00  0.29514746461E+03  0.29514746461E+03  0.00000000000E+00 0. -1.
          1   -1    0    0  501    0 -0.00000000000E+00 -0.00000000000E+00 -0.58707129028E+03  0.58707129028E+03  0.00000000000E+00 0. -1.
         25    2    1    2    0    0 -0.17405742123E+01 -0.59431771052E+02 -0.52840589114E+01  0.13851914470E+03  0.12499786862E+03 0.  0.
          2    1    1    2  501    0 -0.79750881508E+02 -0.17644530164E+02 -0.49787490516E+03  0.50453042895E+03  0.00000000000E+00 0. -1.
          1    1    1    2  502    0  0.81491455720E+02  0.77076301215E+02  0.21123513840E+03  0.23916918125E+03  0.00000000000E+00 0. -1.
         22    1    3    3    0    0  0.40643821248E+02 -0.51076545118E+02 -0.45444043128E+02  0.79535493477E+02  0.00000000000E+00 0. -1.
         22    1    3    3    0    0 -0.42384395460E+02 -0.83552259342E+01  0.40159984217E+02  0.58983651220E+02  0.00000000000E+00 0. -1.
</event>
<event>
 7    1  0.6315518E-006  0.9115407E+02  0.7818608E-02  0.1446709E+00
          2   -1    0    0  502    0  0.00000000000E+00  0.00000000000E+00  0.13318942128E+04  0.13318942128E+04  0.00000000000E+00 0. -1.
          1   -1    0    0  501    0 -0.00000000000E+00 -0.00000000000E+00 -0.12819717516E+03  0.12819717516E+03  0.00000000000E+00 0. -1.
         25    2    1    2    0    0  0.74223340450E+02 -0.58794732094E+02  0.56532942438E+03  0.58667464660E+03  0.12499543235E+03 0.  0.
          2    1    1    2  501    0 -0.52232717570E+02  0.74716798945E+02 -0.99558318083E+02  0.13499153873E+03  0.00000000000E+00 0. -1.
          1    1    1    2  502    0 -0.21990622880E+02 -0.15922066852E+02  0.73792593138E+03  0.73842520265E+03  0.00000000000E+00 0. -1.
         22    1    3    3    0    0  0.54040513514E+02 -0.94380459953E+02  0.32047881460E+03  0.33842978434E+03  0.00000000000E+00 0. -1.
         22    1    3    3    0    0  0.20182826935E+02  0.35585727860E+02  0.24485060978E+03  0.24824486227E+03  0.00000000000E+00 0. -1.
</event>
<event>
 7    1  0.6315518E-006  0.5420964E+02  0.7818608E-02  0.1436933E+00
          2   -1    0    0  502    0  0.00000000000E+00  0.00000000000E+00  0.45561099054E+03  0.45561099054E+03  0.00000000000E+00 0. -1.
          1   -1    0    0  501    0 -0.00000000000E+00 -0.00000000000E+00 -0.90572060619E+02  0.90572060619E+02  0.00000000000E+00 0. -1.
         25    2    1    2    0    0  0.94759584176E+02  0.24169589112E+02  0.84894636613E+02  0.17999825821E+03  0.12501490232E+03 0.  0.
          2    1    1    2  501    0 -0.46073815965E+02 -0.17782988508E+02 -0.26216671313E+02  0.55913728659E+02  0.00000000000E+00 0. -1.
          1    1    1    2  502    0 -0.48685768211E+02 -0.63866006037E+01  0.30636096462E+03  0.31027106429E+03  0.00000000000E+00 0. -1.
         22    1    3    3    0    0  0.70318000801E+02 -0.15478937534E+02  0.10657929734E+03  0.12862101447E+03  0.00000000000E+00 0.  1.
         22    1    3    3    0    0  0.24441583375E+02  0.39648526646E+02 -0.21684660723E+02  0.51377243734E+02  0.00000000000E+00 0.  1.
</event>
<event>
 7    1  0.6315518E-006  0.9494034E+02  0.7818608E-02  0.1418764E+00
          2   -1    0    0  502    0  0.00000000000E+00  0.00000000000E+00  0.40817084437E+03  0.40817084437E+03  0.00000000000E+00 0. -1.
          1   -1    0    0  501    0 -0.00000000000E+00 -0.00000000000E+00 -0.45464471211E+03  0.45464471211E+03  0.00000000000E+00 0. -1.
         25    2    1    2    0    0  0.58211201402E+02  0.11072505238E+03 -0.23793641819E+03  0.29645653268E+03  0.12499662185E+03 0.  0.
          2    1    1    2  501    0 -0.21663559143E+02 -0.23810833155E+02 -0.18013380721E+03  0.18298757900E+03  0.00000000000E+00 0. -1.
          1    1    1    2  502    0 -0.36547642259E+02 -0.86914219225E+02  0.37159635766E+03  0.38337144479E+03  0.00000000000E+00 0. -1.
         22    1    3    3    0    0  0.68864797790E+02  0.11931825046E+03 -0.13593014288E+03  0.19353606644E+03  0.00000000000E+00 0. -1.
         22    1    3    3    0    0 -0.10653596388E+02 -0.85931980824E+01 -0.10200627531E+03  0.10292046624E+03  0.00000000000E+00 0. -1.
</event>
<event>
 7    1  0.6315518E-006  0.2416752E+03  0.7818608E-02  0.1283229E+00
          2   -1    0    0  502    0  0.00000000000E+00  0.00000000000E+00  0.22246446548E+04  0.22246446548E+04  0.00000000000E+00 0. -1.
          1   -1    0    0  501    0 -0.00000000000E+00 -0.00000000000E+00 -0.26678826997E+03  0.26678826997E+03  0.00000000000E+00 0. -1.
         25    2    1    2    0    0  0.25347708229E+03  0.10564481370E+03  0.28550397338E+03  0.41538777025E+03  0.12499209156E+03 0.  0.
          2    1    1    2  501    0 -0.21404676266E+03 -0.97603097280E+02 -0.13300074047E+03  0.27024355343E+03  0.00000000000E+00 0. -1.
          1    1    1    2  502    0 -0.39430319635E+02 -0.80417164234E+01  0.18053531519E+04  0.18058016011E+04  0.00000000000E+00 0. -1.
         22    1    3    3    0    0  0.19090958580E+03  0.12848415873E+03  0.18720526876E+03  0.29664871759E+03  0.00000000000E+00 0.  1.
         22    1    3    3    0    0  0.62567496486E+02 -0.22839345025E+02  0.98298704619E+02  0.11873905266E+03  0.00000000000E+00 0.  1.
</event>
<event>
 7    1  0.6315518E-006  0.1041193E+03  0.7818608E-02  0.1387506E+00
          2   -1    0    0  502    0  0.00000000000E+00  0.00000000000E+00  0.14096916441E+03  0.14096916441E+03  0.00000000000E+00 0. -1.
          1   -1    0    0  501    0 -0.00000000000E+00 -0.00000000000E+00 -0.26094946850E+04  0.26094946850E+04  0.00000000000E+00 0. -1.
         25    2    1    2    0    0 -0.13722015258E+03 -0.76683169038E+00  0.41020250002E+02  0.19010014077E+03  0.12500177721E+03 0.  0.
          2    1    1    2  501    0  0.10266604471E+03  0.15476499031E+02 -0.25193993166E+04  0.25215377759E+04  0.00000000000E+00 0. -1.
          1    1    1    2  502    0  0.34554107870E+02 -0.14709667340E+02  0.98535460148E+01  0.38825932738E+02  0.00000000000E+00 0. -1.
         22    1    3    3    0    0 -0.15906257303E+03  0.12627651733E+02  0.39784337366E+02  0.16444802591E+03  0.00000000000E+00 0.  1.
         22    1    3    3    0    0  0.21842420442E+02 -0.13394483423E+02  0.12359126355E+01  0.25652114863E+02  0.00000000000E+00 0.  1.
</event>
<event>
 7    1  0.6315518E-006  0.4966771E+02  0.7818608E-02  0.1558777E+00
          2   -1    0    0  502    0  0.00000000000E+00  0.00000000000E+00  0.15766269488E+04  0.15766269488E+04  0.00000000000E+00 0. -1.
          1   -1    0    0  501    0 -0.00000000000E+00 -0.00000000000E+00 -0.45452138634E+03  0.45452138634E+03  0.00000000000E+00 0. -1.
         25    2    1    2    0    0  0.42699084083E+02  0.49535965204E+01 -0.24802594266E+03  0.28104413717E+03  0.12498475470E+03 0.  0.
          2    1    1    2  501    0 -0.16583996597E+01  0.23051180957E+02 -0.18888629754E+03  0.19029487810E+03  0.00000000000E+00 0. -1.
          1    1    1    2  502    0 -0.41040684424E+02 -0.28004777477E+02  0.15590178026E+04  0.15598093198E+04  0.00000000000E+00 0. -1.
         22    1    3    3    0    0  0.61682622301E+02 -0.49532456963E+01 -0.25180756455E+03  0.25929969167E+03  0.00000000000E+00 0. -1.
         22    1    3    3    0    0 -0.18983538218E+02  0.99068422168E+01  0.37816218913E+01  0.21744445500E+02  0.00000000000E+00 0. -1.
</event>
<event>
 7    1  0.6315518E-006  0.1193936E+03  0.7818608E-02  0.1310095E+00
          2   -1    0    0  502    0  0.00000000000E+00  0.00000000000E+00  0.21841729163E+03  0.21841729163E+03  0.00000000000E+00 0. -1.
          1   -1    0    0  501    0 -0.00000000000E+00 -0.00000000000E+00 -0.10088448982E+04  0.10088448982E+04  0.00000000000E+00 0. -1.
         25    2    1    2    0    0 -0.14516953392E+02  0.59692967861E+02 -0.46951747511E+03  0.48973725749E+03  0.12498771779E+03 0.  0.
          2    1    1    2  501    0 -0.40930496585E+02  0.48553585996E+02 -0.50932375803E+03  0.51326742226E+03  0.00000000000E+00 0. -1.
          1    1    1    2  502    0  0.55447449977E+02 -0.10824655386E+03  0.18841362658E+03  0.22425751005E+03  0.00000000000E+00 0. -1.
         22    1    3    3    0    0 -0.26204577110E+02 -0.12716618718E+01 -0.13482740865E+02  0.29497140313E+02  0.00000000000E+00 0. -1.
         22    1    3    3    0    0  0.11687623718E+02  0.60964629733E+02 -0.45603473424E+03  0.46024011718E+03  0.00000000000E+00 0. -1.
</event>
<event>
 7    1  0.6315518E-006  0.8628821E+02  0.7818608E-02  0.1455147E+00
          2   -1    0    0  502    0  0.00000000000E+00  0.00000000000E+00  0.66565628267E+02  0.66565628267E+02  0.00000000000E+00 0. -1.
          1   -1    0    0  501    0 -0.00000000000E+00 -0.00000000000E+00 -0.15055013644E+04  0.15055013644E+04  0.00000000000E+00 0. -1.
         25    2    1    2    0    0  0.60484761093E+02 -0.15127526903E+02 -0.47302528989E+03  0.49322078272E+03  0.12500626879E+03 0.  0.
          2    1    1    2  501    0  0.22014584629E+02 -0.15552793791E+02 -0.98778230944E+03  0.98814999984E+03  0.00000000000E+00 0. -1.
          1    1    1    2  502    0 -0.82499345722E+02  0.30680320694E+02  0.21871863227E+02  0.90696210083E+02  0.00000000000E+00 0. -1.
         22    1    3    3    0    0  0.81226471340E+02  0.27603701492E+02 -0.36935408400E+03  0.37918615923E+03  0.00000000000E+00 0.  1.
         22    1    3    3    0    0 -0.20741710247E+02 -0.42731228395E+02 -0.10367120589E+03  0.11403462349E+03  0.00000000000E+00 0.  1.
</event>
<event>
 7    1  0.6315518E-006  0.1024557E+03  0.7818608E-02  0.1351120E+00
          2   -1    0    0  502    0  0.00000000000E+00  0.00000000000E+00  0.83976343002E+02  0.83976343002E+02  0.00000000000E+00 0. -1.
          1   -1    0    0  501    0 -0.00000000000E+00 -0.00000000000E+00 -0.32125133898E+04  0.32125133898E+04  0.00000000000E+00 0. -1.
         25    2    1    2    0    0 -0.79752921958E+02 -0.65336522651E+02 -0.12678595253E+03  0.20573761455E+03  0.12499559404E+03 0.  0.
          2    1    1    2  501    0  0.37878492390E+02  0.95482466551E+02 -0.30301266865E+04  0.30318673153E+04  0.00000000000E+00 0. -1.
          1    1    1    2  502    0  0.41874429568E+02 -0.30145943900E+02  0.28375592196E+02  0.58884802944E+02  0.00000000000E+00 0. -1.
         22    1    3    3    0    0 -0.10452756981E+03 -0.59599897567E+02 -0.13321078462E+03  0.17950842259E+03  0.00000000000E+00 0.  1.
         22    1    3    3    0    0  0.24774647853E+02 -0.57366250837E+01  0.64248320910E+01  0.26229191962E+02  0.00000000000E+00 0.  1.
</event>
<event>
 7    1  0.6315518E-006  0.1588814E+03  0.7818608E-02  0.1317260E+00
          2   -1    0    0  502    0  0.00000000000E+00  0.00000000000E+00  0.26884710244E+04  0.26884710244E+04  0.00000000000E+00 0. -1.
          1   -1    0    0  501    0 -0.00000000000E+00 -0.00000000000E+00 -0.68870717235E+03  0.68870717235E+03  0.00000000000E+00 0. -1.
         25    2    1    2    0    0  0.50590427130E+02 -0.17103631249E+03  0.10150918399E+04  0.10381942346E+04  0.12499205533E+03 0.  0.
          2    1    1    2  501    0 -0.79855391518E+02  0.13720358145E+03 -0.66754483286E+03  0.68616165019E+03  0.00000000000E+00 0. -1.
          1    1    1    2  502    0  0.29264964387E+02  0.33832731036E+02  0.16522168451E+04  0.16528223120E+04  0.00000000000E+00 0. -1.
         22    1    3    3    0    0  0.87329341308E+02 -0.12324666014E+03  0.59864922225E+03  0.61741156807E+03  0.00000000000E+00 0. -1.
         22    1    3    3    0    0 -0.36738914178E+02 -0.47789652349E+02  0.41644261763E+03  0.42078266655E+03  0.00000000000E+00 0. -1.
</event>
<event>
 7    1  0.6315518E-006  0.1112710E+03  0.7818608E-02  0.1429017E+00
          2   -1    0    0  502    0  0.00000000000E+00  0.00000000000E+00  0.16915488882E+04  0.16915488882E+04  0.00000000000E+00 0. -1.
          1   -1    0    0  501    0 -0.00000000000E+00 -0.00000000000E+00 -0.16754399623E+03  0.16754399623E+03  0.00000000000E+00 0. -1.
         25    2    1    2    0    0  0.25090117043E+02  0.91787096864E+02  0.14109157978E+04  0.14196344896E+04  0.12499724192E+03 0.  0.
          2    1    1    2  501    0 -0.49075198142E+02 -0.10013193068E+03 -0.14343401934E+03  0.18168130481E+03  0.00000000000E+00 0. -1.
          1    1    1    2  502    0  0.23985081100E+02  0.83448338197E+01  0.25652311352E+03  0.25777709001E+03  0.00000000000E+00 0. -1.
         22    1    3    3    0    0 -0.21031582593E+02  0.53570909257E+02  0.11689291956E+04  0.11703450919E+04  0.00000000000E+00 0. -1.
         22    1    3    3    0    0  0.46121699636E+02  0.38216187606E+02  0.24198660227E+03  0.24928939779E+03  0.00000000000E+00 0. -1.
</event>
<event>
 7    1  0.6315518E-006  0.1257330E+03  0.7818608E-02  0.1263553E+00
          2   -1    0    0  502    0  0.00000000000E+00  0.00000000000E+00  0.11943035119E+04  0.11943035119E+04  0.00000000000E+00 0. -1.
          1   -1    0    0  501    0 -0.00000000000E+00 -0.00000000000E+00 -0.93525516301E+03  0.93525516301E+03  0.00000000000E+00 0. -1.
         25    2    1    2    0    0  0.11935724787E+03  0.46409847700E+02 -0.41000481416E+03  0.44735727036E+03  0.12499821248E+03 0.  0.
          2    1    1    2  501    0 -0.12728402509E+03  0.46718254824E+02 -0.49559568158E+03  0.51380823074E+03  0.00000000000E+00 0. -1.
          1    1    1    2  502    0  0.79267772194E+01 -0.93128102524E+02  0.11646488446E+04  0.11683931738E+04  0.00000000000E+00 0. -1.
         22    1    3    3    0    0  0.58155310416E+00 -0.20195935896E+02 -0.60860378163E+01  0.21101039952E+02  0.00000000000E+00 0.  1.
         22    1    3    3    0    0  0.11877569476E+03  0.66605783597E+02 -0.40391877635E+03  0.42625623041E+03  0.00000000000E+00 0.  1.
</event>
<event>
 7    1  0.6315518E-006  0.4605780E+02  0.7818608E-02  0.1469093E+00
          2   -1    0    0  502    0  0.00000000000E+00  0.00000000000E+00  0.77492357102E+02  0.77492357102E+02  0.00000000000E+00 0. -1.
          1   -1    0    0  501    0 -0.00000000000E+00 -0.00000000000E+00 -0.73524586756E+03  0.73524586756E+03  0.00000000000E+00 0. -1.
         25    2    1    2    0    0 -0.16589536873E+02  0.17374266033E+02 -0.48078400622E+03  0.49734704187E+03  0.12499496616E+03 0.  0.
          2    1    1    2  501    0 -0.57133761595E+01 -0.57671921813E+02 -0.23457996373E+03  0.24163288811E+03  0.00000000000E+00 0. -1.
          1    1    1    2  502    0  0.22302913032E+02  0.40297655780E+02  0.57610459493E+02  0.73758294680E+02  0.00000000000E+00 0. -1.
         22    1    3    3    0    0 -0.36933926295E+02  0.64922666084E+02 -0.31205771588E+03  0.32087238199E+03  0.00000000000E+00 0.  1.
         22    1    3    3    0    0  0.20344389422E+02 -0.47548400051E+02 -0.16872629034E+03  0.17647465988E+03  0.00000000000E+00 0.  1.
</event>
<event>
 7    1  0.6315518E-006  0.5430543E+02  0.7818608E-02  0.1423992E+00
          2   -1    0    0  502    0  0.00000000000E+00  0.00000000000E+00  0.12467343666E+04  0.12467343666E+04  0.00000000000E+00 0. -1.
          1   -1    0    0  501    0 -0.00000000000E+00 -0.00000000000E+00 -0.31200187724E+03  0.31200187724E+03  0.00000000000E+00 0. -1.
         25    2    1    2    0    0  0.15360563340E+02  0.77685777130E+02  0.86978056921E+02  0.17164211330E+03  0.12499922318E+03 0.  0.
          2    1    1    2  501    0 -0.43898872615E+02 -0.31558483957E+02 -0.26629351124E+03  0.27172648574E+03  0.00000000000E+00 0. -1.
          1    1    1    2  502    0  0.28538309275E+02 -0.46127293173E+02  0.11140479437E+04  0.11153676448E+04  0.00000000000E+00 0. -1.
         22    1    3    3    0    0  0.26311645913E+02 -0.59726275431E+01  0.82890369263E+02  0.87171029058E+02  0.00000000000E+00 0.  1.
         22    1    3    3    0    0 -0.10951082573E+02  0.83658404673E+02  0.40876876580E+01  0.84471084238E+02  0.00000000000E+00 0.  1.
</event>
<event>
 7    1  0.6315518E-006  0.3178043E+03  0.7818608E-02  0.1249866E+00
          2   -1    0    0  502    0  0.00000000000E+00  0.00000000000E+00  0.13501553429E+03  0.13501553429E+03  0.00000000000E+00 0. -1.
          1   -1    0    0  501    0 -0.00000000000E+00 -0.00000000000E+00 -0.29593907851E+04  0.29593907851E+04  0.00000000000E+00 0. -1.
         25    2    1    2    0    0 -0.97386978429E+02  0.34102464585E+03 -0.14802337718E+04  0.15272520162E+04  0.12499867674E+03 0.  0.
          2    1    1    2  501    0  0.89820177761E+01 -0.41368162469E+02 -0.12357291540E+04  0.12364540200E+04  0.00000000000E+00 0. -1.
          1    1    1    2  502    0  0.88404960653E+02 -0.29965648338E+03 -0.10841232505E+03  0.33070028322E+03  0.00000000000E+00 0. -1.
         22    1    3    3    0    0 -0.51809630315E+02  0.17787239273E+03 -0.10231455287E+04  0.10397834384E+04  0.00000000000E+00 0. -1.
         22    1    3    3    0    0 -0.45577348115E+02  0.16315225313E+03 -0.45708824306E+03  0.48746857776E+03  0.00000000000E+00 0. -1.
</event>
<event>
 7    1  0.1183126E-005  0.6719079E+02  0.7818608E-02  0.1462317E+00
          2   -1    0    0  502    0  0.00000000000E+00  0.00000000000E+00  0.16775248877E+04  0.16775248877E+04  0.00000000000E+00 0. -1.
          1   -1    0    0  501    0 -0.00000000000E+00 -0.00000000000E+00 -0.22617591632E+04  0.22617591632E+04  0.00000000000E+00 0. -1.
         25    2    1    2    0    0  0.83504065264E+01 -0.98766651768E+02 -0.13436839703E+04  0.13531208817E+04  0.12499971001E+03 0.  0.
          2    1    1    2  501    0  0.35809809775E+01  0.32659710140E+02 -0.91238654050E+03  0.91297791834E+03  0.00000000000E+00 0. -1.
          1    1    1    2  502    0 -0.11931387504E+02  0.66106941628E+02  0.16718362354E+04  0.16731852509E+04  0.00000000000E+00 0. -1.
         22    1    3    3    0    0  0.32957379340E+01 -0.10349116490E+03 -0.56520411759E+03  0.57461028327E+03  0.00000000000E+00 0.  1.
         22    1    3    3    0    0  0.50546685924E+01  0.47245131313E+01 -0.77847985275E+03  0.77851059841E+03  0.00000000000E+00 0.  1.
</event>
<event>
 7    1  0.6315518E-006  0.3282347E+03  0.7818608E-02  0.1265038E+00
          2   -1    0    0  502    0  0.00000000000E+00  0.00000000000E+00  0.24397173621E+04  0.24397173621E+04  0.00000000000E+00 0. -1.
          1   -1    0    0  501    0 -0.00000000000E+00 -0.00000000000E+00 -0.35076859372E+03  0.35076859372E+03  0.00000000000E+00 0. -1.
         25    2    1    2    0    0  0.40816080725E+02  0.29945345238E+03  0.48519113445E+03  0.58512751419E+03  0.12500179329E+03 0.  0.
          2    1    1    2  501    0 -0.61642319211E+01  0.34744658263E+02 -0.28488509331E+03  0.28706219783E+03  0.00000000000E+00 0. -1.
          1    1    1    2  502    0 -0.34651848804E+02 -0.33419811064E+03  0.18886427273E+04  0.19182962438E+04  0.00000000000E+00 0. -1.
         22    1    3    3    0    0  0.44837918909E+02  0.13278324706E+03  0.12324868467E+03  0.18663351239E+03  0.00000000000E+00 0. -1.
         22    1    3    3    0    0 -0.40218381833E+01  0.16667020532E+03  0.36194244978E+03  0.39849400180E+03  0.00000000000E+00 0. -1.
</event>
<event>
 7    1  0.6315518E-006  0.6665646E+02  0.7818608E-02  0.1449730E+00
          2   -1    0    0  502    0  0.00000000000E+00  0.00000000000E+00  0.40162010929E+03  0.40162010929E+03  0.00000000000E+00 0. -1.
          1   -1    0    0  501    0 -0.00000000000E+00 -0.00000000000E+00 -0.86016742235E+03  0.86016742235E+03  0.00000000000E+00 0. -1.
         25    2    1    2    0    0 -0.81266176616E+02 -0.50283271588E+02 -0.98984967245E+02  0.18589295000E+03  0.12500226500E+03 0.  0.
          2    1    1    2  501    0  0.45034782098E+02  0.47920807858E+02 -0.71529613320E+03  0.71831267120E+03  0.00000000000E+00 0. -1.
          1    1    1    2  502    0  0.36231394518E+02  0.23624637295E+01  0.35573378739E+03  0.35758191044E+03  0.00000000000E+00 0. -1.
         22    1    3    3    0    0 -0.37261650306E+02 -0.40581617579E+02  0.20038916415E+02  0.58624708442E+02  0.00000000000E+00 0. -1.
         22    1    3    3    0    0 -0.44004526310E+02 -0.97016540084E+01 -0.11902388366E+03  0.12726824155E+03  0.00000000000E+00 0. -1.
</event>
<event>
 7    1  0.6315518E-006  0.4164733E+02  0.7818608E-02  0.1497690E+00
          2   -1    0    0  502    0  0.00000000000E+00  0.00000000000E+00  0.37033244981E+02  0.37033244981E+02  0.00000000000E+00 0. -1.
          1   -1    0    0  501    0 -0.00000000000E+00 -0.00000000000E+00 -0.18263466686E+04  0.18263466686E+04  0.00000000000E+00 0. -1.
         25    2    1    2    0    0  0.38381914300E+02  0.60933410392E+01 -0.69500576389E+03  0.70722507081E+03  0.12499595510E+03 0.  0.
          2    1    1    2  501    0 -0.14495487926E+02 -0.40209891113E+02 -0.11106087578E+04  0.11114309549E+04  0.00000000000E+00 0. -1.
          1    1    1    2  502    0 -0.23886426374E+02  0.34116550074E+02  0.16301098055E+02  0.44723887931E+02  0.00000000000E+00 0. -1.
         22    1    3    3    0    0 -0.32706588821E+02  0.30018300353E+02 -0.41427277444E+03  0.41664463389E+03  0.00000000000E+00 0. -1.
         22    1    3    3    0    0  0.71088503120E+02 -0.23924959314E+02 -0.28073298945E+03  0.29058043692E+03  0.00000000000E+00 0. -1.
</event>
<event>
 7    1  0.6315518E-006  0.2811430E+02  0.7818608E-02  0.1666734E+00
          2   -1    0    0  502    0  0.00000000000E+00  0.00000000000E+00  0.90896876916E+02  0.90896876916E+02  0.00000000000E+00 0. -1.
          1   -1    0    0  501    0 -0.00000000000E+00 -0.00000000000E+00 -0.59075830977E+03  0.59075830977E+03  0.00000000000E+00 0. -1.
         25    2    1    2    0    0 -0.14102570436E+02 -0.46635421281E+02 -0.25188224886E+03  0.28538241070E+03  0.12499883212E+03 0.  0.
          2    1    1    2  501    0  0.10070420965E+02  0.25481708678E+02 -0.31996445265E+03  0.32113545711E+03  0.00000000000E+00 0. -1.
          1    1    1    2  502    0  0.40321494706E+01  0.21153712603E+02  0.71985268651E+02  0.75137318883E+02  0.00000000000E+00 0. -1.
         22    1    3    3    0    0 -0.52540963527E+02 -0.41938073290E+02 -0.61537380628E+02  0.91138378602E+02  0.00000000000E+00 0.  1.
         22    1    3    3    0    0  0.38438393091E+02 -0.46973479908E+01 -0.19034486823E+03  0.19424403209E+03  0.00000000000E+00 0.  1.
</event>
<event>
 7    1  0.6315518E-006  0.8046170E+02  0.7818608E-02  0.1377623E+00
          2   -1    0    0  502    0  0.00000000000E+00  0.00000000000E+00  0.24819952488E+04  0.24819952488E+04  0.00000000000E+00 0. -1.
          1   -1    0    0  501    0 -0.00000000000E+00 -0.00000000000E+00 -0.96108000121E+02  0.96108000121E+02  0.00000000000E+00 0. -1.
         25    2    1    2    0    0 -0.51959966695E+02  0.12622731200E+02  0.88646792954E+03  0.89683300301E+03  0.12499949483E+03 0.  0.
          2    1    1    2  501    0 -0.31816777810E+02 -0.41960848553E+02 -0.81950553267E+02  0.97411053491E+02  0.00000000000E+00 0. -1.
          1    1    1    2  502    0  0.83776744505E+02  0.29338117353E+02  0.15813698724E+04  0.15838591924E+04  0.00000000000E+00 0. -1.
         22    1    3    3    0    0 -0.79588120666E+02 -0.36192190521E+01  0.33145604839E+03  0.34089658214E+03  0.00000000000E+00 0.  1.
         22    1    3    3    0    0  0.27628153970E+02  0.16241950252E+02  0.55501188114E+03  0.55593642087E+03  0.00000000000E+00 0.  1.
</event>
<event>
 7    1  0.6315518E-006  0.8390301E+02  0.7818608E-02  0.1364760E+00
          2   -1    0    0  502    0  0.00000000000E+00  0.00000000000E+00  0.75558900503E+02  0.75558900503E+02  0.00000000000E+00 0. -1.
          1   -1    0    0  501    0 -0.00000000000E+00 -0.00000000000E+00 -0.90489044497E+03  0.90489044497E+03  0.00000000000E+00 0. -1.
         25    2    1    2    0    0 -0.35762799244E+02  0.19626410892E+02 -0.18147621550E+03  0.22409017088E+03  0.12497445369E+03 0.  0.
          2    1    1    2  501    0  0.90233593774E+02 -0.59454846663E+01 -0.68375126925E+03  0.68970518951E+03  0.00000000000E+00 0. -1.
          1    1    1    2  502    0 -0.54470794530E+02 -0.13680926226E+02  0.35895940286E+02  0.66653985088E+02  0.00000000000E+00 0. -1.
         22    1    3    3    0    0 -0.68164619864E+02  0.27554251545E+02 -0.17539655390E+03  0.19018307837E+03  0.00000000000E+00 0. -1.
         22    1    3    3    0    0  0.32401820620E+02 -0.79278406522E+01 -0.60796616029E+01  0.33907092504E+02  0.00000000000E+00 0. -1.
</event>
<event>
 7    1  0.6315518E-006  0.2245587E+03  0.7818608E-02  0.1327478E+00
          2   -1    0    0  502    0  0.00000000000E+00  0.00000000000E+00  0.39722695328E+03  0.39722695328E+03  0.00000000000E+00 0. -1.
          1   -1    0    0  501    0 -0.00000000000E+00 -0.00000000000E+00 -0.13843927421E+04  0.13843927421E+04  0.00000000000E+00 0. -1.
         25    2    1    2    0    0  0.18451528278E+03 -0.12611860387E+03  0.11419704891E+03  0.28038668692E+03  0.12499574551E+03 0.  0.
          2    1    1    2  501    0  0.16981935225E+02  0.23382422138E+02 -0.12371095731E+04  0.12374470573E+04  0.00000000000E+00 0. -1.
          1    1    1    2  502    0 -0.20149721801E+03  0.10273618174E+03  0.13574673532E+03  0.26378595121E+03  0.00000000000E+00 0. -1.
         22    1    3    3    0    0  0.59321608785E+02 -0.59340124372E+02 -0.18715173929E+02  0.85968374211E+02  0.00000000000E+00 0. -1.
         22    1    3    3    0    0  0.12519367400E+03 -0.66778479503E+02  0.13291222284E+03  0.19441831270E+03  0.00000000000E+00 0. -1.
</event>
<event>
 7    1  0.6315518E-006  0.6505243E+02  0.7818608E-02  0.1460264E+00
          2   -1    0    0  502    0  0.00000000000E+00  0.00000000000E+00  0.17950609644E+04  0.17950609644E+04  0.00000000000E+00 0. -1.
          1   -1    0    0  501    0 -0.00000000000E+00 -0.00000000000E+00 -0.17047138968E+02  0.17047138968E+02  0.00000000000E+00 0. -1.
         25    2    1    2    0    0  0.30775990319E+02 -0.56814588793E+02  0.33991535207E+03  0.36788173637E+03  0.12497786326E+03 0.  0.
          2    1    1    2  501    0 -0.61098311447E+02  0.40475183091E+02  0.12937903375E+04  0.12958644534E+04  0.00000000000E+00 0. -1.
          1    1    1    2  502    0  0.30322321128E+02  0.16339405703E+02  0.14430813585E+03  0.14836191361E+03  0.00000000000E+00 0. -1.
         22    1    3    3    0    0 -0.27590513222E+02  0.19382267067E+02  0.36701197429E+02  0.49838605410E+02  0.00000000000E+00 0.  1.
         22    1    3    3    0    0  0.58366503541E+02 -0.76196855861E+02  0.30321415464E+03  0.31804313096E+03  0.00000000000E+00 0.  1.
</event>
<event>
 7    1  0.6315518E-006  0.1378563E+03  0.7818608E-02  0.1330669E+00
          2   -1    0    0  502    0  0.00000000000E+00  0.00000000000E+00  0.21633849121E+03  0.21633849121E+03  0.00000000000E+00 0. -1.
          1   -1    0    0  501    0 -0.00000000000E+00 -0.00000000000E+00 -0.75204710107E+03  0.75204710107E+03  0.00000000000E+00 0. -1.
         25    2    1    2    0    0  0.14038529820E+03 -0.63596927559E+02 -0.18886783743E+03  0.27395132961E+03  0.12500267932E+03 0.  0.
          2    1    1    2  501    0 -0.13432347706E+03  0.18231121633E+02 -0.50858447466E+03  0.52633956544E+03  0.00000000000E+00 0. -1.
          1    1    1    2  502    0 -0.60618211403E+01  0.45365805926E+02  0.16174370223E+03  0.16809469722E+03  0.00000000000E+00 0. -1.
         22    1    3    3    0    0  0.15083681216E+03 -0.56432359444E+02 -0.11228428302E+03  0.19632655274E+03  0.00000000000E+00 0. -1.
         22    1    3    3    0    0 -0.10451513959E+02 -0.71645681155E+01 -0.76583554403E+02  0.77624776878E+02  0.00000000000E+00 0. -1.
</event>
<event>
 7    1  0.6315518E-006  0.6070815E+02  0.7818608E-02  0.1502093E+00
          2   -1    0    0  502    0  0.00000000000E+00  0.00000000000E+00  0.13001816117E+04  0.13001816117E+04  0.00000000000E+00 0. -1.
          1   -1    0    0  501    0 -0.00000000000E+00 -0.00000000000E+00 -0.17320800831E+03  0.17320800831E+03  0.00000000000E+00 0. -1.
         25    2    1    2    0    0  0.49002374656E+02 -0.43769448399E+02  0.73126894539E+02  0.15902781481E+03  0.12500122337E+03 0.  0.
          2    1    1    2  501    0 -0.24247947291E+02  0.55699287193E+02 -0.12300559083E+03  0.13718873466E+03  0.00000000000E+00 0. -1.
          1    1    1    2  502    0 -0.24754427365E+02 -0.11929838794E+02  0.11768522997E+04  0.11771730706E+04  0.00000000000E+00 0. -1.
         22    1    3    3    0    0  0.74385528335E+02 -0.36512080980E+02  0.17029271423E+01  0.82880871400E+02  0.00000000000E+00 0. -1.
         22    1    3    3    0    0 -0.25383153679E+02 -0.72573674191E+01  0.71423967396E+02  0.76146943413E+02  0.00000000000E+00 0. -1.
</event>
<event>
 7    1  0.6315518E-006  0.5157208E+02  0.7818608E-02  0.1527197E+00
          2   -1    0    0  502    0  0.00000000000E+00  0.00000000000E+00  0.13979301506E+04  0.13979301506E+04  0.00000000000E+00 0. -1.
          1   -1    0    0  501    0 -0.00000000000E+00 -0.00000000000E+00 -0.28112385120E+02  0.28112385120E+02  0.00000000000E+00 0. -1.
         25    2    1    2    0    0 -0.18637874957E+02  0.66498639100E+02  0.51328965765E+03  0.53278555468E+03  0.12499894095E+03 0.  0.
          2    1    1    2  501    0  0.29257128918E+02 -0.41332555147E+02  0.17194552313E+02  0.53479083170E+02  0.00000000000E+00 0. -1.
          1    1    1    2  502    0 -0.10619253961E+02 -0.25166083953E+02  0.83933355554E+03  0.83977789789E+03  0.00000000000E+00 0. -1.
         22    1    3    3    0    0 -0.54277575172E+02  0.85344735272E+02  0.39798685336E+03  0.41063769244E+03  0.00000000000E+00 0. -1.
         22    1    3    3    0    0  0.35639700216E+02 -0.18846096171E+02  0.11530280429E+03  0.12214786224E+03  0.00000000000E+00 0. -1.
</event>
<event>
 7    1  0.6315518E-006  0.7625590E+02  0.7818608E-02  0.1354998E+00
          2   -1    0    0  502    0  0.00000000000E+00  0.00000000000E+00  0.80914571295E+03  0.80914571295E+03  0.00000000000E+00 0. -1.
          1   -1    0    0  501    0 -0.00000000000E+00 -0.00000000000E+00 -0.73294470484E+03  0.73294470484E+03  0.00000000000E+00 0. -1.
         25    2    1    2    0    0  0.68958372424E+02 -0.59190246830E+02  0.23994273479E+03  0.28540368752E+03  0.12499602563E+03 0.  0.
          2    1    1    2  501    0  0.81818326701E+01  0.66577871272E+02 -0.70586891964E+03  0.70904900187E+03  0.00000000000E+00 0. -1.
          1    1    1    2  502    0 -0.77140205094E+02 -0.73876244423E+01  0.54212719296E+03  0.54763772841E+03  0.00000000000E+00 0. -1.
         22    1    3    3    0    0  0.45815166247E+02 -0.98250791361E+02  0.15599556771E+03  0.18996543003E+03  0.00000000000E+00 0.  1.
         22    1    3    3    0    0  0.23143206177E+02  0.39060544531E+02  0.83947167086E+02  0.95438257492E+02  0.00000000000E+00 0.  1.
</event>
<event>
 7    1  0.6315518E-006  0.4332102E+02  0.7818608E-02  0.1518279E+00
          2   -1    0    0  502    0  0.00000000000E+00  0.00000000000E+00  0.40980371927E+03  0.40980371927E+03  0.00000000000E+00 0. -1.
          1   -1    0    0  501    0 -0.00000000000E+00 -0.00000000000E+00 -0.55945279662E+02  0.55945279662E+02  0.00000000000E+00 0. -1.
         25    2    1    2    0    0 -0.30417679454E+02  0.16267785514E+02  0.63117141878E+02  0.14421770521E+03  0.12500038731E+03 0.  0.
          2    1    1    2  501    0 -0.10559879319E+02 -0.32852414864E+02  0.80893777803E+01  0.35443338535E+02  0.00000000000E+00 0. -1.
          1    1    1    2  502    0  0.40977558773E+02  0.16584629350E+02  0.28265191995E+03  0.28608795519E+03  0.00000000000E+00 0. -1.
         22    1    3    3    0    0 -0.34642773479E+02 -0.45764443937E+02  0.26061135055E+01  0.57456922218E+02  0.00000000000E+00 0. -1.
         22    1    3    3    0    0  0.42250940243E+01  0.62032229451E+02  0.60511028373E+02  0.86760782989E+02  0.00000000000E+00 0. -1.
</event>
<event>
 7    1  0.6315518E-006  0.3237395E+02  0.7818608E-02  0.1628747E+00
          2   -1    0    0  502    0  0.00000000000E+00  0.00000000000E+00  0.29212556660E+04  0.29212556660E+04  0.00000000000E+00 0. -1.
          1   -1    0    0  501    0 -0.00000000000E+00 -0.00000000000E+00 -0.13525005006E+02  0.13525005006E+02  0.00000000000E+00 0. -1.
         25    2    1    2    0    0  0.92003203164E+01 -0.27579698314E+02  0.73556297257E+03  0.74667324600E+03  0.12499105574E+03 0.  0.
          2    1    1    2  501    0  0.19639180881E+02  0.12331909303E+02  0.92865138561E+01  0.24980247243E+02  0.00000000000E+00 0. -1.
          1    1    1    2  502    0 -0.28839501197E+02  0.15247789011E+02  0.21628811745E+04  0.21631271777E+04  0.00000000000E+00 0. -1.
         22    1    3    3    0    0  0.30174024473E+02 -0.72580027552E+02  0.43807369253E+03  0.44506953641E+03  0.00000000000E+00 0.  1.
         22    1    3    3    0    0 -0.20973704156E+02  0.45000329238E+02  0.29748928004E+03  0.30160370958E+03  0.00000000000E+00 0.  1.
</event>
<event>
 7    1  0.6315518E-006  0.1000542E+03  0.7818608E-02  0.1355326E+00
          2   -1    0    0  502    0  0.00000000000E+00  0.00000000000E+00  0.98885733825E+03  0.98885733825E+03  0.00000000000E+00 0. -1.
          1   -1    0    0  501    0 -0.00000000000E+00 -0.00000000000E+00 -0.16392383758E+03  0.16392383758E+03  0.00000000000E+00 0. -1.
         25    2    1    2    0    0 -0.21962433495E+02  0.10996137793E+03  0.12444169519E+03  0.20900706025E+03  0.12499745043E+03 0.  0.
          2    1    1    2  501    0  0.49103963369E+02 -0.13711261723E+02 -0.11309979431E+03  0.12405950746E+03  0.00000000000E+00 0. -1.
          1    1    1    2  502    0 -0.27141529874E+02 -0.96250116211E+02  0.81359159979E+03  0.81971460812E+03  0.00000000000E+00 0. -1.
         22    1    3    3    0    0 -0.20081063157E+02  0.18563422973E+00 -0.19487235417E+02  0.27982778664E+02  0.00000000000E+00 0. -1.
         22    1    3    3    0    0 -0.18813703377E+01  0.10977574370E+03  0.14392893061E+03  0.18102428159E+03  0.00000000000E+00 0. -1.
</event>
<event>
 7    1  0.6315518E-006  0.1926193E+03  0.7818608E-02  0.1227836E+00
          2   -1    0    0  502    0  0.00000000000E+00  0.00000000000E+00  0.37703575138E+04  0.37703575138E+04  0.00000000000E+00 0. -1.
          1   -1    0    0  501    0 -0.00000000000E+00 -0.00000000000E+00 -0.11823586475E+04  0.11823586475E+04  0.00000000000E+00 0. -1.
         25    2    1    2    0    0  0.82772008670E+02  0.10853256345E+03  0.66621700766E+03  0.69144811434E+03  0.12499948311E+03 0.  0.
          2    1    1    2  501    0  0.85884640120E+02  0.16166264427E+02 -0.11645462204E+04  0.11678207992E+04  0.00000000000E+00 0. -1.
          1    1    1    2  502    0 -0.16865664879E+03 -0.12469882788E+03  0.30863280791E+04  0.30934472478E+04  0.00000000000E+00 0. -1.
         22    1    3    3    0    0 -0.14187897853E+02  0.20202425916E+02  0.19209981135E+02  0.31280310638E+02  0.00000000000E+00 0.  1.
         22    1    3    3    0    0  0.96959906523E+02  0.88330137539E+02  0.64700702653E+03  0.66016780370E+03  0.00000000000E+00 0.  1.
</event>
<event>
 7    1  0.6315518E-006  0.1712901E+03  0.7818608E-02  0.1316891E+00
          2   -1    0    0  502    0  0.00000000000E+00  0.00000000000E+00  0.23368187525E+04  0.23368187525E+04  0.00000000000E+00 0. -1.
          1   -1    0    0  501    0 -0.00000000000E+00 -0.00000000000E+00 -0.48915228935E+03  0.48915228935E+03  0.00000000000E+00 0. -1.
         25    2    1    2    0    0  0.17621881540E+03 -0.12315307869E+02  0.19032051422E+03  0.28818637053E+03  0.12499899327E+03 0.  0.
          2    1    1    2  501    0 -0.16319953401E+03  0.51857728368E+02 -0.42335059529E+03  0.45667169654E+03  0.00000000000E+00 0. -1.
          1    1    1    2  502    0 -0.13019281386E+02 -0.39542420499E+02  0.20806965442E+04  0.20811129748E+04  0.00000000000E+00 0. -1.
         22    1    3    3    0    0  0.25131689133E+02  0.19047793301E+02  0.10958825913E+03  0.11403511199E+03  0.00000000000E+00 0.  1.
         22    1    3    3    0    0  0.15108712627E+03 -0.31363101170E+02  0.80732255091E+02  0.17415125854E+03  0.00000000000E+00 0.  1.
</event>
<event>
 7    1  0.6315518E-006  0.2152844E+03  0.7818608E-02  0.1320680E+00
          2   -1    0    0  502    0  0.00000000000E+00  0.00000000000E+00  0.30339608739E+04  0.30339608739E+04  0.00000000000E+00 0. -1.
          1   -1    0    0  501    0 -0.00000000000E+00 -0.00000000000E+00 -0.40922280774E+03  0.40922280774E+03  0.00000000000E+00 0. -1.
         25    2    1    2    0    0 -0.20006360721E+03  0.75370008261E+02  0.24700314803E+04  0.24824155080E+04  0.12500062190E+03 0.  0.
          2    1    1    2  501    0  0.18798156284E+03 -0.10502163998E+03 -0.37375041362E+03  0.43134207366E+03  0.00000000000E+00 0. -1.
          1    1    1    2  502    0  0.12082044374E+02  0.29651631718E+02  0.52845699946E+03  0.52942609998E+03  0.00000000000E+00 0. -1.
         22    1    3    3    0    0 -0.13061465436E+03  0.10492436763E+03  0.19074512927E+04  0.19147949616E+04  0.00000000000E+00 0. -1.
         22    1    3    3    0    0 -0.69448952857E+02 -0.29554359374E+02  0.56258018757E+03  0.56762054637E+03  0.00000000000E+00 0. -1.
</event>
<event>
 7    1  0.6315518E-006  0.3231087E+02  0.7818608E-02  0.1604207E+00
          2   -1    0    0  502    0  0.00000000000E+00  0.00000000000E+00  0.63833563331E+02  0.63833563331E+02  0.00000000000E+00 0. -1.
          1   -1    0    0  501    0 -0.00000000000E+00 -0.00000000000E+00 -0.70594102269E+03  0.70594102269E+03  0.00000000000E+00 0. -1.
         25    2    1    2    0    0 -0.12089351868E+02 -0.37187257089E+02 -0.35484667034E+03  0.37824697766E+03  0.12500228854E+03 0.  0.
          2    1    1    2  501    0 -0.13638497724E+02  0.29509067183E+02 -0.33509778240E+03  0.33667093346E+03  0.00000000000E+00 0. -1.
          1    1    1    2  502    0  0.25727849592E+02  0.76781899064E+01  0.47836993384E+02  0.54856674899E+02  0.00000000000E+00 0. -1.
         22    1    3    3    0    0  0.33784794853E+02 -0.58154095341E+02 -0.11559769254E+03  0.13373906568E+03  0.00000000000E+00 0.  1.
         22    1    3    3    0    0 -0.45874146721E+02  0.20966838251E+02 -0.23924897780E+03  0.24450791198E+03  0.00000000000E+00 0.  1.
</event>
<event>
 7    1  0.6315518E-006  0.8050737E+02  0.7818608E-02  0.1390747E+00
          2   -1    0    0  502    0  0.00000000000E+00  0.00000000000E+00  0.47473260807E+03  0.47473260807E+03  0.00000000000E+00 0. -1.
          1   -1    0    0  501    0 -0.00000000000E+00 -0.00000000000E+00 -0.58704832281E+03  0.58704832281E+03  0.00000000000E+00 0. -1.
         25    2    1    2    0    0 -0.33240509722E+02 -0.23437871806E+02  0.10723739062E+03  0.16963917917E+03  0.12499331118E+03 0.  0.
          2    1    1    2  501    0 -0.35572877014E+02 -0.31203185079E+02 -0.54907270699E+03  0.55110788953E+03  0.00000000000E+00 0. -1.
          1    1    1    2  502    0  0.68813386736E+02  0.54641056885E+02  0.32951960164E+03  0.34103386218E+03  0.00000000000E+00 0. -1.
         22    1    3    3    0    0 -0.58521706976E+02 -0.44275881138E+02  0.19420294008E+02  0.75909759961E+02  0.00000000000E+00 0. -1.
         22    1    3    3    0    0  0.25281197254E+02  0.20838009332E+02  0.87817096610E+02  0.93729419205E+02  0.00000000000E+00 0. -1.
</event>
<event>
 7    1  0.6315518E-006  0.1129347E+03  0.7818608E-02  0.1389996E+00
          2   -1    0    0  502    0  0.00000000000E+00  0.00000000000E+00  0.67942334170E+03  0.67942334170E+03  0.00000000000E+00 0. -1.
          1   -1    0    0  501    0 -0.00000000000E+00 -0.00000000000E+00 -0.48468962777E+03  0.48468962777E+03  0.00000000000E+00 0. -1.
         25    2    1    2    0    0 -0.91633895832E+02  0.12226052254E+02  0.10299156021E+03  0.18649042617E+03  0.12500068144E+03 0.  0.
          2    1    1    2  501    0 -0.17080438662E+02  0.29324350438E+02 -0.43593961225E+03  0.43725850986E+03  0.00000000000E+00 0. -1.
          1    1    1    2  502    0  0.10871433449E+03 -0.41550402691E+02  0.52768176598E+03  0.54036403344E+03  0.00000000000E+00 0. -1.
         22    1    3    3    0    0 -0.56610989211E+02  0.13373329865E+01  0.12943181307E+03  0.14127698607E+03  0.00000000000E+00 0.  1.
         22    1    3    3    0    0 -0.35022906621E+02  0.10888719267E+02 -0.26440252853E+02  0.45213440108E+02  0.00000000000E+00 0.  1.
</event>
<event>
 7    1  0.6315518E-006  0.9183846E+02  0.7818608E-02  0.1411995E+00
          2   -1    0    0  502    0  0.00000000000E+00  0.00000000000E+00  0.12195049477E+04  0.12195049477E+04  0.00000000000E+00 0. -1.
          1   -1    0    0  501    0 -0.00000000000E+00 -0.00000000000E+00 -0.41230335143E+03  0.41230335143E+03  0.00000000000E+00 0. -1.
         25    2    1    2    0    0  0.18325411485E+02 -0.11996498647E+03 -0.12035661733E+03  0.21175708253E+03  0.12501171137E+03 0.  0.
          2    1    1    2  501    0 -0.18612677482E+02  0.84897312566E+02 -0.23830549601E+03  0.25366019568E+03  0.00000000000E+00 0. -1.
          1    1    1    2  502    0  0.28726599721E+00  0.35067673905E+02  0.11658637096E+04  0.11663910209E+04  0.00000000000E+00 0. -1.
         22    1    3    3    0    0  0.15282990423E+01 -0.27831982829E+02  0.25923986373E+02  0.38065838171E+02  0.00000000000E+00 0.  1.
         22    1    3    3    0    0  0.16797112443E+02 -0.92133003642E+02 -0.14628060370E+03  0.17369124436E+03  0.00000000000E+00 0.  1.
</event>
<event>
 7    1  0.6315518E-006  0.1322285E+03  0.7818608E-02  0.1283318E+00
          2   -1    0    0  502    0  0.00000000000E+00  0.00000000000E+00  0.21960732391E+04  0.21960732391E+04  0.00000000000E+00 0. -1.
          1   -1    0    0  501    0 -0.00000000000E+00 -0.00000000000E+00 -0.36788998494E+03  0.36788998494E+03  0.00000000000E+00 0. -1.
         25    2    1    2    0    0  0.47052699338E+02  0.69942036947E+02  0.74244241892E+03  0.75759611829E+03  0.12500115195E+03 0.  0.
          2    1    1    2  501    0 -0.91267239229E+01 -0.13288829536E+03 -0.34702861781E+03  0.37171421510E+03  0.00000000000E+00 0. -1.
          1    1    1    2  502    0 -0.37925975415E+02  0.62946258409E+02  0.14327694531E+04  0.14346528907E+04  0.00000000000E+00 0. -1.
         22    1    3    3    0    0 -0.32762800184E+02  0.35957115496E+02  0.44820426142E+03  0.45083630642E+03  0.00000000000E+00 0.  1.
         22    1    3    3    0    0  0.79815499522E+02  0.33984921451E+02  0.29423815750E+03  0.30675981187E+03  0.00000000000E+00 0.  1.
</event>
<event>
 7    1  0.6315518E-006  0.1554680E+03  0.7818608E-02  0.1315115E+00
          2   -1    0    0  502    0  0.00000000000E+00  0.00000000000E+00  0.61304837718E+03  0.61304837718E+03  0.00000000000E+00 0. -1.
          1   -1    0    0  501    0 -0.00000000000E+00 -0.00000000000E+00 -0.13864083737E+04  0.13864083737E+04  0.00000000000E+00 0. -1.
         25    2    1    2    0    0  0.10470594674E+03  0.91408144002E+02  0.13456732668E+03  0.23033276420E+03  0.12500413106E+03 0.  0.
          2    1    1    2  501    0  0.41386509861E+02 -0.21429694257E+02 -0.13228661541E+04  0.13236868726E+04  0.00000000000E+00 0. -1.
          1    1    1    2  502    0 -0.14609245660E+03 -0.69978449745E+02  0.41493883086E+03  0.44543711415E+03  0.00000000000E+00 0. -1.
         22    1    3    3    0    0  0.67321666716E+02  0.46025805698E+02  0.14893931206E+03  0.16980429993E+03  0.00000000000E+00 0.  1.
         22    1    3    3    0    0  0.37384280020E+02  0.45382338304E+02 -0.14371985380E+02  0.60528464265E+02  0.00000000000E+00 0.  1.
</event>
<event>
 7    1  0.7426596E-006  0.5366520E+02  0.7818608E-02  0.1438934E+00
          2   -1    0    0  502    0  0.00000000000E+00  0.00000000000E+00  0.74551757495E+03  0.74551757495E+03  0.00000000000E+00 0. -1.
          1   -1    0    0  501    0 -0.00000000000E+00 -0.00000000000E+00 -0.14188074822E+04  0.14188074822E+04  0.00000000000E+00 0. -1.
         25    2    1    2    0    0 -0.33647106063E+01  0.46525279256E+01 -0.28540257679E+03  0.31162943005E+03  0.12500121415E+03 0.  0.
          2    1    1    2  501    0 -0.45209648839E+02  0.18538273500E+02 -0.11187685210E+04  0.11198350698E+04  0.00000000000E+00 0. -1.
          1    1    1    2  502    0  0.48574359446E+02 -0.23190801426E+02  0.73088119059E+03  0.73286055728E+03  0.00000000000E+00 0. -1.
         22    1    3    3    0    0 -0.40613308155E+02 -0.15605355764E+01 -0.26616174568E+03  0.26924700728E+03  0.00000000000E+00 0.  1.
         22    1    3    3    0    0  0.37248597549E+02  0.62130635020E+01 -0.19240831118E+02  0.42382422766E+02  0.00000000000E+00 0.  1.
</event>
<event>
 7    1  0.6315518E-006  0.5246317E+02  0.7818608E-02  0.1465706E+00
          2   -1    0    0  502    0  0.00000000000E+00  0.00000000000E+00  0.20251681551E+04  0.20251681551E+04  0.00000000000E+00 0. -1.
          1   -1    0    0  501    0 -0.00000000000E+00 -0.00000000000E+00 -0.11495158247E+02  0.11495158247E+02  0.00000000000E+00 0. -1.
         25    2    1    2    0    0  0.53269419694E+02  0.64171160546E+02  0.14220721728E+04  0.14299899105E+04  0.12500524245E+03 0.  0.
          2    1    1    2  501    0 -0.44709657137E+02 -0.24012013457E+02  0.89427617727E+02  0.10282426291E+03  0.00000000000E+00 0. -1.
          1    1    1    2  502    0 -0.85597625567E+01 -0.40159147088E+02  0.50217320636E+03  0.50384913994E+03  0.00000000000E+00 0. -1.
         22    1    3    3    0    0  0.48947038560E+02  0.55885723920E+02  0.14177475786E+04  0.14196926510E+04  0.00000000000E+00 0. -1.
         22    1    3    3    0    0  0.43223811338E+01  0.82854366256E+01  0.43245942227E+01  0.10297259535E+02  0.00000000000E+00 0. -1.
</event>
<event>
 7    1  0.6315518E-006  0.1247364E+03  0.7818608E-02  0.1304969E+00
          2   -1    0    0  502    0  0.00000000000E+00  0.00000000000E+00  0.35246387843E+03  0.35246387843E+03  0.00000000000E+00 0. -1.
          1   -1    0    0  501    0 -0.00000000000E+00 -0.00000000000E+00 -0.43830080031E+03  0.43830080031E+03  0.00000000000E+00 0. -1.
         25    2    1    2    0    0 -0.11342836837E+03 -0.10787177459E+03  0.28507411558E+02  0.20233462038E+03  0.12499724631E+03 0.  0.
          2    1    1    2  501    0  0.63654660306E+02 -0.21101684375E+01 -0.33279904812E+03  0.33883856778E+03  0.00000000000E+00 0. -1.
          1    1    1    2  502    0  0.49773708063E+02  0.10998194303E+03  0.21845471467E+03  0.24959149058E+03  0.00000000000E+00 0. -1.
         22    1    3    3    0    0 -0.79512447885E+02 -0.98451402878E+02 -0.33609945835E+02  0.13093714735E+03  0.00000000000E+00 0. -1.
         22    1    3    3    0    0 -0.33915920484E+02 -0.94203717164E+01  0.62117357393E+02  0.71397473029E+02  0.00000000000E+00 0. -1.
</event>
<event>
 7    1  0.6315518E-006  0.7595606E+02  0.7818608E-02  0.1481144E+00
          2   -1    0    0  502    0  0.00000000000E+00  0.00000000000E+00  0.16305617769E+04  0.16305617769E+04  0.00000000000E+00 0. -1.
          1   -1    0    0  501    0 -0.00000000000E+00 -0.00000000000E+00 -0.11354530857E+03  0.11354530857E+03  0.00000000000E+00 0. -1.
         25    2    1    2    0    0 -0.77522428939E+02 -0.20780086830E+01  0.16663132650E+03  0.22227419169E+03  0.12500308882E+03 0.  0.
          2    1    1    2  501    0  0.72645482086E+02 -0.22855093809E+02 -0.68673749778E+02  0.10254660057E+03  0.00000000000E+00 0. -1.
          1    1    1    2  502    0  0.48769468529E+01  0.24933102492E+02  0.14190588917E+04  0.14192862932E+04  0.00000000000E+00 0. -1.
         22    1    3    3    0    0  0.17742498237E+02  0.28097637459E+02  0.91216021836E+02  0.97080565068E+02  0.00000000000E+00 0.  1.
         22    1    3    3    0    0 -0.95264927177E+02 -0.30175646142E+02  0.75415304660E+02  0.12519362662E+03  0.00000000000E+00 0.  1.
</event>
<event>
 7    1  0.6315518E-006  0.2165249E+03  0.7818608E-02  0.1196086E+00
          2   -1    0    0  502    0  0.00000000000E+00  0.00000000000E+00  0.35851893733E+03  0.35851893733E+03  0.00000000000E+00 0. -1.
          1   -1    0    0  501    0 -0.00000000000E+00 -0.00000000000E+00 -0.89517779469E+03  0.89517779469E+03  0.00000000000E+00 0. -1.
         25    2    1    2    0    0 -0.11540007457E+03 -0.12840087972E+03  0.89407780958E+02  0.23113437840E+03  0.12500154583E+03 0.  0.
          2    1    1    2  501    0 -0.91054980923E+02 -0.59917140074E+02 -0.71965710879E+03  0.72786497886E+03  0.00000000000E+00 0. -1.
          1    1    1    2  502    0  0.20645505549E+03  0.18831801980E+03  0.93590470470E+02  0.29469737475E+03  0.00000000000E+00 0. -1.
         22    1    3    3    0    0  0.23768637007E+02 -0.30265296336E+02  0.35920402152E+02  0.52642298185E+02  0.00000000000E+00 0.  1.
         22    1    3    3    0    0 -0.13916871158E+03 -0.98135583387E+02  0.53487378806E+02  0.17849208022E+03  0.00000000000E+00 0.  1.
</event>
<event>
 7    1  0.6315518E-006  0.1521357E+03  0.7818608E-02  0.1239431E+00
          2   -1    0    0  502    0  0.00000000000E+00  0.00000000000E+00  0.13129635462E+04  0.13129635462E+04  0.00000000000E+00 0. -1.
          1   -1    0    0  501    0 -0.00000000000E+00 -0.00000000000E+00 -0.29834593943E+03  0.29834593943E+03  0.00000000000E+00 0. -1.
         25    2    1    2    0    0 -0.70127367344E+02 -0.73464916720E+02  0.77477804384E+01  0.16124408624E+03  0.12499874242E+03 0.  0.
          2    1    1    2  501    0  0.53423116043E+02 -0.82438745758E+02 -0.20540793827E+03  0.22768969506E+03  0.00000000000E+00 0. -1.
          1    1    1    2  502    0  0.16704251300E+02  0.15590366248E+03  0.12122777646E+04  0.12223757044E+04  0.00000000000E+00 0. -1.
         22    1    3    3    0    0 -0.96405210205E+02 -0.86553740192E+02  0.16511355351E+02  0.13060681204E+03  0.00000000000E+00 0.  1.
         22    1    3    3    0    0  0.26277842861E+02  0.13088823472E+02 -0.87635749128E+01  0.30637274202E+02  0.00000000000E+00 0.  1.
</event>
<event>
 7    1  0.6315518E-006  0.5129551E+02  0.7818608E-02  0.1536935E+00
          2   -1    0    0  502    0  0.00000000000E+00  0.00000000000E+00  0.23592377027E+04  0.23592377027E+04  0.00000000000E+00 0. -1.
          1   -1    0    0  501    0 -0.00000000000E+00 -0.00000000000E+00 -0.53227094961E+01  0.53227094961E+01  0.00000000000E+00 0. -1.
         25    2    1    2    0    0 -0.43185763956E+01 -0.39796468973E+02  0.12945296506E+04  0.13011670185E+04  0.12500473877E+03 0.  0.
          2    1    1    2  501    0  0.28565121052E+02  0.48490209682E+02  0.45618867569E+03  0.45964701065E+03  0.00000000000E+00 0. -1.
          1    1    1    2  502    0 -0.24246544656E+02 -0.86937407096E+01  0.60319666694E+03  0.60374638307E+03  0.00000000000E+00 0. -1.
         22    1    3    3    0    0  0.38399800806E+02 -0.13496741342E+02  0.14670637091E+03  0.15224804102E+03  0.00000000000E+00 0. -1.
         22    1    3    3    0    0 -0.42718377202E+02 -0.26299727631E+02  0.11478232796E+04  0.11489189774E+04  0.00000000000E+00 0. -1.
</event>
<event>
 7    1  0.6315518E-006  0.7572361E+02  0.7818608E-02  0.1364123E+00
          2   -1    0    0  502    0  0.00000000000E+00  0.00000000000E+00  0.38941427543E+03  0.38941427543E+03  0.00000000000E+00 0. -1.
          1   -1    0    0  501    0 -0.00000000000E+00 -0.00000000000E+00 -0.12271224635E+04  0.12271224635E+04  0.00000000000E+00 0. -1.
         25    2    1    2    0    0  0.31829204893E+02 -0.18715314337E+02  0.41676007524E+02  0.13683611928E+03  0.12499549056E+03 0.  0.
          2    1    1    2  501    0 -0.14199570171E+02 -0.60928292159E+02 -0.11731515140E+04  0.11748184367E+04  0.00000000000E+00 0. -1.
          1    1    1    2  502    0 -0.17629634721E+02  0.79643606496E+02  0.29376731840E+03  0.30488218288E+03  0.00000000000E+00 0. -1.
         22    1    3    3    0    0  0.39412067771E+02 -0.68964625013E+02  0.23000588440E+02  0.82694967548E+02  0.00000000000E+00 0.  1.
         22    1    3    3    0    0 -0.75828628783E+01  0.50249310676E+02  0.18675419084E+02  0.54141151731E+02  0.00000000000E+00 0.  1.
</event>
<event>
 7    1  0.6315518E-006  0.2132135E+03  0.7818608E-02  0.1259895E+00
          2   -1    0    0  502    0  0.00000000000E+00  0.00000000000E+00  0.64495408230E+03  0.64495408230E+03  0.00000000000E+00 0. -1.
          1   -1    0    0  501    0 -0.00000000000E+00 -0.00000000000E+00 -0.19232845966E+04  0.19232845966E+04  0.00000000000E+00 0. -1.
         25    2    1    2    0    0  0.30184576253E+02 -0.21238230441E+03 -0.11434228283E+04  0.11700675814E+04  0.12500011574E+03 0.  0.
          2    1    1    2  501    0 -0.57122579036E+02  0.77942259942E+00 -0.74740872993E+03  0.74958882470E+03  0.00000000000E+00 0. -1.
          1    1    1    2  502    0  0.26938002783E+02  0.21160288181E+03  0.61250104400E+03  0.64858227271E+03  0.00000000000E+00 0. -1.
         22    1    3    3    0    0 -0.24289683545E+02 -0.55041773398E+02 -0.56388248906E+03  0.56708292781E+03  0.00000000000E+00 0. -1.
         22    1    3    3    0    0  0.54474259797E+02 -0.15734053101E+03 -0.57954033926E+03  0.60298465363E+03  0.00000000000E+00 0. -1.
</event>
<event>
 7    1  0.6315518E-006  0.2478157E+03  0.7818608E-02  0.1342731E+00
          2   -1    0    0  502    0  0.00000000000E+00  0.00000000000E+00  0.14816706593E+04  0.14816706593E+04  0.00000000000E+00 0. -1.
          1   -1    0    0  501    0 -0.00000000000E+00 -0.00000000000E+00 -0.26969497726E+03  0.26969497726E+03  0.00000000000E+00 0. -1.
         25    2    1    2    0    0 -0.24721709352E+03 -0.56606339651E+02  0.41554764309E+02  0.28578392932E+03  0.12500034722E+03 0.  0.
          2    1    1    2  501    0  0.21864310908E+01  0.22818019031E+02 -0.13500074909E+03  0.13693299357E+03  0.00000000000E+00 0. -1.
          1    1    1    2  502    0  0.24503066243E+03  0.33788320621E+02  0.13054216668E+04  0.13286487137E+04  0.00000000000E+00 0. -1.
         22    1    3    3    0    0 -0.84910554910E+02  0.33917916600E+02  0.40335213140E+02  0.99935763471E+02  0.00000000000E+00 0. -1.
         22    1    3    3    0    0 -0.16230653861E+03 -0.90524256252E+02  0.12195511697E+01  0.18584816585E+03  0.00000000000E+00 0. -1.
</event>
<event>
 7    1  0.6315518E-006  0.9863467E+02  0.7818608E-02  0.1417299E+00
          2   -1    0    0  502    0  0.00000000000E+00  0.00000000000E+00  0.41372749489E+03  0.41372749489E+03  0.00000000000E+00 0. -1.
          1   -1    0    0  501    0 -0.00000000000E+00 -0.00000000000E+00 -0.79200491795E+03  0.79200491795E+03  0.00000000000E+00 0. -1.
         25    2    1    2    0    0 -0.54835791446E+02  0.41070981030E+02  0.16041044843E+03  0.21459443168E+03  0.12500187454E+03 0.  0.
          2    1    1    2  501    0  0.83836488845E+02 -0.52945490468E+02 -0.76059401660E+03  0.76703001240E+03  0.00000000000E+00 0. -1.
          1    1    1    2  502    0 -0.29000697400E+02  0.11874509438E+02  0.22190614511E+03  0.22410796876E+03  0.00000000000E+00 0. -1.
         22    1    3    3    0    0 -0.67944442437E+02  0.63957748139E+02  0.16328160206E+03  0.18806361258E+03  0.00000000000E+00 0. -1.
         22    1    3    3    0    0  0.13108650992E+02 -0.22886767109E+02 -0.28711536232E+01  0.26530819110E+02  0.00000000000E+00 0. -1.
</event>
<event>
 7    1  0.6315518E-006  0.8283970E+02  0.7818608E-02  0.1399708E+00
          2   -1    0    0  502    0  0.00000000000E+00  0.00000000000E+00  0.79943776192E+03  0.79943776192E+03  0.00000000000E+00 0. -1.
          1   -1    0    0  501    0 -0.00000000000E+00 -0.00000000000E+00 -0.38037783338E+03  0.38037783338E+03  0.00000000000E+00 0. -1.
         25    2    1    2    0    0 -0.11067766710E+03  0.15994260787E+02 -0.15009848899E+03  0.22507797444E+03  0.12500070322E+03 0.  0.
          2    1    1    2  501    0  0.29496480085E+02 -0.31034355108E+02 -0.18814079354E+03  0.19295111228E+03  0.00000000000E+00 0. -1.
          1    1    1    2  502    0  0.81181187019E+02  0.15040094320E+02  0.75729921108E+03  0.76178650859E+03  0.00000000000E+00 0. -1.
         22    1    3    3    0    0 -0.96904540624E+02  0.64701660069E+02 -0.95800686349E+02  0.15084616771E+03  0.00000000000E+00 0. -1.
         22    1    3    3    0    0 -0.13773126480E+02 -0.48707399281E+02 -0.54297802644E+02  0.74231806726E+02  0.00000000000E+00 0. -1.
</event>
<event>
 7    1  0.6967653E-006  0.9783899E+02  0.7818608E-02  0.1470662E+00
          2   -1    0    0  502    0  0.00000000000E+00  0.00000000000E+00  0.22042562972E+04  0.22042562972E+04  0.00000000000E+00 0. -1.
          1   -1    0    0  501    0 -0.00000000000E+00 -0.00000000000E+00 -0.94035509818E+03  0.94035509818E+03  0.00000000000E+00 0. -1.
         25    2    1    2    0    0 -0.81174248258E+02  0.46070873897E+02 -0.39348949907E+03  0.42328722822E+03  0.12500523065E+03 0.  0.
          2    1    1    2  501    0  0.85082927817E+01  0.19470231834E+02 -0.53066054692E+03  0.53108577182E+03  0.00000000000E+00 0. -1.
          1    1    1    2  502    0  0.72665955476E+02 -0.65541105731E+02  0.21880512451E+04  0.21902383954E+04  0.00000000000E+00 0. -1.
         22    1    3    3    0    0  0.28762018281E+02 -0.11728660162E+02 -0.96361718197E+02  0.10124423884E+03  0.00000000000E+00 0.  1.
         22    1    3    3    0    0 -0.10993626654E+03  0.57799534058E+02 -0.29712778088E+03  0.32204298938E+03  0.00000000000E+00 0.  1.
</event>
<event>
 7    1  0.6315518E-006  0.3115050E+02  0.7818608E-02  0.1587580E+00
          2   -1    0    0  502    0  0.00000000000E+00  0.00000000000E+00  0.16464206942E+04  0.16464206942E+04  0.00000000000E+00 0. -1.
          1   -1    0    0  501    0 -0.00000000000E+00 -0.00000000000E+00 -0.59290140324E+03  0.59290140324E+03  0.00000000000E+00 0. -1.
         25    2    1    2    0    0 -0.37711907275E+01 -0.29954713763E+02  0.12174421413E+03  0.17708125529E+03  0.12499844217E+03 0.  0.
          2    1    1    2  501    0  0.28712392614E+02  0.11134670620E+02 -0.56465021577E+03  0.56548938854E+03  0.00000000000E+00 0. -1.
          1    1    1    2  502    0 -0.24941201887E+02  0.18820043143E+02  0.14964252926E+04  0.14967514536E+04  0.00000000000E+00 0. -1.
         22    1    3    3    0    0  0.67886215418E+01  0.46381162334E+02  0.70046155690E+02  0.84283815343E+02  0.00000000000E+00 0.  1.
         22    1    3    3    0    0 -0.10559812269E+02 -0.76335876097E+02  0.51698058435E+02  0.92797439946E+02  0.00000000000E+00 0.  1.
</event>
<event>
 7    1  0.6315518E-006  0.4830299E+02  0.7818608E-02  0.1538496E+00
          2   -1    0    0  502    0  0.00000000000E+00  0.00000000000E+00  0.24491327329E+03  0.24491327329E+03  0.00000000000E+00 0. -1.
          1   -1    0    0  501    0 -0.00000000000E+00 -0.00000000000E+00 -0.66054620793E+03  0.66054620793E+03  0.00000000000E+00 0. -1.
         25    2    1    2    0    0  0.53615019489E+02 -0.42017275708E+02 -0.40694866785E+03  0.43113099398E+03  0.12500677553E+03 0.  0.
          2    1    1    2  501    0 -0.41489546425E+02  0.17807651275E+02 -0.23859477638E+03  0.24282908026E+03  0.00000000000E+00 0. -1.
          1    1    1    2  502    0 -0.12125473064E+02  0.24209624434E+02  0.22991050959E+03  0.23149940698E+03  0.00000000000E+00 0. -1.
         22    1    3    3    0    0  0.72678110299E+02  0.19589092973E+02 -0.25950634902E+03  0.27020248974E+03  0.00000000000E+00 0.  1.
         22    1    3    3    0    0 -0.19063090809E+02 -0.61606368681E+02 -0.14744231883E+03  0.16092850423E+03  0.00000000000E+00 0.  1.
</event>
<event>
 7    1  0.6315518E-006  0.5618285E+02  0.7818608E-02  0.1445237E+00
          2   -1    0    0  502    0  0.00000000000E+00  0.00000000000E+00  0.14080295361E+04  0.14080295361E+04  0.00000000000E+00 0. -1.
          1   -1    0    0  501    0 -0.00000000000E+00 -0.00000000000E+00 -0.55234950134E+03  0.55234950134E+03  0.00000000000E+00 0. -1.
         25    2    1    2    0    0 -0.38563544346E+01  0.33119863659E+02  0.75685264848E+03  0.76783005085E+03  0.12500103457E+03 0.  0.
          2    1    1    2  501    0 -0.40244937687E+02 -0.39300180522E+02 -0.54464269291E+03  0.54753979046E+03  0.00000000000E+00 0. -1.
          1    1    1    2  502    0  0.44101292121E+02  0.61803168631E+01  0.64347007919E+03  0.64500919613E+03  0.00000000000E+00 0. -1.
         22    1    3    3    0    0  0.20865368928E+02 -0.36816386332E+02  0.45634198614E+03  0.45829992170E+03  0.00000000000E+00 0.  1.
         22    1    3    3    0    0 -0.24721723362E+02  0.69936249991E+02  0.30051066234E+03  0.30953012914E+03  0.00000000000E+00 0.  1.
</event>
<event>
 7    1  0.6315518E-006  0.1780927E+03  0.7818608E-02  0.1294909E+00
          2   -1    0    0  502    0  0.00000000000E+00  0.00000000000E+00  0.59704605116E+03  0.59704605116E+03  0.00000000000E+00 0. -1.
          1   -1    0    0  501    0 -0.00000000000E+00 -0.00000000000E+00 -0.92549916723E+03  0.92549916723E+03  0.00000000000E+00 0. -1.
         25    2    1    2    0    0 -0.16254290331E+03 -0.76002467582E+02 -0.80033225715E+03  0.82967085797E+03  0.12500176092E+03 0.  0.
          2    1    1    2  501    0  0.13401058980E+03  0.11576866081E+03 -0.37609247791E+02  0.18104053834E+03  0.00000000000E+00 0. -1.
          1    1    1    2  502    0  0.28532313515E+02 -0.39766193226E+02  0.50948838887E+03  0.51183382208E+03  0.00000000000E+00 0. -1.
         22    1    3    3    0    0 -0.11633033933E+03 -0.11073011779E+03 -0.60626419503E+03  0.62717635559E+03  0.00000000000E+00 0.  1.
         22    1    3    3    0    0 -0.46212563983E+02  0.34727650212E+02 -0.19406806212E+03  0.20249450238E+03  0.00000000000E+00 0.  1.
</event>
<event>
 7    1  0.6315518E-006  0.1238707E+03  0.7818608E-02  0.1288603E+00
          2   -1    0    0  502    0  0.00000000000E+00  0.00000000000E+00  0.20281595239E+04  0.20281595239E+04  0.00000000000E+00 0. -1.
          1   -1    0    0  501    0 -0.00000000000E+00 -0.00000000000E+00 -0.10141963974E+03  0.10141963974E+03  0.00000000000E+00 0. -1.
         25    2    1    2    0    0 -0.12523022446E+03  0.13163829735E+03  0.40319454334E+03  0.45956698264E+03  0.12499888523E+03 0.  0.
          2    1    1    2  501    0  0.21762408887E+02 -0.71391987298E+02 -0.51336196196E+02  0.90585999640E+02  0.00000000000E+00 0. -1.
          1    1    1    2  502    0  0.10346781557E+03 -0.60246310054E+02  0.15748815370E+04  0.15794261814E+04  0.00000000000E+00 0. -1.
         22    1    3    3    0    0 -0.14286543979E+03  0.13456705185E+03  0.32762928097E+03  0.38191592148E+03  0.00000000000E+00 0.  1.
         22    1    3    3    0    0  0.17635215334E+02 -0.29287544964E+01  0.75565262375E+02  0.77651061168E+02  0.00000000000E+00 0.  1.
</event>
<event>
 7    1  0.9696093E-006  0.5172897E+02  0.7818608E-02  0.1446725E+00
          2   -1    0    0  502    0  0.00000000000E+00  0.00000000000E+00  0.21380870833E+04  0.21380870833E+04  0.00000000000E+00 0. -1.
          1   -1    0    0  501    0 -0.00000000000E+00 -0.00000000000E+00 -0.79715684317E+03  0.79715684317E+03  0.00000000000E+00 0. -1.
         25    2    1    2    0    0  0.47536853374E+02  0.45353292937E+02 -0.12970721880E+03  0.19174337672E+03  0.12499954519E+03 0.  0.
          2    1    1    2  501    0 -0.15351964769E+00 -0.51917181920E+02 -0.63510065721E+03  0.63721916335E+03  0.00000000000E+00 0. -1.
          1    1    1    2  502    0 -0.47383333726E+02  0.65638889832E+01  0.21057381161E+04  0.21062813864E+04  0.00000000000E+00 0. -1.
         22    1    3    3    0    0  0.83973717325E+02  0.13511690798E+02 -0.50475162407E+02  0.98903452971E+02  0.00000000000E+00 0.  1.
         22    1    3    3    0    0 -0.36436863951E+02  0.31841602139E+02 -0.79232056388E+02  0.92839923745E+02  0.00000000000E+00 0.  1.
</event>
<event>
 7    1  0.6315518E-006  0.1441111E+03  0.7818608E-02  0.1326855E+00
          2   -1    0    0  502    0  0.00000000000E+00  0.00000000000E+00  0.13644990278E+03  0.13644990278E+03  0.00000000000E+00 0. -1.
          1   -1    0    0  501    0 -0.00000000000E+00 -0.00000000000E+00 -0.51724483457E+03  0.51724483457E+03  0.00000000000E+00 0. -1.
         25    2    1    2    0    0 -0.96487329313E+02 -0.45783968392E+02 -0.40294217877E+03  0.43519399352E+03  0.12500174431E+03 0.  0.
          2    1    1    2  501    0 -0.45271408939E+02  0.84045304180E+00 -0.36983500971E+02  0.58463545673E+02  0.00000000000E+00 0. -1.
          1    1    1    2  502    0  0.14175873825E+03  0.44943515350E+02  0.59130747957E+02  0.16003719817E+03  0.00000000000E+00 0. -1.
         22    1    3    3    0    0 -0.39304766046E+02 -0.76601614312E+02 -0.14007103398E+03  0.16441583412E+03  0.00000000000E+00 0. -1.
         22    1    3    3    0    0 -0.57182563267E+02  0.30817645920E+02 -0.26287114479E+03  0.27077815940E+03  0.00000000000E+00 0. -1.
</event>
<event>
 7    1  0.6315518E-006  0.5238509E+02  0.7818608E-02  0.1444438E+00
          2   -1    0    0  502    0  0.00000000000E+00  0.00000000000E+00  0.27281254393E+03  0.27281254393E+03  0.00000000000E+00 0. -1.
          1   -1    0    0  501    0 -0.00000000000E+00 -0.00000000000E+00 -0.44335460865E+03  0.44335460865E+03  0.00000000000E+00 0. -1.
         25    2    1    2    0    0  0.10462843433E+02  0.77444336192E+02  0.76025830476E+02  0.16586911507E+03  0.12500216052E+03 0.  0.
          2    1    1    2  501    0  0.25501992926E+02 -0.45588448874E+02 -0.39286055035E+03  0.39631814283E+03  0.00000000000E+00 0. -1.
          1    1    1    2  502    0 -0.35964836359E+02 -0.31855887318E+02  0.14629265516E+03  0.15397989468E+03  0.00000000000E+00 0. -1.
         22    1    3    3    0    0  0.13391541417E+02  0.31853813690E+02 -0.32924311381E+02  0.47728493671E+02  0.00000000000E+00 0.  1.
         22    1    3    3    0    0 -0.29286979849E+01  0.45590522503E+02  0.10895014186E+03  0.11814062140E+03  0.00000000000E+00 0.  1.
</event>
<event>
 7    1  0.6315518E-006  0.1733873E+03  0.7818608E-02  0.1336438E+00
          2   -1    0    0  502    0  0.00000000000E+00  0.00000000000E+00  0.44221332361E+03  0.44221332361E+03  0.00000000000E+00 0. -1.
          1   -1    0    0  501    0 -0.00000000000E+00 -0.00000000000E+00 -0.70389719736E+03  0.70389719736E+03  0.00000000000E+00 0. -1.
         25    2    1    2    0    0 -0.13090957687E+03 -0.12090011421E+03  0.12808595819E+03  0.25255563864E+03  0.12499673193E+03 0.  0.
          2    1    1    2  501    0  0.10207968477E+03  0.14002924452E+03 -0.62869403706E+03  0.65213851566E+03  0.00000000000E+00 0. -1.
          1    1    1    2  502    0  0.28829892103E+02 -0.19129130308E+02  0.23892420512E+03  0.24141636667E+03  0.00000000000E+00 0. -1.
         22    1    3    3    0    0 -0.38559113130E+02  0.18926308151E+02  0.54882509813E+02  0.69692899416E+02  0.00000000000E+00 0.  1.
         22    1    3    3    0    0 -0.92350463742E+02 -0.13982642236E+03  0.73203448372E+02  0.18286273923E+03  0.00000000000E+00 0.  1.
</event>
<event>
 7    1  0.6315518E-006  0.5810926E+02  0.7818608E-02  0.1527010E+00
          2   -1    0    0  502    0  0.00000000000E+00  0.00000000000E+00  0.15184467934E+04  0.15184467934E+04  0.00000000000E+00 0. -1.
          1   -1    0    0  501    0 -0.00000000000E+00 -0.00000000000E+00 -0.64499157087E+02  0.64499157087E+02  0.00000000000E+00 0. -1.
         25    2    1    2    0    0 -0.12210667261E+02  0.38756010463E+02  0.14460682084E+04  0.14520292118E+04  0.12499775961E+03 0.  0.
          2    1    1    2  501    0 -0.22310449205E+01 -0.58264266577E+02 -0.44393415425E+02  0.73283542861E+02  0.00000000000E+00 0. -1.
          1    1    1    2  502    0  0.14441712182E+02  0.19508256114E+02  0.52272843345E+02  0.57633195806E+02  0.00000000000E+00 0. -1.
         22    1    3    3    0    0  0.28084859811E+02 -0.26434201506E+02  0.87396174838E+03  0.87481235931E+03  0.00000000000E+00 0.  1.
         22    1    3    3    0    0 -0.40295527073E+02  0.65190211968E+02  0.57210646003E+03  0.57721685253E+03  0.00000000000E+00 0.  1.
</event>
<event>
 7    1  0.6315518E-006  0.8100307E+02  0.7818608E-02  0.1360728E+00
          2   -1    0    0  502    0  0.00000000000E+00  0.00000000000E+00  0.11209347943E+04  0.11209347943E+04  0.00000000000E+00 0. -1.
          1   -1    0    0  501    0 -0.00000000000E+00 -0.00000000000E+00 -0.16576544561E+04  0.16576544561E+04  0.00000000000E+00 0. -1.
         25    2    1    2    0    0 -0.47398892398E+02  0.32379393728E+01 -0.21017662328E+03  0.24910989085E+03  0.12499754196E+03 0.  0.
          2    1    1    2  501    0  0.55701856857E+02 -0.62832146657E+02 -0.14259535069E+04  0.14284235994E+04  0.00000000000E+00 0. -1.
          1    1    1    2  502    0 -0.83029644589E+01  0.59594207284E+02  0.10994104684E+04  0.11010557601E+04  0.00000000000E+00 0. -1.
         22    1    3    3    0    0 -0.25248786227E+02  0.16261747220E+02 -0.21967264647E+03  0.22171607347E+03  0.00000000000E+00 0. -1.
         22    1    3    3    0    0 -0.22150106171E+02 -0.13023807847E+02  0.94960231904E+01  0.27393817381E+02  0.00000000000E+00 0. -1.
</event>
<event>
 7    1  0.6315518E-006  0.4003752E+02  0.7818608E-02  0.1558498E+00
          2   -1    0    0  502    0  0.00000000000E+00  0.00000000000E+00  0.18226179672E+04  0.18226179672E+04  0.00000000000E+00 0. -1.
          1   -1    0    0  501    0 -0.00000000000E+00 -0.00000000000E+00 -0.94117841113E+02  0.94117841113E+02  0.00000000000E+00 0. -1.
         25    2    1    2    0    0  0.77717047040E+01  0.21148110760E+02  0.22090650863E+03  0.25481947268E+03  0.12500254446E+03 0.  0.
          2    1    1    2  501    0 -0.23933106928E+02  0.15876594026E+02 -0.74221988467E+02  0.79584944664E+02  0.00000000000E+00 0. -1.
          1    1    1    2  502    0  0.16161402224E+02 -0.37024704786E+02  0.15818156059E+04  0.15823313909E+04  0.00000000000E+00 0. -1.
         22    1    3    3    0    0  0.53018558722E+02 -0.20755440847E+02  0.15216955441E+03  0.16247254901E+03  0.00000000000E+00 0. -1.
         22    1    3    3    0    0 -0.45246854018E+02  0.41903551607E+02  0.68736954218E+02  0.92346923669E+02  0.00000000000E+00 0. -1.
</event>
<event>
 7    1  0.6315518E-006  0.7238567E+02  0.7818608E-02  0.1411702E+00
          2   -1    0    0  502    0  0.00000000000E+00  0.00000000000E+00  0.27934554495E+04  0.27934554495E+04  0.00000000000E+00 0. -1.
          1   -1    0    0  501    0 -0.00000000000E+00 -0.00000000000E+00 -0.35766955194E+03  0.35766955194E+03  0.00000000000E+00 0. -1.
         25    2    1    2    0    0  0.92788240940E+02  0.69452705082E+02  0.28229845853E+03  0.32977360186E+03  0.12499949159E+03 0.  0.
          2    1    1    2  501    0 -0.37287158375E+02 -0.24461415379E+02 -0.33192749397E+03  0.33490977035E+03  0.00000000000E+00 0. -1.
          1    1    1    2  502    0 -0.55501082565E+02 -0.44991289703E+02  0.24854149330E+04  0.24864416292E+04  0.00000000000E+00 0. -1.
         22    1    3    3    0    0 -0.10041201553E+02  0.48352097861E+02  0.16561465708E+03  0.17282061721E+03  0.00000000000E+00 0. -1.
         22    1    3    3    0    0  0.10282944249E+03  0.21100607221E+02  0.11668380145E+03  0.15695298465E+03  0.00000000000E+00 0. -1.
</event>
<event>
 7    1  0.6315518E-006  0.1806328E+03  0.7818608E-02  0.1371819E+00
          2   -1    0    0  502    0  0.00000000000E+00  0.00000000000E+00  0.16958391901E+04  0.16958391901E+04  0.00000000000E+00 0. -1.
          1   -1    0    0  501    0 -0.00000000000E+00 -0.00000000000E+00 -0.43356430151E+03  0.43356430151E+03  0.00000000000E+00 0. -1.
         25    2    1    2    0    0 -0.18465172479E+03 -0.61775417460E+02  0.93890928191E+03  0.96699960794E+03  0.12500056170E+03 0.  0.
          2    1    1    2  501    0  0.24488051346E+02  0.23747189714E+01 -0.40932477828E+03  0.41006350492E+03  0.00000000000E+00 0. -1.
          1    1    1    2  502    0  0.16016367344E+03  0.59400698488E+02  0.73269038495E+03  0.75234037873E+03  0.00000000000E+00 0. -1.
         22    1    3    3    0    0 -0.16788354494E+03 -0.92562577687E+02  0.85166193037E+03  0.87297237018E+03  0.00000000000E+00 0. -1.
         22    1    3    3    0    0 -0.16768179845E+02  0.30787160227E+02  0.87247351539E+02  0.94027237760E+02  0.00000000000E+00 0. -1.
</event>
<event>
 7    1  0.6315518E-006  0.1904155E+03  0.7818608E-02  0.1288682E+00
          2   -1    0    0  502    0  0.00000000000E+00  0.00000000000E+00  0.78831964753E+03  0.78831964753E+03  0.00000000000E+00 0. -1.
          1   -1    0    0  501    0 -0.00000000000E+00 -0.00000000000E+00 -0.61110010616E+03  0.61110010616E+03  0.00000000000E+00 0. -1.
         25    2    1    2    0    0  0.64771301061E+02 -0.14553216219E+03  0.13261513281E+02  0.20291512678E+03  0.12499499698E+03 0.  0.
          2    1    1    2  501    0  0.46002616422E+02 -0.15415064292E+02 -0.50104725181E+03  0.50339071651E+03  0.00000000000E+00 0. -1.
          1    1    1    2  502    0 -0.11077391748E+03  0.16094722649E+03  0.66500527989E+03  0.69311391040E+03  0.00000000000E+00 0. -1.
         22    1    3    3    0    0  0.43204604048E+02 -0.13561626261E+03 -0.37231430529E+02  0.14712099753E+03  0.00000000000E+00 0. -1.
         22    1    3    3    0    0  0.21566697013E+02 -0.99158995867E+01  0.50492943810E+02  0.55794129255E+02  0.00000000000E+00 0. -1.
</event>
<event>
 7    1  0.6315518E-006  0.4869113E+02  0.7818608E-02  0.1491235E+00
          2   -1    0    0  502    0  0.00000000000E+00  0.00000000000E+00  0.96066230586E+02  0.96066230586E+02  0.00000000000E+00 0. -1.
          1   -1    0    0  501    0 -0.00000000000E+00 -0.00000000000E+00 -0.27545933478E+03  0.27545933478E+03  0.00000000000E+00 0. -1.
         25    2    1    2    0    0  0.28100632440E+02 -0.39608000024E+02  0.33579729463E+02  0.13824351887E+03  0.12500093228E+03 0.  0.
          2    1    1    2  501    0  0.28034391411E+02  0.24035816141E+02 -0.80441006214E+02  0.88512163232E+02  0.00000000000E+00 0. -1.
          1    1    1    2  502    0 -0.56135023850E+02  0.15572183882E+02 -0.13253182744E+03  0.14476988326E+03  0.00000000000E+00 0. -1.
         22    1    3    3    0    0  0.68913977111E+02 -0.35743550445E+01  0.45306953774E+02  0.82550786281E+02  0.00000000000E+00 0. -1.
         22    1    3    3    0    0 -0.40813344671E+02 -0.36033644979E+02 -0.11727224311E+02  0.55692732594E+02  0.00000000000E+00 0. -1.
</event>
<event>
 7    1  0.6315518E-006  0.5765520E+02  0.7818608E-02  0.1422308E+00
          2   -1    0    0  502    0  0.00000000000E+00  0.00000000000E+00  0.17251785082E+03  0.17251785082E+03  0.00000000000E+00 0. -1.
          1   -1    0    0  501    0 -0.00000000000E+00 -0.00000000000E+00 -0.36257824307E+03  0.36257824307E+03  0.00000000000E+00 0. -1.
         25    2    1    2    0    0 -0.76406106246E+02 -0.31681469212E+02 -0.22406337012E+03  0.26957610686E+03  0.12500109998E+03 0.  0.
          2    1    1    2  501    0  0.21042622567E+02  0.47097688449E+02 -0.10396615981E+03  0.11606009912E+03  0.00000000000E+00 0. -1.
          1    1    1    2  502    0  0.55363483679E+02 -0.15416219237E+02  0.13796913768E+03  0.14945988791E+03  0.00000000000E+00 0. -1.
         22    1    3    3    0    0 -0.59824864325E+02  0.35994681285E+02 -0.16144615781E+03  0.17589625733E+03  0.00000000000E+00 0. -1.
         22    1    3    3    0    0 -0.16581241921E+02 -0.67676150497E+02 -0.62617212312E+02  0.93679849527E+02  0.00000000000E+00 0. -1.
</event>
<event>
 7    1  0.6315518E-006  0.1213551E+03  0.7818608E-02  0.1304099E+00
          2   -1    0    0  502    0  0.00000000000E+00  0.00000000000E+00  0.25825943401E+04  0.25825943401E+04  0.00000000000E+00 0. -1.
          1   -1    0    0  501    0 -0.00000000000E+00 -0.00000000000E+00 -0.80065066368E+03  0.80065066368E+03  0.00000000000E+00 0. -1.
         25    2    1    2    0    0 -0.72365112162E+02 -0.92054868324E+01  0.18709384454E+04  0.18765279539E+04  0.12500017979E+03 0.  0.
          2    1    1    2  501    0  0.99871307445E+02  0.69186680456E+02 -0.79167591373E+03  0.80094433463E+03  0.00000000000E+00 0. -1.
          1    1    1    2  502    0 -0.27506195283E+02 -0.59981193624E+02  0.70268114476E+03  0.70577271523E+03  0.00000000000E+00 0. -1.
         22    1    3    3    0    0  0.25250988529E+02 -0.35562128434E+02  0.56862802056E+03  0.57029825808E+03  0.00000000000E+00 0.  1.
         22    1    3    3    0    0 -0.97616100691E+02  0.26356641602E+02  0.13023104249E+04  0.13062296959E+04  0.00000000000E+00 0.  1.
</event>
<event>
 7    1  0.6315518E-006  0.1029835E+03  0.7818608E-02  0.1394669E+00
          2   -1    0    0  502    0  0.00000000000E+00  0.00000000000E+00  0.14915769734E+04  0.14915769734E+04  0.00000000000E+00 0. -1.
          1   -1    0    0  501    0 -0.00000000000E+00 -0.00000000000E+00 -0.10146510291E+03  0.10146510291E+03  0.00000000000E+00 0. -1.
         25    2    1    2    0    0 -0.45086951572E+02 -0.11753740214E+03  0.28679038167E+03  0.33722610922E+03  0.12499940648E+03 0.  0.
          2    1    1    2  501    0  0.56466192334E+02  0.83542997527E+02 -0.42505435558E+02  0.10942840291E+03  0.00000000000E+00 0. -1.
          1    1    1    2  502    0 -0.11379240762E+02  0.33994404614E+02  0.11458269244E+04  0.11463875642E+04  0.00000000000E+00 0. -1.
         22    1    3    3    0    0  0.16844101193E+02 -0.11275567646E+03  0.20439390858E+03  0.23403939024E+03  0.00000000000E+00 0.  1.
         22    1    3    3    0    0 -0.61931052765E+02 -0.47817256784E+01  0.82396473082E+02  0.10318671898E+03  0.00000000000E+00 0.  1.
</event>
<event>
 7    1  0.6315518E-006  0.4372308E+02  0.7818608E-02  0.1555953E+00
          2   -1    0    0  502    0  0.00000000000E+00  0.00000000000E+00  0.15018599300E+04  0.15018599300E+04  0.00000000000E+00 0. -1.
          1   -1    0    0  501    0 -0.00000000000E+00 -0.00000000000E+00 -0.79988516253E+02  0.79988516253E+02  0.00000000000E+00 0. -1.
         25    2    1    2    0    0  0.23571443871E+02 -0.44580251069E+02  0.95938039469E+03  0.96880218104E+03  0.12499565005E+03 0.  0.
          2    1    1    2  501    0  0.31398368376E+01  0.43616149138E+02 -0.68562448071E+02  0.81320577509E+02  0.00000000000E+00 0. -1.
          1    1    1    2  502    0 -0.26711280709E+02  0.96410193098E+00  0.53105346711E+03  0.53172568768E+03  0.00000000000E+00 0. -1.
         22    1    3    3    0    0  0.17863496767E+01 -0.70844697815E+02  0.87380804585E+03  0.87667705756E+03  0.00000000000E+00 0.  1.
         22    1    3    3    0    0  0.21785094194E+02  0.26264446746E+02  0.85572348840E+02  0.92125123489E+02  0.00000000000E+00 0.  1.
</event>
<event>
 7    1  0.6315518E-006  0.1204808E+03  0.7818608E-02  0.1437281E+00
          2   -1    0    0  502    0  0.00000000000E+00  0.00000000000E+00  0.93548883361E+03  0.93548883361E+03  0.00000000000E+00 0. -1.
          1   -1    0    0  501    0 -0.00000000000E+00 -0.00000000000E+00 -0.65967420247E+02  0.65967420247E+02  0.00000000000E+00 0. -1.
         25    2    1    2    0    0 -0.91396734434E+02 -0.64388706032E+02  0.49822005527E+03  0.52568679834E+03  0.12499647172E+03 0.  0.
          2    1    1    2  501    0 -0.16821247820E+01 -0.21971659366E+02 -0.39807375674E+02  0.45499566121E+02  0.00000000000E+00 0. -1.
          1    1    1    2  502    0  0.93078859216E+02  0.86360365398E+02  0.41110873377E+03  0.43026988940E+03  0.00000000000E+00 0. -1.
         22    1    3    3    0    0 -0.44886677666E+02 -0.35227596221E+01  0.39281444822E+03  0.39538641150E+03  0.00000000000E+00 0. -1.
         22    1    3    3    0    0 -0.46510056768E+02 -0.60865946410E+02  0.10540560705E+03  0.13030038684E+03  0.00000000000E+00 0. -1.
</event>
<event>
 7    1  0.6315518E-006  0.5006576E+02  0.7818608E-02  0.1474615E+00
          2   -1    0    0  502    0  0.00000000000E+00  0.00000000000E+00  0.17488627811E+04  0.17488627811E+04  0.00000000000E+00 0. -1.
          1   -1    0    0  501    0 -0.00000000000E+00 -0.00000000000E+00 -0.67530166530E+02  0.67530166530E+02  0.00000000000E+00 0. -1.
         25    2    1    2    0    0  0.49149455796E+02  0.52550368106E+02  0.16654819468E+03  0.22031819444E+03  0.12499838183E+03 0.  0.
          2    1    1    2  501    0 -0.75484489542E+00 -0.40361076765E+02 -0.30118626565E+02  0.50365841347E+02  0.00000000000E+00 0. -1.
          1    1    1    2  502    0 -0.48394610901E+02 -0.12189291340E+02  0.15449030464E+04  0.15457089118E+04  0.00000000000E+00 0. -1.
         22    1    3    3    0    0 -0.24003227860E+02  0.65103027317E+02  0.90687385748E+02  0.11418739443E+03  0.00000000000E+00 0. -1.
         22    1    3    3    0    0  0.73152683656E+02 -0.12552659212E+02  0.75860808928E+02  0.10613080001E+03  0.00000000000E+00 0. -1.
</event>
<event>
 7    1  0.6315518E-006  0.5527047E+02  0.7818608E-02  0.1459091E+00
          2   -1    0    0  502    0  0.00000000000E+00  0.00000000000E+00  0.16238262199E+04  0.16238262199E+04  0.00000000000E+00 0. -1.
          1   -1    0    0  501    0 -0.00000000000E+00 -0.00000000000E+00 -0.10892357849E+03  0.10892357849E+03  0.00000000000E+00 0. -1.
         25    2    1    2    0    0 -0.59380557431E+02  0.46506565392E+01  0.27574095240E+03  0.30855426335E+03  0.12499992557E+03 0.  0.
          2    1    1    2  501    0  0.44406611127E+02  0.33396471321E+02 -0.83830057206E+02  0.10057211293E+03  0.00000000000E+00 0. -1.
          1    1    1    2  502    0  0.14973946304E+02 -0.38047127860E+02  0.13229917462E+04  0.13236234221E+04  0.00000000000E+00 0. -1.
         22    1    3    3    0    0 -0.41833730179E+02 -0.31454038992E+01  0.11340548144E+02  0.43457595177E+02  0.00000000000E+00 0. -1.
         22    1    3    3    0    0 -0.17546827252E+02  0.77960604383E+01  0.26440040426E+03  0.26509666817E+03  0.00000000000E+00 0. -1.
</event>
<event>
 7    1  0.6315518E-006  0.2137522E+03  0.7818608E-02  0.1324966E+00
          2   -1    0    0  502    0  0.00000000000E+00  0.00000000000E+00  0.14096464074E+04  0.14096464074E+04  0.00000000000E+00 0. -1.
          1   -1    0    0  501    0 -0.00000000000E+00 -0.00000000000E+00 -0.30441926880E+03  0.30441926880E+03  0.00000000000E+00 0. -1.
         25    2    1    2    0    0  0.17646680361E+03 -0.91554283692E+02  0.25782936800E+03  0.34874652595E+03  0.12500174685E+03 0.  0.
          2    1    1    2  501    0 -0.17808319720E+03  0.12255408861E+03 -0.21357805322E+03  0.30388931303E+03  0.00000000000E+00 0. -1.
          1    1    1    2  502    0  0.16163935883E+01 -0.30999804920E+02  0.10609758238E+04  0.10614298372E+04  0.00000000000E+00 0. -1.
         22    1    3    3    0    0  0.15031795232E+03 -0.73697146271E+02  0.11661109777E+03  0.20402182306E+03  0.00000000000E+00 0.  1.
         22    1    3    3    0    0  0.26148851289E+02 -0.17857137421E+02  0.14121827023E+03  0.14472470289E+03  0.00000000000E+00 0.  1.
</event>
<event>
 7    1  0.6315518E-006  0.1485782E+03  0.7818608E-02  0.1316236E+00
          2   -1    0    0  502    0  0.00000000000E+00  0.00000000000E+00  0.72530623819E+03  0.72530623819E+03  0.00000000000E+00 0. -1.
          1   -1    0    0  501    0 -0.00000000000E+00 -0.00000000000E+00 -0.66791886038E+03  0.66791886038E+03  0.00000000000E+00 0. -1.
         25    2    1    2    0    0 -0.92688588358E+02 -0.42029771994E+02  0.49951822753E+03  0.52488210131E+03  0.12500033799E+03 0.  0.
          2    1    1    2  501    0  0.13979451272E+03  0.52600442066E+02 -0.64383935106E+03  0.66093753280E+03  0.00000000000E+00 0. -1.
          1    1    1    2  502    0 -0.47105924359E+02 -0.10570670072E+02  0.20170850134E+03  0.20740546446E+03  0.00000000000E+00 0. -1.
         22    1    3    3    0    0 -0.38660692645E+02 -0.82994040172E+02  0.32518277530E+03  0.33782613459E+03  0.00000000000E+00 0.  1.
         22    1    3    3    0    0 -0.54027895714E+02  0.40964268178E+02  0.17433545223E+03  0.18705596672E+03  0.00000000000E+00 0.  1.
</event>
<event>
 7    1  0.6315518E-006  0.1786568E+03  0.7818608E-02  0.1343919E+00
          2   -1    0    0  502    0  0.00000000000E+00  0.00000000000E+00  0.24492902798E+03  0.24492902798E+03  0.00000000000E+00 0. -1.
          1   -1    0    0  501    0 -0.00000000000E+00 -0.00000000000E+00 -0.83732151590E+03  0.83732151590E+03  0.00000000000E+00 0. -1.
         25    2    1    2    0    0  0.18021650609E+03  0.93962117531E+02 -0.15687055997E+03  0.28555405560E+03  0.12500350990E+03 0.  0.
          2    1    1    2  501    0 -0.15899136397E+03 -0.70724624833E+02 -0.60232134985E+03  0.62695393360E+03  0.00000000000E+00 0. -1.
          1    1    1    2  502    0 -0.21225142125E+02 -0.23237492698E+02  0.16679942189E+03  0.16974255468E+03  0.00000000000E+00 0. -1.
         22    1    3    3    0    0  0.13622329445E+03  0.31562311381E+01 -0.74474515630E+02  0.15528425942E+03  0.00000000000E+00 0. -1.
         22    1    3    3    0    0  0.43993211639E+02  0.90805886393E+02 -0.82396044337E+02  0.13026979618E+03  0.00000000000E+00 0. -1.
</event>
<event>
 7    1  0.6315518E-006  0.6740958E+02  0.7818608E-02  0.1378796E+00
          2   -1    0    0  502    0  0.00000000000E+00  0.00000000000E+00  0.11566951199E+03  0.11566951199E+03  0.00000000000E+00 0. -1.
          1   -1    0    0  501    0 -0.00000000000E+00 -0.00000000000E+00 -0.15941175439E+04  0.15941175439E+04  0.00000000000E+00 0. -1.
         25    2    1    2    0    0 -0.33762211469E+01 -0.11446621707E+03 -0.29408748282E+03  0.33945167909E+03  0.12500432459E+03 0.  0.
          2    1    1    2  501    0  0.30637881103E+02  0.58497072550E+02 -0.12659700263E+04  0.12676910880E+04  0.00000000000E+00 0. -1.
          1    1    1    2  502    0 -0.27261659956E+02  0.55969144515E+02  0.81609477210E+02  0.10264428874E+03  0.00000000000E+00 0. -1.
         22    1    3    3    0    0  0.14339337425E+02 -0.15306242752E+02 -0.20164370586E+03  0.20273155101E+03  0.00000000000E+00 0.  1.
         22    1    3    3    0    0 -0.17715558572E+02 -0.99159974313E+02 -0.92443776964E+02  0.13672012807E+03  0.00000000000E+00 0.  1.
</event>
<event>
 7    1  0.6315518E-006  0.1070638E+03  0.7818608E-02  0.1436415E+00
          2   -1    0    0  502    0  0.00000000000E+00  0.00000000000E+00  0.69808695898E+03  0.69808695898E+03  0.00000000000E+00 0. -1.
          1   -1    0    0  501    0 -0.00000000000E+00 -0.00000000000E+00 -0.94616772149E+03  0.94616772149E+03  0.00000000000E+00 0. -1.
         25    2    1    2    0    0  0.12008300940E+03 -0.16422568388E+02  0.13226159499E+03  0.21864951793E+03  0.12499940913E+03 0.  0.
          2    1    1    2  501    0 -0.19528443444E+02 -0.15543481535E+02 -0.89747301496E+03  0.89782001120E+03  0.00000000000E+00 0. -1.
          1    1    1    2  502    0 -0.10055456596E+03  0.31966049923E+02  0.51713065746E+03  0.52778515134E+03  0.00000000000E+00 0. -1.
         22    1    3    3    0    0  0.12235599049E+03  0.18400861647E+02  0.58113190805E+02  0.13669938940E+03  0.00000000000E+00 0. -1.
         22    1    3    3    0    0 -0.22729810865E+01 -0.34823430036E+02  0.74148404185E+02  0.81950128527E+02  0.00000000000E+00 0. -1.
</event>
<event>
 7    1  0.6315518E-006  0.1240037E+03  0.7818608E-02  0.1299051E+00
          2   -1    0    0  502    0  0.00000000000E+00  0.00000000000E+00  0.97025984011E+03  0.97025984011E+03  0.00000000000E+00 0. -1.
          1   -1    0    0  501    0 -0.00000000000E+00 -0.00000000000E+00 -0.62236986906E+02  0.62236986906E+02  0.00000000000E+00 0. -1.
         25    2    1    2    0    0  0.68236284708E+02 -0.27029749625E+02  0.36348242781E+03  0.39131965239E+03  0.12499918842E+03 0.  0.
          2    1    1    2  501    0 -0.11655780267E+03  0.74369376173E+02  0.57964242549E+02  0.14992124229E+03  0.00000000000E+00 0. -1.
          1    1    1    2  502    0  0.48321517965E+02 -0.47339626547E+02  0.48657618285E+03  0.49125593233E+03  0.00000000000E+00 0. -1.
         22    1    3    3    0    0  0.73062485975E+01  0.45019677643E+02  0.74808052854E+02  0.87615052448E+02  0.00000000000E+00 0.  1.
         22    1    3    3    0    0  0.60930036111E+02 -0.72049427268E+02  0.28867437495E+03  0.30370459994E+03  0.00000000000E+00 0.  1.
</event>
<event>
 7    1  0.6315518E-006  0.1065273E+03  0.7818608E-02  0.1378576E+00
          2   -1    0    0  502    0  0.00000000000E+00  0.00000000000E+00  0.16233741166E+04  0.16233741166E+04  0.00000000000E+00 0. -1.
          1   -1    0    0  501    0 -0.00000000000E+00 -0.00000000000E+00 -0.17945627326E+03  0.17945627326E+03  0.00000000000E+00 0. -1.
         25    2    1    2    0    0  0.42849016063E+02 -0.77004568734E+02  0.32444893583E+02  0.15634278388E+03  0.12499861267E+03 0.  0.
          2    1    1    2  501    0 -0.26735235093E+02 -0.29030404384E+02 -0.11225461064E+03  0.11899006170E+03  0.00000000000E+00 0. -1.
          1    1    1    2  502    0 -0.16113780970E+02  0.10603497312E+03  0.15237275604E+04  0.15274975443E+04  0.00000000000E+00 0. -1.
         22    1    3    3    0    0  0.21658890555E+02 -0.92014803168E+02  0.64984296151E+02  0.11471177049E+03  0.00000000000E+00 0. -1.
         22    1    3    3    0    0  0.21190125507E+02  0.15010234434E+02 -0.32539402568E+02  0.41631013395E+02  0.00000000000E+00 0. -1.
</event>
<event>
 7    1  0.6315518E-006  0.1629053E+03  0.7818608E-02  0.1294251E+00
          2   -1    0    0  502    0  0.00000000000E+00  0.00000000000E+00  0.89481610881E+03  0.89481610881E+03  0.00000000000E+00 0. -1.
          1   -1    0    0  501    0 -0.00000000000E+00 -0.00000000000E+00 -0.95357624277E+03  0.95357624277E+03  0.00000000000E+00 0. -1.
         25    2    1    2    0    0  0.88578353970E+02  0.77019459619E+02 -0.19580562218E+02  0.17258619132E+03  0.12499789225E+03 0.  0.
          2    1    1    2  501    0  0.52298553099E+02  0.12767780120E+02 -0.84810442969E+03  0.84981131937E+03  0.00000000000E+00 0. -1.
          1    1    1    2  502    0 -0.14087690707E+03 -0.89787239739E+02  0.80892485794E+03  0.82599484088E+03  0.00000000000E+00 0. -1.
         22    1    3    3    0    0  0.15187018828E+02 -0.33348055502E+02 -0.16032138621E+02  0.39997097588E+02  0.00000000000E+00 0. -1.
         22    1    3    3    0    0  0.73391335142E+02  0.11036751512E+03 -0.35484235969E+01  0.13258909374E+03  0.00000000000E+00 0. -1.
</event>
<event>
 7    1  0.6315518E-006  0.5732926E+02  0.7818608E-02  0.1467925E+00
          2   -1    0    0  502    0  0.00000000000E+00  0.00000000000E+00  0.20584285173E+04  0.20584285173E+04  0.00000000000E+00 0. -1.
          1   -1    0    0  501    0 -0.00000000000E+00 -0.00000000000E+00 -0.10789360113E+04  0.10789360113E+04  0.00000000000E+00 0. -1.
         25    2    1    2    0    0  0.31268192187E+02  0.64163484576E+02  0.86813129558E+03  0.87998365521E+03  0.12499853784E+03 0.  0.
          2    1    1    2  501    0  0.50327447540E+01 -0.57104540784E+02 -0.10719551016E+04  0.10734868406E+04  0.00000000000E+00 0. -1.
          1    1    1    2  502    0 -0.36300936941E+02 -0.70589437911E+01  0.11833163120E+04  0.11838940328E+04  0.00000000000E+00 0. -1.
         22    1    3    3    0    0 -0.37760788263E+02 -0.13401618215E+02  0.25116091214E+03  0.25433695030E+03  0.00000000000E+00 0. -1.
         22    1    3    3    0    0  0.69028980449E+02  0.77565102791E+02  0.61697038344E+03  0.62564670491E+03  0.00000000000E+00 0. -1.
</event>
<event>
 7    1  0.6315518E-006  0.9484855E+02  0.7818608E-02  0.1416875E+00
          2   -1    0    0  502    0  0.00000000000E+00  0.00000000000E+00  0.12617968702E+04  0.12617968702E+04  0.00000000000E+00 0. -1.
          1   -1    0    0  501    0 -0.00000000000E+00 -0.00000000000E+00 -0.52163271570E+03  0.52163271570E+03  0.00000000000E+00 0. -1.
         25    2    1    2    0    0 -0.85459168377E+02  0.12925408929E+02 -0.13504099721E+03  0.20329810572E+03  0.12499485272E+03 0.  0.
          2    1    1    2  501    0 -0.76455966146E+01 -0.31788915957E+02 -0.34986212076E+03  0.35138653057E+03  0.00000000000E+00 0. -1.
          1    1    1    2  502    0  0.93104764992E+02  0.18863507028E+02  0.12250672724E+04  0.12287449496E+04  0.00000000000E+00 0. -1.
         22    1    3    3    0    0 -0.33059450254E+02  0.31828460064E+02  0.10830959313E+02  0.47151752892E+02  0.00000000000E+00 0. -1.
         22    1    3    3    0    0 -0.52399718123E+02 -0.18903051136E+02 -0.14587195652E+03  0.15614635282E+03  0.00000000000E+00 0. -1.
</event>
<event>
 7    1  0.6315518E-006  0.5968742E+02  0.7818608E-02  0.1513458E+00
          2   -1    0    0  502    0  0.00000000000E+00  0.00000000000E+00  0.33992014899E+02  0.33992014899E+02  0.00000000000E+00 0. -1.
          1   -1    0    0  501    0 -0.00000000000E+00 -0.00000000000E+00 -0.20083615499E+04  0.20083615499E+04  0.00000000000E+00 0. -1.
         25    2    1    2    0    0 -0.16335256109E+02 -0.60712535728E+02 -0.38369050775E+03  0.40840600752E+03  0.12499683456E+03 0.  0.
          2    1    1    2  501    0 -0.94805666919E+01  0.59025260017E+02 -0.16038177477E+04  0.16049315344E+04  0.00000000000E+00 0. -1.
          1    1    1    2  502    0  0.25815822801E+02  0.16872757105E+01  0.13138720441E+02  0.29016022833E+02  0.00000000000E+00 0. -1.
         22    1    3    3    0    0 -0.12151057684E+02 -0.37933135567E+02 -0.38317504340E+03  0.38523977581E+03  0.00000000000E+00 0.  1.
         22    1    3    3    0    0 -0.41841984250E+01 -0.22779400161E+02 -0.51546434952E+00  0.23166231710E+02  0.00000000000E+00 0.  1.
</event>
<event>
 7    1  0.6315518E-006  0.1619073E+03  0.7818608E-02  0.1316489E+00
          2   -1    0    0  502    0  0.00000000000E+00  0.00000000000E+00  0.21033493565E+04  0.21033493565E+04  0.00000000000E+00 0. -1.
          1   -1    0    0  501    0 -0.00000000000E+00 -0.00000000000E+00 -0.76560900974E+03  0.76560900974E+03  0.00000000000E+00 0. -1.
         25    2    1    2    0    0 -0.19994762025E+03 -0.26925242503E+02  0.15403869481E+03  0.28294402627E+03  0.12500153188E+03 0.  0.
          2    1    1    2  501    0  0.43687945808E+02 -0.67255504705E+01 -0.69706626246E+03  0.69846635130E+03  0.00000000000E+00 0. -1.
          1    1    1    2  502    0  0.15625967444E+03  0.33650792974E+02  0.18807679144E+04  0.18875479887E+04  0.00000000000E+00 0. -1.
         22    1    3    3    0    0 -0.10825383836E+03  0.44971727864E+02  0.52715475721E+02  0.12853120714E+03  0.00000000000E+00 0.  1.
         22    1    3    3    0    0 -0.91693781888E+02 -0.71896970367E+02  0.10132321909E+03  0.15441281913E+03  0.00000000000E+00 0.  1.
</event>
<event>
 7    1  0.6315518E-006  0.1770278E+03  0.7818608E-02  0.1259128E+00
          2   -1    0    0  502    0  0.00000000000E+00  0.00000000000E+00  0.19434108447E+04  0.19434108447E+04  0.00000000000E+00 0. -1.
          1   -1    0    0  501    0 -0.00000000000E+00 -0.00000000000E+00 -0.25906396129E+03  0.25906396129E+03  0.00000000000E+00 0. -1.
         25    2    1    2    0    0 -0.57842156656E+02  0.11160575737E+03  0.92981234703E+02  0.20018438994E+03  0.12500687902E+03 0.  0.
          2    1    1    2  501    0  0.10604659154E+03 -0.16143060582E+03 -0.15923180733E+03  0.25032077129E+03  0.00000000000E+00 0. -1.
          1    1    1    2  502    0 -0.48204434883E+02  0.49824848455E+02  0.17505974561E+04  0.17519696448E+04  0.00000000000E+00 0. -1.
         22    1    3    3    0    0 -0.69161147092E+02  0.11109565104E+03  0.11577711019E+03  0.17472792333E+03  0.00000000000E+00 0.  1.
         22    1    3    3    0    0  0.11318990436E+02  0.51010632496E+00 -0.22795875485E+02  0.25456466606E+02  0.00000000000E+00 0.  1.
</event>
<event>
 7    1  0.6315518E-006  0.2447639E+02  0.7818608E-02  0.1697709E+00
          2   -1    0    0  502    0  0.00000000000E+00  0.00000000000E+00  0.94812957587E+03  0.94812957587E+03  0.00000000000E+00 0. -1.
          1   -1    0    0  501    0 -0.00000000000E+00 -0.00000000000E+00 -0.94526042561E+03  0.94526042561E+03  0.00000000000E+00 0. -1.
         25    2    1    2    0    0 -0.31888251830E+02  0.31868123903E+02 -0.11903764320E+03  0.17840049043E+03  0.12499734622E+03 0.  0.
          2    1    1    2  501    0  0.16455188851E+02 -0.12899116061E+02 -0.79624132530E+03  0.79651579303E+03  0.00000000000E+00 0. -1.
          1    1    1    2  502    0  0.15433062980E+02 -0.18969007842E+02  0.91814811877E+03  0.91847371802E+03  0.00000000000E+00 0. -1.
         22    1    3    3    0    0 -0.56951746733E+01 -0.45794507748E+02 -0.21242589904E+02  0.50801767492E+02  0.00000000000E+00 0. -1.
         22    1    3    3    0    0 -0.26193077157E+02  0.77662631652E+02 -0.97795053301E+02  0.12759872294E+03  0.00000000000E+00 0. -1.
</event>
<event>
 7    1  0.6315518E-006  0.1129779E+03  0.7818608E-02  0.1404352E+00
          2   -1    0    0  502    0  0.00000000000E+00  0.00000000000E+00  0.24919338752E+04  0.24919338752E+04  0.00000000000E+00 0. -1.
          1   -1    0    0  501    0 -0.00000000000E+00 -0.00000000000E+00 -0.10086449824E+04  0.10086449824E+04  0.00000000000E+00 0. -1.
         25    2    1    2    0    0 -0.45150122955E+02 -0.70545295334E+02  0.39627340345E+03  0.42387360792E+03  0.12498421065E+03 0.  0.
          2    1    1    2  501    0  0.54059523027E+02  0.99467948339E+02 -0.99151368842E+03  0.99795576009E+03  0.00000000000E+00 0. -1.
          1    1    1    2  502    0 -0.89094000716E+01 -0.28922653005E+02  0.20785291778E+04  0.20787494895E+04  0.00000000000E+00 0. -1.
         22    1    3    3    0    0  0.28594743361E+02 -0.59644370663E+02  0.26277331959E+03  0.27097034485E+03  0.00000000000E+00 0. -1.
         22    1    3    3    0    0 -0.73744866317E+02 -0.10900924671E+02  0.13350008386E+03  0.15290326307E+03  0.00000000000E+00 0. -1.
</event>
<event>
 7    1  0.6315518E-006  0.8768431E+02  0.7818608E-02  0.1351650E+00
          2   -1    0    0  502    0  0.00000000000E+00  0.00000000000E+00  0.19260370059E+04  0.19260370059E+04  0.00000000000E+00 0. -1.
          1   -1    0    0  501    0 -0.00000000000E+00 -0.00000000000E+00 -0.20483260024E+03  0.20483260024E+03  0.00000000000E+00 0. -1.
         25    2    1    2    0    0  0.54937655726E+01  0.94783119021E+02  0.19620296265E+03  0.25126590404E+03  0.12499972348E+03 0.  0.
          2    1    1    2  501    0  0.50261320197E+02 -0.72568245954E+02 -0.16574812596E+03  0.18778922197E+03  0.00000000000E+00 0. -1.
          1    1    1    2  502    0 -0.55755085770E+02 -0.22214873067E+02  0.16907495689E+04  0.16918144801E+04  0.00000000000E+00 0. -1.
         22    1    3    3    0    0  0.19452423524E+02  0.73975568591E+02  0.28384277705E+02  0.81587062394E+02  0.00000000000E+00 0.  1.
         22    1    3    3    0    0 -0.13958657951E+02  0.20807550430E+02  0.16781868494E+03  0.16967884164E+03  0.00000000000E+00 0.  1.
</event>
<event>
 7    1  0.6315518E-006  0.1317134E+03  0.7818608E-02  0.1367843E+00
          2   -1    0    0  502    0  0.00000000000E+00  0.00000000000E+00  0.35233500281E+03  0.35233500281E+03  0.00000000000E+00 0. -1.
          1   -1    0    0  501    0 -0.00000000000E+00 -0.00000000000E+00 -0.96179987504E+03  0.96179987504E+03  0.00000000000E+00 0. -1.
         25    2    1    2    0    0 -0.71579397549E+02 -0.96781824128E+02  0.23140370876E+02  0.17507560321E+03  0.12500263373E+03 0.  0.
          2    1    1    2  501    0 -0.33015745886E+02  0.11219207700E+02 -0.86742859784E+03  0.86812918534E+03  0.00000000000E+00 0. -1.
          1    1    1    2  502    0  0.10459514344E+03  0.85562616428E+02  0.23482335473E+03  0.27093008930E+03  0.00000000000E+00 0. -1.
         22    1    3    3    0    0  0.99164244070E+01 -0.51968266321E+02 -0.36784790697E+02  0.64437233057E+02  0.00000000000E+00 0.  1.
         22    1    3    3    0    0 -0.81495821956E+02 -0.44813557807E+02  0.59925161572E+02  0.11063837015E+03  0.00000000000E+00 0.  1.
</event>
<event>
 7    1  0.6315518E-006  0.9870456E+02  0.7818608E-02  0.1342075E+00
          2   -1    0    0  502    0  0.00000000000E+00  0.00000000000E+00  0.25302080385E+04  0.25302080385E+04  0.00000000000E+00 0. -1.
          1   -1    0    0  501    0 -0.00000000000E+00 -0.00000000000E+00 -0.32799808757E+03  0.32799808757E+03  0.00000000000E+00 0. -1.
         25    2    1    2    0    0  0.17406545988E+01  0.11120244456E+03  0.13878069510E+03  0.21738066513E+03  0.12500103475E+03 0.  0.
          2    1    1    2  501    0  0.49999168948E+02 -0.85263413479E+02 -0.27987009443E+03  0.29681144912E+03  0.00000000000E+00 0. -1.
          1    1    1    2  502    0 -0.51739823547E+02 -0.25939031078E+02  0.23432993503E+04  0.23440140118E+04  0.00000000000E+00 0. -1.
         22    1    3    3    0    0  0.99418749269E+01  0.96303537473E+01  0.11086197918E+03  0.11172270592E+03  0.00000000000E+00 0.  1.
         22    1    3    3    0    0 -0.82012203280E+01  0.10157209081E+03  0.27918715918E+02  0.10565795921E+03  0.00000000000E+00 0.  1.
</event>
<event>
 7    1  0.6315518E-006  0.3277209E+02  0.7818608E-02  0.1651561E+00
          2   -1    0    0  502    0  0.00000000000E+00  0.00000000000E+00  0.20746780793E+03  0.20746780793E+03  0.00000000000E+00 0. -1.
          1   -1    0    0  501    0 -0.00000000000E+00 -0.00000000000E+00 -0.43311371694E+03  0.43311371694E+03  0.00000000000E+00 0. -1.
         25    2    1    2    0    0  0.11760961464E+02 -0.56542965220E+01 -0.37398756663E+02  0.13112771713E+03  0.12500207964E+03 0.  0.
          2    1    1    2  501    0 -0.30765956966E+02  0.12219338694E+02 -0.34743129230E+03  0.34900481260E+03  0.00000000000E+00 0. -1.
          1    1    1    2  502    0  0.19004995502E+02 -0.65650421720E+01  0.15918413995E+03  0.16044899515E+03  0.00000000000E+00 0. -1.
         22    1    3    3    0    0 -0.34865081457E+00  0.51462558655E+02 -0.49605575912E+02  0.71478875636E+02  0.00000000000E+00 0.  1.
         22    1    3    3    0    0  0.12109612279E+02 -0.57116855177E+02  0.12206819249E+02  0.59648841489E+02  0.00000000000E+00 0.  1.
</event>
<event>
 7    1  0.6315518E-006  0.8864565E+02  0.7818608E-02  0.1306483E+00
          2   -1    0    0  502    0  0.00000000000E+00  0.00000000000E+00  0.14235927971E+04  0.14235927971E+04  0.00000000000E+00 0. -1.
          1   -1    0    0  501    0 -0.00000000000E+00 -0.00000000000E+00 -0.33080807668E+03  0.33080807668E+03  0.00000000000E+00 0. -1.
         25    2    1    2    0    0  0.28025302037E+02  0.67172637976E+01  0.26395815488E+03  0.29347791356E+03  0.12499935612E+03 0.  0.
          2    1    1    2  501    0  0.39517591069E+02 -0.79349931606E+02 -0.30762957995E+03  0.32014685709E+03  0.00000000000E+00 0. -1.
          1    1    1    2  502    0 -0.67542893107E+02  0.72632667809E+02  0.11364561455E+04  0.11407761031E+04  0.00000000000E+00 0. -1.
         22    1    3    3    0    0  0.51436742898E+02  0.27996322542E+02  0.25347091341E+03  0.26014810501E+03  0.00000000000E+00 0. -1.
         22    1    3    3    0    0 -0.23411440861E+02 -0.21279058744E+02  0.10487241474E+02  0.33329808549E+02  0.00000000000E+00 0. -1.
</event>
<event>
 7    1  0.6315518E-006  0.7880369E+02  0.7818608E-02  0.1451265E+00
          2   -1    0    0  502    0  0.00000000000E+00  0.00000000000E+00  0.56484607711E+02  0.56484607711E+02  0.00000000000E+00 0. -1.
          1   -1    0    0  501    0 -0.00000000000E+00 -0.00000000000E+00 -0.56827148364E+03  0.56827148364E+03  0.00000000000E+00 0. -1.
         25    2    1    2    0    0  0.32534734887E+02 -0.80437395579E+02 -0.19258659035E+03  0.24544429661E+03  0.12499849748E+03 0.  0.
          2    1    1    2  501    0 -0.22510583068E+01  0.78196381836E+02 -0.33573982910E+03  0.34473319284E+03  0.00000000000E+00 0. -1.
          1    1    1    2  502    0 -0.30283676581E+02  0.22410137432E+01  0.16539543527E+02  0.34578601908E+02  0.00000000000E+00 0. -1.
         22    1    3    3    0    0  0.79094637521E+02 -0.43396983425E+02 -0.93949197236E+02  0.13025249140E+03  0.00000000000E+00 0. -1.
         22    1    3    3    0    0 -0.46559902634E+02 -0.37040412154E+02 -0.98637393115E+02  0.11519180520E+03  0.00000000000E+00 0. -1.
</event>
<event>
 7    1  0.6315518E-006  0.1453396E+03  0.7818608E-02  0.1295266E+00
          2   -1    0    0  502    0  0.00000000000E+00  0.00000000000E+00  0.19531678038E+04  0.19531678038E+04  0.00000000000E+00 0. -1.
          1   -1    0    0  501    0 -0.00000000000E+00 -0.00000000000E+00 -0.13300107904E+04  0.13300107904E+04  0.00000000000E+00 0. -1.
         25    2    1    2    0    0 -0.11584633577E+01  0.98446869412E+02  0.61014145904E+03  0.63054759072E+03  0.12499814393E+03 0.  0.
          2    1    1    2  501    0 -0.42419942268E+02 -0.13936022414E+03 -0.13151137957E+04  0.13231572164E+04  0.00000000000E+00 0. -1.
          1    1    1    2  502    0  0.43578405625E+02  0.40913354731E+02  0.13281293501E+04  0.13294737871E+04  0.00000000000E+00 0. -1.
         22    1    3    3    0    0  0.25887603431E+02  0.27012972530E+02  0.46528179731E+03  0.46678369681E+03  0.00000000000E+00 0. -1.
         22    1    3    3    0    0 -0.27046066789E+02  0.71433896883E+02  0.14485966173E+03  0.16376389391E+03  0.00000000000E+00 0. -1.
</event>
<event>
 7    1  0.6315518E-006  0.2903253E+03  0.7818608E-02  0.1291089E+00
          2   -1    0    0  502    0  0.00000000000E+00  0.00000000000E+00  0.31481470736E+03  0.31481470736E+03  0.00000000000E+00 0. -1.
          1   -1    0    0  501    0 -0.00000000000E+00 -0.00000000000E+00 -0.83429001629E+03  0.83429001629E+03  0.00000000000E+00 0. -1.
         25    2    1    2    0    0 -0.21742475166E+03  0.15403747561E+03 -0.45310537685E+03  0.54030579990E+03  0.12499923338E+03 0.  0.
          2    1    1    2  501    0 -0.13818513873E+02  0.27873931400E+02 -0.25657329212E+03  0.25845262933E+03  0.00000000000E+00 0. -1.
          1    1    1    2  502    0  0.23124326553E+03 -0.18191140701E+03  0.19020336004E+03  0.35034629443E+03  0.00000000000E+00 0. -1.
         22    1    3    3    0    0 -0.17287301814E+03  0.60317593397E+02 -0.34426115069E+03  0.38992182851E+03  0.00000000000E+00 0.  1.
         22    1    3    3    0    0 -0.44551733515E+02  0.93719882213E+02 -0.10884422616E+03  0.15038397138E+03  0.00000000000E+00 0.  1.
</event>
<event>
 7    1  0.6315518E-006  0.1167892E+03  0.7818608E-02  0.1263798E+00
          2   -1    0    0  502    0  0.00000000000E+00  0.00000000000E+00  0.57165826024E+03  0.57165826024E+03  0.00000000000E+00 0. -1.
          1   -1    0    0  501    0 -0.00000000000E+00 -0.00000000000E+00 -0.15047811284E+04  0.15047811284E+04  0.00000000000E+00 0. -1.
         25    2    1    2    0    0 -0.66619791420E+02 -0.25133572945E+01  0.10638968070E+03  0.17716578720E+03  0.12499775366E+03 0.  0.
          2    1    1    2  501    0 -0.36420781824E+02  0.93541209979E+02 -0.14566279400E+04  0.14600826644E+04  0.00000000000E+00 0. -1.
          1    1    1    2  502    0  0.10304057324E+03 -0.91027852685E+02  0.41711539111E+03  0.43919093706E+03  0.00000000000E+00 0. -1.
         22    1    3    3    0    0 -0.31094605368E+02 -0.56921182017E+02  0.17722969429E+02  0.67238375134E+02  0.00000000000E+00 0. -1.
         22    1    3    3    0    0 -0.35525186053E+02  0.54407824723E+02  0.88666711276E+02  0.10992741207E+03  0.00000000000E+00 0. -1.
</event>
<event>
 7    1  0.6315518E-006  0.6031499E+02  0.7818608E-02  0.1452241E+00
          2   -1    0    0  502    0  0.00000000000E+00  0.00000000000E+00  0.22180735468E+04  0.22180735468E+04  0.00000000000E+00 0. -1.
          1   -1    0    0  501    0 -0.00000000000E+00 -0.00000000000E+00 -0.98775623527E+02  0.98775623527E+02  0.00000000000E+00 0. -1.
         25    2    1    2    0    0  0.70219488130E+02 -0.25970362075E+02  0.83191287548E+03  0.84457649713E+03  0.12500076359E+03 0.  0.
          2    1    1    2  501    0 -0.37188133958E+02  0.47432503662E+02 -0.82306121340E+02  0.10201518182E+03  0.00000000000E+00 0. -1.
          1    1    1    2  502    0 -0.33031354173E+02 -0.21462141587E+02  0.13696911691E+04  0.13702574914E+04  0.00000000000E+00 0. -1.
         22    1    3    3    0    0  0.53520131062E+02 -0.14679078195E+02  0.11820995045E+03  0.13058894345E+03  0.00000000000E+00 0. -1.
         22    1    3    3    0    0  0.16699357068E+02 -0.11291283880E+02  0.71370292503E+03  0.71398755368E+03  0.00000000000E+00 0. -1.
</event>
<event>
 7    1  0.6315518E-006  0.1253750E+03  0.7818608E-02  0.1285051E+00
          2   -1    0    0  502    0  0.00000000000E+00  0.00000000000E+00  0.11248329299E+04  0.11248329299E+04  0.00000000000E+00 0. -1.
          1   -1    0    0  501    0 -0.00000000000E+00 -0.00000000000E+00 -0.10586604195E+03  0.10586604195E+03  0.00000000000E+00 0. -1.
         25    2    1    2    0    0  0.63654005990E+02  0.26384882402E+02  0.22101465280E+03  0.26309674844E+03  0.12499771114E+03 0.  0.
          2    1    1    2  501    0  0.76084900218E+02 -0.49684298474E+01 -0.60657676538E+02  0.97431776436E+02  0.00000000000E+00 0. -1.
          1    1    1    2  502    0 -0.13973890621E+03 -0.21416452555E+02  0.85860991164E+03  0.87017044693E+03  0.00000000000E+00 0. -1.
         22    1    3    3    0    0  0.10117551617E+03  0.12072863986E+02  0.16964295851E+03  0.19789131484E+03  0.00000000000E+00 0. -1.
         22    1    3    3    0    0 -0.37521510175E+02  0.14312018416E+02  0.51371694288E+02  0.65205433601E+02  0.00000000000E+00 0. -1.
</event>
<event>
 7    1  0.6315518E-006  0.1076255E+03  0.7818608E-02  0.1421920E+00
          2   -1    0    0  502    0  0.00000000000E+00  0.00000000000E+00  0.52143051821E+02  0.52143051821E+02  0.00000000000E+00 0. -1.
          1   -1    0    0  501    0 -0.00000000000E+00 -0.00000000000E+00 -0.21705951806E+04  0.21705951806E+04  0.00000000000E+00 0. -1.
         25    2    1    2    0    0  0.81591866538E+02  0.49685278651E+02 -0.74238368299E+03  0.75887046592E+03  0.12499996670E+03 0.  0.
          2    1    1    2  501    0 -0.80078909479E+02 -0.77360414981E+02 -0.14131739029E+04  0.14175534365E+04  0.00000000000E+00 0. -1.
          1    1    1    2  502    0 -0.15129570585E+01  0.27675136330E+02  0.37105457136E+02  0.46314329956E+02  0.00000000000E+00 0. -1.
         22    1    3    3    0    0  0.57240256487E+02  0.80913761121E+02 -0.32928542971E+03  0.34387843480E+03  0.00000000000E+00 0.  1.
         22    1    3    3    0    0  0.24351610051E+02 -0.31228482471E+02 -0.41309825329E+03  0.41499203113E+03  0.00000000000E+00 0.  1.
</event>
<event>
 7    1  0.6315518E-006  0.1722088E+03  0.7818608E-02  0.1316823E+00
          2   -1    0    0  502    0  0.00000000000E+00  0.00000000000E+00  0.14702785507E+04  0.14702785507E+04  0.00000000000E+00 0. -1.
          1   -1    0    0  501    0 -0.00000000000E+00 -0.00000000000E+00 -0.69404613131E+02  0.69404613131E+02  0.00000000000E+00 0. -1.
         25    2    1    2    0    0  0.14061570805E+03 -0.40242395474E+02  0.32375742567E+03  0.37661087098E+03  0.12499859885E+03 0.  0.
          2    1    1    2  501    0 -0.17919797956E+03  0.55347215250E+02  0.16436664952E+03  0.24938248854E+03  0.00000000000E+00 0. -1.
          1    1    1    2  502    0  0.38582271505E+02 -0.15104819776E+02  0.91274986234E+03  0.91368980429E+03  0.00000000000E+00 0. -1.
         22    1    3    3    0    0  0.13717302335E+03 -0.74158250335E+02  0.24031927949E+03  0.28647729495E+03  0.00000000000E+00 0. -1.
         22    1    3    3    0    0  0.34426847058E+01  0.33915854861E+02  0.83438146187E+02  0.90133576031E+02  0.00000000000E+00 0. -1.
</event>
<event>
 7    1  0.6315518E-006  0.3750412E+02  0.7818608E-02  0.1611935E+00
          2   -1    0    0  502    0  0.00000000000E+00  0.00000000000E+00  0.10109749626E+04  0.10109749626E+04  0.00000000000E+00 0. -1.
          1   -1    0    0  501    0 -0.00000000000E+00 -0.00000000000E+00 -0.60439286723E+03  0.60439286723E+03  0.00000000000E+00 0. -1.
         25    2    1    2    0    0 -0.31205201431E+01 -0.46660018525E+02 -0.46321182982E+03  0.48205778973E+03  0.12501047308E+03 0.  0.
          2    1    1    2  501    0 -0.16493085215E+02  0.14696790682E+02 -0.13047824243E+03  0.13233513994E+03  0.00000000000E+00 0. -1.
          1    1    1    2  502    0  0.19613605358E+02  0.31963227843E+02  0.10002721676E+04  0.10009749002E+04  0.00000000000E+00 0. -1.
         22    1    3    3    0    0 -0.67991259857E+01  0.39157493694E+02 -0.23254692070E+03  0.23591864647E+03  0.00000000000E+00 0. -1.
         22    1    3    3    0    0  0.36786058426E+01 -0.85817512220E+02 -0.23066490912E+03  0.24613914326E+03  0.00000000000E+00 0. -1.
</event>
<event>
 7    1  0.6315518E-006  0.1117581E+03  0.7818608E-02  0.1397228E+00
          2   -1    0    0  502    0  0.00000000000E+00  0.00000000000E+00  0.21285944399E+04  0.21285944399E+04  0.00000000000E+00 0. -1.
          1   -1    0    0  501    0 -0.00000000000E+00 -0.00000000000E+00 -0.22368680222E+02  0.22368680222E+02  0.00000000000E+00 0. -1.
         25    2    1    2    0    0 -0.23464603166E+02 -0.12968220995E+03  0.67749740838E+03  0.70142381057E+03  0.12499824192E+03 0.  0.
          2    1    1    2  501    0  0.33387440324E+02  0.98873495771E+02  0.25721975846E+03  0.27758366933E+03  0.00000000000E+00 0. -1.
          1    1    1    2  502    0 -0.99228371582E+01  0.30808714180E+02  0.11715085928E+04  0.11719556402E+04  0.00000000000E+00 0. -1.
         22    1    3    3    0    0  0.58319089363E+01 -0.24600875122E+02  0.43248550170E+03  0.43322387214E+03  0.00000000000E+00 0. -1.
         22    1    3    3    0    0 -0.29296512102E+02 -0.10508133483E+03  0.24501190669E+03  0.26819993842E+03  0.00000000000E+00 0. -1.
</event>
<event>
 7    1  0.6315518E-006  0.1460864E+03  0.7818608E-02  0.1370461E+00
          2   -1    0    0  502    0  0.00000000000E+00  0.00000000000E+00  0.16883163591E+04  0.16883163591E+04  0.00000000000E+00 0. -1.
          1   -1    0    0  501    0 -0.00000000000E+00 -0.00000000000E+00 -0.12661940127E+04  0.12661940127E+04  0.00000000000E+00 0. -1.
         25    2    1    2    0    0  0.71304215053E+02 -0.97200977671E+02 -0.20622444731E+03  0.26960270481E+03  0.12499909852E+03 0.  0.
          2    1    1    2  501    0 -0.82801794112E+02  0.12573592462E+03 -0.10226257923E+04  0.10336484755E+04  0.00000000000E+00 0. -1.
          1    1    1    2  502    0  0.11497579058E+02 -0.28534946951E+02  0.16509725861E+04  0.16512591915E+04  0.00000000000E+00 0. -1.
         22    1    3    3    0    0  0.22837282818E+02 -0.11742086681E+03 -0.12618707048E+03  0.17387460483E+03  0.00000000000E+00 0. -1.
         22    1    3    3    0    0  0.48466932235E+02  0.20219889138E+02 -0.80037376829E+02  0.95728099985E+02  0.00000000000E+00 0. -1.
</event>
<event>
 7    1  0.6315518E-006  0.1754482E+03  0.7818608E-02  0.1266908E+00
          2   -1    0    0  502    0  0.00000000000E+00  0.00000000000E+00  0.29178386111E+03  0.29178386111E+03  0.00000000000E+00 0. -1.
          1   -1    0    0  501    0 -0.00000000000E+00 -0.00000000000E+00 -0.15528607187E+04  0.15528607187E+04  0.00000000000E+00 0. -1.
         25    2    1    2    0    0  0.22556042809E+03 -0.26263228492E+02 -0.40308888655E+03  0.47924198862E+03  0.12499987723E+03 0.  0.
          2    1    1    2  501    0 -0.53633745608E+02  0.36411853290E+02 -0.10813840201E+04  0.10833253439E+04  0.00000000000E+00 0. -1.
          1    1    1    2  502    0 -0.17192668248E+03 -0.10148624799E+02  0.22339604905E+03  0.28207724734E+03  0.00000000000E+00 0. -1.
         22    1    3    3    0    0  0.13781616559E+03 -0.76370767369E+02 -0.22936483462E+03  0.27826968388E+03  0.00000000000E+00 0. -1.
         22    1    3    3    0    0  0.87744262498E+02  0.50107538878E+02 -0.17372405194E+03  0.20097230475E+03  0.00000000000E+00 0. -1.
</event>
<event>
 7    1  0.6315518E-006  0.7631933E+02  0.7818608E-02  0.1390392E+00
          2   -1    0    0  502    0  0.00000000000E+00  0.00000000000E+00  0.60228264501E+03  0.60228264501E+03  0.00000000000E+00 0. -1.
          1   -1    0    0  501    0 -0.00000000000E+00 -0.00000000000E+00 -0.72844242590E+03  0.72844242590E+03  0.00000000000E+00 0. -1.
         25    2    1    2    0    0  0.91066627914E+01 -0.40152214343E+02 -0.13318777386E+03  0.18724063851E+03  0.12499976792E+03 0.  0.
          2    1    1    2  501    0 -0.55785998842E+02  0.58231043936E+02 -0.56426719323E+03  0.57000034869E+03  0.00000000000E+00 0. -1.
          1    1    1    2  502    0  0.46679336050E+02 -0.18078829593E+02  0.57129518621E+03  0.57348408372E+03  0.00000000000E+00 0. -1.
         22    1    3    3    0    0  0.20679569948E+02  0.41873002124E+02 -0.64488016651E+02  0.79622215567E+02  0.00000000000E+00 0. -1.
         22    1    3    3    0    0 -0.11572907157E+02 -0.82025216467E+02 -0.68699757207E+02  0.10761842294E+03  0.00000000000E+00 0. -1.
</event>
<event>
 7    1  0.6315518E-006  0.1342544E+03  0.7818608E-02  0.1347077E+00
          2   -1    0    0  502    0  0.00000000000E+00  0.00000000000E+00  0.11716881129E+04  0.11716881129E+04  0.00000000000E+00 0. -1.
          1   -1    0    0  501    0 -0.00000000000E+00 -0.00000000000E+00 -0.11795909617E+04  0.11795909617E+04  0.00000000000E+00 0. -1.
         25    2    1    2    0    0  0.43669579207E+02 -0.96772165556E+02 -0.40263652533E+02  0.16886899011E+03  0.12499475961E+03 0.  0.
          2    1    1    2  501    0 -0.26468185878E+02  0.13372465436E+03 -0.10703250959E+04  0.10789711113E+04  0.00000000000E+00 0. -1.
          1    1    1    2  502    0 -0.17201393329E+02 -0.36952488806E+02  0.11026858996E+04  0.11034389732E+04  0.00000000000E+00 0. -1.
         22    1    3    3    0    0  0.62248501034E+02 -0.11223435959E+03 -0.55999989984E+02  0.14002651974E+03  0.00000000000E+00 0.  1.
         22    1    3    3    0    0 -0.18578921826E+02  0.15462194032E+02  0.15736337451E+02  0.28842470367E+02  0.00000000000E+00 0.  1.
</event>
<event>
 7    1  0.6315518E-006  0.4956838E+02  0.7818608E-02  0.1521509E+00
          2   -1    0    0  502    0  0.00000000000E+00  0.00000000000E+00  0.53985956645E+03  0.53985956645E+03  0.00000000000E+00 0. -1.
          1   -1    0    0  501    0 -0.00000000000E+00 -0.00000000000E+00 -0.38037784618E+02  0.38037784618E+02  0.00000000000E+00 0. -1.
         25    2    1    2    0    0  0.26035476857E+02 -0.30695617320E+02  0.10236995857E+03  0.16650650608E+03  0.12499896468E+03 0.  0.
          2    1    1    2  501    0 -0.33534515841E+02  0.59241072829E+02  0.25324330560E+03  0.26223317924E+03  0.00000000000E+00 0. -1.
          1    1    1    2  502    0  0.74990389840E+01 -0.28545455509E+02  0.14620851766E+03  0.14915766575E+03  0.00000000000E+00 0. -1.
         22    1    3    3    0    0 -0.20902656205E+02  0.37723944884E+02  0.58414036090E+02  0.72610031444E+02  0.00000000000E+00 0.  1.
         22    1    3    3    0    0  0.46938133062E+02 -0.68419562204E+02  0.43955922484E+02  0.93896474636E+02  0.00000000000E+00 0.  1.
</event>
<event>
 7    1  0.6315518E-006  0.9104626E+02  0.7818608E-02  0.1321919E+00
          2   -1    0    0  502    0  0.00000000000E+00  0.00000000000E+00  0.88813012525E+03  0.88813012525E+03  0.00000000000E+00 0. -1.
          1   -1    0    0  501    0 -0.00000000000E+00 -0.00000000000E+00 -0.13016499477E+03  0.13016499477E+03  0.00000000000E+00 0. -1.
         25    2    1    2    0    0  0.13808095489E+02  0.12247431860E+02  0.23243315524E+02  0.12847644221E+03  0.12500112559E+03 0.  0.
          2    1    1    2  501    0 -0.10375099885E+03  0.18839499799E+01 -0.38928224042E+02  0.11082971468E+03  0.00000000000E+00 0. -1.
          1    1    1    2  502    0  0.89942903360E+02 -0.14131381840E+02  0.77365003901E+03  0.77898896312E+03  0.00000000000E+00 0. -1.
         22    1    3    3    0    0  0.66996482852E+02  0.29379562686E+01 -0.55357773881E+01  0.67288967394E+02  0.00000000000E+00 0. -1.
         22    1    3    3    0    0 -0.53188387363E+02  0.93094755913E+01  0.28779092912E+02  0.61187474821E+02  0.00000000000E+00 0. -1.
</event>
<event>
 7    1  0.6315518E-006  0.7809775E+02  0.7818608E-02  0.1490087E+00
          2   -1    0    0  502    0  0.00000000000E+00  0.00000000000E+00  0.95393240060E+03  0.95393240060E+03  0.00000000000E+00 0. -1.
          1   -1    0    0  501    0 -0.00000000000E+00 -0.00000000000E+00 -0.83872572670E+03  0.83872572670E+03  0.00000000000E+00 0. -1.
         25    2    1    2    0    0  0.88355753509E+02  0.42608069690E+02  0.33189321507E+03  0.36796716619E+03  0.12499816960E+03 0.  0.
          2    1    1    2  501    0 -0.74121559496E+02 -0.24278158252E+02 -0.81861148190E+03  0.82231879028E+03  0.00000000000E+00 0. -1.
          1    1    1    2  502    0 -0.14234194013E+02 -0.18329911438E+02  0.60192494072E+03  0.60237217084E+03  0.00000000000E+00 0. -1.
         22    1    3    3    0    0  0.10505906601E+03  0.44282245502E+02  0.33215619046E+03  0.35117810222E+03  0.00000000000E+00 0.  1.
         22    1    3    3    0    0 -0.16703312501E+02 -0.16741758121E+01 -0.26297538448E+00  0.16789063977E+02  0.00000000000E+00 0.  1.
</event>
<event>
 7    1  0.6315518E-006  0.6447321E+02  0.7818608E-02  0.1387285E+00
          2   -1    0    0  502    0  0.00000000000E+00  0.00000000000E+00  0.22580412891E+04  0.22580412891E+04  0.00000000000E+00 0. -1.
          1   -1    0    0  501    0 -0.00000000000E+00 -0.00000000000E+00 -0.69099604398E+02  0.69099604398E+02  0.00000000000E+00 0. -1.
         25    2    1    2    0    0  0.13541883299E+02  0.85491416852E+01  0.90620779555E+03  0.91492817467E+03  0.12499810260E+03 0.  0.
          2    1    1    2  501    0  0.52870124233E+02  0.29934513997E+02 -0.49132379071E+02  0.78136520512E+02  0.00000000000E+00 0. -1.
          1    1    1    2  502    0 -0.66412007532E+02 -0.38483655682E+02  0.13318662683E+04  0.13340761984E+04  0.00000000000E+00 0. -1.
         22    1    3    3    0    0 -0.87027809856E+01 -0.52219780714E+02  0.25038882366E+03  0.25592422103E+03  0.00000000000E+00 0. -1.
         22    1    3    3    0    0  0.22244664284E+02  0.60768922400E+02  0.65581897189E+03  0.65900395364E+03  0.00000000000E+00 0. -1.
</event>
<event>
 7    1  0.6315518E-006  0.1174811E+03  0.7818608E-02  0.1350539E+00
          2   -1    0    0  502    0  0.00000000000E+00  0.00000000000E+00  0.16616365533E+04  0.16616365533E+04  0.00000000000E+00 0. -1.
          1   -1    0    0  501    0 -0.00000000000E+00 -0.00000000000E+00 -0.77335576071E+03  0.77335576071E+03  0.00000000000E+00 0. -1.
         25    2    1    2    0    0 -0.96725483391E+02 -0.10382760079E+03  0.59675607395E+03  0.62600221927E+03  0.12499990767E+03 0.  0.
          2    1    1    2  501    0  0.45122672188E+02  0.29881522715E+01 -0.75499982106E+03  0.75635290334E+03  0.00000000000E+00 0. -1.
          1    1    1    2  502    0  0.51602811204E+02  0.10083944852E+03  0.10465245397E+04  0.10526371914E+04  0.00000000000E+00 0. -1.
         22    1    3    3    0    0  0.10270384521E+01 -0.47002098819E+02  0.54018638940E+02  0.71611908607E+02  0.00000000000E+00 0.  1.
         22    1    3    3    0    0 -0.97752521843E+02 -0.56825501974E+02  0.54273743501E+03  0.55439031066E+03  0.00000000000E+00 0.  1.
</event>
<event>
 7    1  0.6315518E-006  0.3845307E+02  0.7818608E-02  0.1531461E+00
          2   -1    0    0  502    0  0.00000000000E+00  0.00000000000E+00  0.58621685387E+02  0.58621685387E+02  0.00000000000E+00 0. -1.
          1   -1    0    0  501    0 -0.00000000000E+00 -0.00000000000E+00 -0.76676668285E+03  0.76676668285E+03  0.00000000000E+00 0. -1.
         25    2    1    2    0    0  0.54593684314E+01  0.11863174632E+00 -0.31048895246E+03  0.33474980887E+03  0.12499690461E+03 0.  0.
          2    1    1    2  501    0 -0.41072930981E+02 -0.60819676921E+00 -0.43621629007E+03  0.43814610267E+03  0.00000000000E+00 0. -1.
          1    1    1    2  502    0  0.35613562550E+02  0.48956502289E+00  0.38560245062E+02  0.52492456702E+02  0.00000000000E+00 0. -1.
         22    1    3    3    0    0 -0.35093141265E+02 -0.44624478153E+01 -0.28377953860E+03  0.28597599293E+03  0.00000000000E+00 0. -1.
         22    1    3    3    0    0  0.40552509697E+02  0.45810795616E+01 -0.26709413861E+02  0.48773815941E+02  0.00000000000E+00 0. -1.
</event>
<event>
 7    1  0.6315518E-006  0.4399623E+02  0.7818608E-02  0.1514590E+00
          2   -1    0    0  502    0  0.00000000000E+00  0.00000000000E+00  0.25279751044E+03  0.25279751044E+03  0.00000000000E+00 0. -1.
          1   -1    0    0  501    0 -0.00000000000E+00 -0.00000000000E+00 -0.12078983661E+04  0.12078983661E+04  0.00000000000E+00 0. -1.
         25    2    1    2    0    0 -0.20431503895E+02  0.69841606259E+01 -0.97093713499E+03  0.97918746975E+03  0.12499182358E+03 0.  0.
          2    1    1    2  501    0 -0.16827593631E+02 -0.30496293509E+02 -0.22956058277E+03  0.23218796908E+03  0.00000000000E+00 0. -1.
          1    1    1    2  502    0  0.37259097526E+02  0.23512132883E+02  0.24539686209E+03  0.24932043772E+03  0.00000000000E+00 0. -1.
         22    1    3    3    0    0 -0.54459362683E+02 -0.27226866702E+02 -0.27882464252E+03  0.28539499949E+03  0.00000000000E+00 0. -1.
         22    1    3    3    0    0  0.34027858788E+02  0.34211027328E+02 -0.69211249247E+03  0.69379247026E+03  0.00000000000E+00 0. -1.
</event>
<event>
 7    1  0.6315518E-006  0.3519527E+02  0.7818608E-02  0.1559237E+00
          2   -1    0    0  502    0  0.00000000000E+00  0.00000000000E+00  0.22491711504E+04  0.22491711504E+04  0.00000000000E+00 0. -1.
          1   -1    0    0  501    0 -0.00000000000E+00 -0.00000000000E+00 -0.58892090854E+03  0.58892090854E+03  0.00000000000E+00 0. -1.
         25    2    1    2    0    0  0.30723193196E+02 -0.48661270375E+02 -0.11968822017E+03  0.18238113863E+03  0.12500310335E+03 0.  0.
          2    1    1    2  501    0 -0.29585290006E+02  0.13497754364E+02 -0.43714273309E+03  0.43835059924E+03  0.00000000000E+00 0. -1.
          1    1    1    2  502    0 -0.11379031897E+01  0.35163516011E+02  0.22170811951E+04  0.22173603211E+04  0.00000000000E+00 0. -1.
         22    1    3    3    0    0  0.73944770960E+02 -0.13942209732E+02 -0.39754668989E+02  0.85103748866E+02  0.00000000000E+00 0. -1.
         22    1    3    3    0    0 -0.43221577764E+02 -0.34719060643E+02 -0.79933551177E+02  0.97277389768E+02  0.00000000000E+00 0. -1.
</event>
<event>
 7    1  0.6315518E-006  0.1514852E+03  0.7818608E-02  0.1376411E+00
          2   -1    0    0  502    0  0.00000000000E+00  0.00000000000E+00  0.63586745660E+03  0.63586745660E+03  0.00000000000E+00 0. -1.
          1   -1    0    0  501    0 -0.00000000000E+00 -0.00000000000E+00 -0.26077866185E+03  0.26077866185E+03  0.00000000000E+00 0. -1.
         25    2    1    2    0    0 -0.12827040406E+03 -0.59686418058E+02 -0.48242005380E+02  0.19485263775E+03  0.12499797716E+03 0.  0.
          2    1    1    2  501    0  0.15196485627E+03  0.44305024102E+02 -0.93730530741E+02  0.18396104233E+03  0.00000000000E+00 0. -1.
          1    1    1    2  502    0 -0.23694452208E+02  0.15381393956E+02  0.51706133088E+03  0.51783243838E+03  0.00000000000E+00 0. -1.
         22    1    3    3    0    0 -0.72064622968E+02 -0.22876530391E+02 -0.88600538389E+02  0.11647618181E+03  0.00000000000E+00 0.  1.
         22    1    3    3    0    0 -0.56205781096E+02 -0.36809887667E+02  0.40358533009E+02  0.78376455938E+02  0.00000000000E+00 0.  1.
</event>
<event>
 7    1  0.6315518E-006  0.4953433E+02  0.7818608E-02  0.1554687E+00
          2   -1    0    0  502    0  0.00000000000E+00  0.00000000000E+00  0.13436018140E+04  0.13436018140E+04  0.00000000000E+00 0. -1.
          1   -1    0    0  501    0 -0.00000000000E+00 -0.00000000000E+00 -0.44496825574E+02  0.44496825574E+02  0.00000000000E+00 0. -1.
         25    2    1    2    0    0 -0.30047956902E+01 -0.27422319717E+02  0.11257003755E+04  0.11329566771E+04  0.12501393712E+03 0.  0.
          2    1    1    2  501    0  0.16419760313E+02  0.47062372096E+02 -0.24690170322E+02  0.55624454214E+02  0.00000000000E+00 0. -1.
          1    1    1    2  502    0 -0.13414964623E+02 -0.19640052380E+02  0.19809478326E+03  0.19951750823E+03  0.00000000000E+00 0. -1.
         22    1    3    3    0    0 -0.31209839580E+01  0.25772780118E+02  0.53790560186E+02  0.59727724727E+02  0.00000000000E+00 0. -1.
         22    1    3    3    0    0  0.11618826774E+00 -0.53195099835E+02  0.10719098153E+04  0.10732289524E+04  0.00000000000E+00 0. -1.
</event>
<event>
 7    1  0.6315518E-006  0.1960877E+03  0.7818608E-02  0.1219983E+00
          2   -1    0    0  502    0  0.00000000000E+00  0.00000000000E+00  0.42975830375E+03  0.42975830375E+03  0.00000000000E+00 0. -1.
          1   -1    0    0  501    0 -0.00000000000E+00 -0.00000000000E+00 -0.33836456132E+04  0.33836456132E+04  0.00000000000E+00 0. -1.
         25    2    1    2    0    0  0.12987790430E+03  0.15076498597E+03 -0.17113780275E+02  0.23561922932E+03  0.12500075492E+03 0.  0.
          2    1    1    2  501    0  0.54993179665E+02 -0.75214576334E+02 -0.32254297695E+04  0.32267752758E+04  0.00000000000E+00 0. -1.
          1    1    1    2  502    0 -0.18487108396E+03 -0.75550409635E+02  0.28865624037E+03  0.35100941182E+03  0.00000000000E+00 0. -1.
         22    1    3    3    0    0  0.11545128217E+03  0.11162003845E+03 -0.63990699030E+02  0.17286654129E+03  0.00000000000E+00 0. -1.
         22    1    3    3    0    0  0.14426622132E+02  0.39144947523E+02  0.46876918755E+02  0.62752688028E+02  0.00000000000E+00 0. -1.
</event>
<event>
 7    1  0.6315518E-006  0.3105339E+02  0.7818608E-02  0.1602834E+00
          2   -1    0    0  502    0  0.00000000000E+00  0.00000000000E+00  0.59054839913E+03  0.59054839913E+03  0.00000000000E+00 0. -1.
          1   -1    0    0  501    0 -0.00000000000E+00 -0.00000000000E+00 -0.98729033610E+03  0.98729033610E+03  0.00000000000E+00 0. -1.
         25    2    1    2    0    0  0.46479483146E+02 -0.11395790898E+02 -0.37224712358E+03  0.39558415737E+03  0.12501479173E+03 0.  0.
          2    1    1    2  501    0 -0.17367188397E+02  0.22175794652E+02 -0.60262929727E+03  0.60328720775E+03  0.00000000000E+00 0. -1.
          1    1    1    2  502    0 -0.29112294749E+02 -0.10780003753E+02  0.57813448388E+03  0.57896737010E+03  0.00000000000E+00 0. -1.
         22    1    3    3    0    0  0.79124959276E+02 -0.93931973672E+01 -0.34157423334E+03  0.35074484774E+03  0.00000000000E+00 0. -1.
         22    1    3    3    0    0 -0.32645476131E+02 -0.20025935310E+01 -0.30672890239E+02  0.44839309632E+02  0.00000000000E+00 0. -1.
</event>
<event>
 7    1  0.6315518E-006  0.5350906E+02  0.7818608E-02  0.1480987E+00
          2   -1    0    0  502    0  0.00000000000E+00  0.00000000000E+00  0.90137803895E+02  0.90137803895E+02  0.00000000000E+00 0. -1.
          1   -1    0    0  501    0 -0.00000000000E+00 -0.00000000000E+00 -0.12804881086E+04  0.12804881086E+04  0.00000000000E+00 0. -1.
         25    2    1    2    0    0 -0.25440368714E+02 -0.25813376941E+02 -0.31895213049E+02  0.13399995337E+03  0.12500056039E+03 0.  0.
          2    1    1    2  501    0 -0.33218586630E+02  0.14140940502E+02 -0.11742193764E+04  0.11747742696E+04  0.00000000000E+00 0. -1.
          1    1    1    2  502    0  0.58658955344E+02  0.11672436439E+02  0.15764284774E+02  0.61851689459E+02  0.00000000000E+00 0. -1.
         22    1    3    3    0    0 -0.20840780752E+02 -0.54016940701E+02 -0.67120241683E+02  0.88641383499E+02  0.00000000000E+00 0. -1.
         22    1    3    3    0    0 -0.45995879627E+01  0.28203563760E+02  0.35225028634E+02  0.45358569868E+02  0.00000000000E+00 0. -1.
</event>
<event>
 7    1  0.6315518E-006  0.6317136E+02  0.7818608E-02  0.1421406E+00
          2   -1    0    0  502    0  0.00000000000E+00  0.00000000000E+00  0.80732048896E+03  0.80732048896E+03  0.00000000000E+00 0. -1.
          1   -1    0    0  501    0 -0.00000000000E+00 -0.00000000000E+00 -0.10487704401E+04  0.10487704401E+04  0.00000000000E+00 0. -1.
         25    2    1    2    0    0 -0.95233067078E+02 -0.55297494286E+02  0.27776418430E+03  0.32388936819E+03  0.12499692319E+03 0.  0.
          2    1    1    2  501    0  0.56423747102E+02  0.28071101550E+02 -0.10236273381E+04  0.10255654797E+04  0.00000000000E+00 0. -1.
          1    1    1    2  502    0  0.38809319976E+02  0.27226392737E+02  0.50441320261E+03  0.50663608117E+03  0.00000000000E+00 0. -1.
         22    1    3    3    0    0 -0.33114366123E+01 -0.26068059833E+02  0.19508520943E+03  0.19684701749E+03  0.00000000000E+00 0.  1.
         22    1    3    3    0    0 -0.91921630466E+02 -0.29229434453E+02  0.82678974869E+02  0.12704235070E+03  0.00000000000E+00 0.  1.
</event>
<event>
 7    1  0.6315518E-006  0.7770566E+02  0.7818608E-02  0.1343162E+00
          2   -1    0    0  502    0  0.00000000000E+00  0.00000000000E+00  0.43034216121E+02  0.43034216121E+02  0.00000000000E+00 0. -1.
          1   -1    0    0  501    0 -0.00000000000E+00 -0.00000000000E+00 -0.10214783338E+04  0.10214783338E+04  0.00000000000E+00 0. -1.
         25    2    1    2    0    0  0.20774936634E+02  0.10909060892E+02 -0.38582172466E+03  0.40624315956E+03  0.12499798347E+03 0.  0.
          2    1    1    2  501    0  0.38510286551E+02 -0.67491678629E+02 -0.56715042958E+03  0.57244893102E+03  0.00000000000E+00 0. -1.
          1    1    1    2  502    0 -0.59285223185E+02  0.56582617737E+02 -0.25471963430E+02  0.85820459327E+02  0.00000000000E+00 0. -1.
         22    1    3    3    0    0  0.16302516628E+02 -0.13648842636E+02 -0.38002212400E+03  0.38061644432E+03  0.00000000000E+00 0. -1.
         22    1    3    3    0    0  0.44724200067E+01  0.24557903528E+02 -0.57996006538E+01  0.25626715243E+02  0.00000000000E+00 0. -1.
</event>
<event>
 7    1  0.6315518E-006  0.5177291E+02  0.7818608E-02  0.1438592E+00
          2   -1    0    0  502    0  0.00000000000E+00  0.00000000000E+00  0.18207782745E+03  0.18207782745E+03  0.00000000000E+00 0. -1.
          1   -1    0    0  501    0 -0.00000000000E+00 -0.00000000000E+00 -0.16258780220E+04  0.16258780220E+04  0.00000000000E+00 0. -1.
         25    2    1    2    0    0 -0.66682493806E+02  0.55150647446E+02 -0.23690249528E+03  0.28148904789E+03  0.12500057166E+03 0.  0.
          2    1    1    2  501    0  0.15722334750E+02 -0.48283354381E+02 -0.13620598888E+04  0.13630060950E+04  0.00000000000E+00 0. -1.
          1    1    1    2  502    0  0.50960159057E+02 -0.68672930651E+01  0.15516218958E+03  0.16346070659E+03  0.00000000000E+00 0. -1.
         22    1    3    3    0    0 -0.18943081702E+02  0.12790315535E+02  0.11097290245E+02  0.25408312944E+02  0.00000000000E+00 0.  1.
         22    1    3    3    0    0 -0.47739412104E+02  0.42360331911E+02 -0.24799978553E+03  0.25608073495E+03  0.00000000000E+00 0.  1.
</event>
<event>
 7    1  0.6315518E-006  0.2091275E+03  0.7818608E-02  0.1179093E+00
          2   -1    0    0  502    0  0.00000000000E+00  0.00000000000E+00  0.25805935469E+04  0.25805935469E+04  0.00000000000E+00 0. -1.
          1   -1    0    0  501    0 -0.00000000000E+00 -0.00000000000E+00 -0.16576701995E+03  0.16576701995E+03  0.00000000000E+00 0. -1.
         25    2    1    2    0    0  0.41083243859E+02  0.14397947621E+03  0.74510245709E+03  0.77020749138E+03  0.12499594282E+03 0.  0.
          2    1    1    2  501    0  0.81985652074E+02 -0.20248577210E+03 -0.71307040414E+02  0.22979736522E+03  0.00000000000E+00 0. -1.
          1    1    1    2  502    0 -0.12306889593E+03  0.58506295886E+02  0.17410311103E+04  0.17463557103E+04  0.00000000000E+00 0. -1.
         22    1    3    3    0    0  0.23594326912E+02  0.10307684494E+03  0.69585427873E+03  0.70384281302E+03  0.00000000000E+00 0.  1.
         22    1    3    3    0    0  0.17488916947E+02  0.40902631275E+02  0.49248178367E+02  0.66364678359E+02  0.00000000000E+00 0.  1.
</event>
<event>
 7    1  0.6315518E-006  0.6463675E+02  0.7818608E-02  0.1481346E+00
          2   -1    0    0  502    0  0.00000000000E+00  0.00000000000E+00  0.16990724053E+04  0.16990724053E+04  0.00000000000E+00 0. -1.
          1   -1    0    0  501    0 -0.00000000000E+00 -0.00000000000E+00 -0.45514341718E+03  0.45514341718E+03  0.00000000000E+00 0. -1.
         25    2    1    2    0    0 -0.47765087623E+02 -0.38965538416E+01  0.13345818494E+04  0.13412788565E+04  0.12499428580E+03 0.  0.
          2    1    1    2  501    0  0.55863701739E+02  0.32587605664E+02 -0.44885802442E+03  0.45349336412E+03  0.00000000000E+00 0. -1.
          1    1    1    2  502    0 -0.80986141161E+01 -0.28691051823E+02  0.35820516317E+03  0.35944360187E+03  0.00000000000E+00 0. -1.
         22    1    3    3    0    0 -0.88427173729E+01  0.66834782387E+01  0.70543256855E+01  0.13138723027E+02  0.00000000000E+00 0.  1.
         22    1    3    3    0    0 -0.38922370250E+02 -0.10580032080E+02  0.13275275237E+04  0.13281401335E+04  0.00000000000E+00 0.  1.
</event>
<event>
 7    1  0.6315518E-006  0.7495324E+02  0.7818608E-02  0.1452559E+00
          2   -1    0    0  502    0  0.00000000000E+00  0.00000000000E+00  0.11281517376E+04  0.11281517376E+04  0.00000000000E+00 0. -1.
          1   -1    0    0  501    0 -0.00000000000E+00 -0.00000000000E+00 -0.40442025789E+03  0.40442025789E+03  0.00000000000E+00 0. -1.
         25    2    1    2    0    0  0.48383882520E+02  0.94354145052E+02  0.21858285956E+03  0.27321362827E+03  0.12499406147E+03 0.  0.
          2    1    1    2  501    0 -0.35618081658E+02 -0.65420745876E+02 -0.37313914465E+03  0.38050143627E+03  0.00000000000E+00 0. -1.
          1    1    1    2  502    0 -0.12765800861E+02 -0.28933399175E+02  0.87828776484E+03  0.87885693098E+03  0.00000000000E+00 0. -1.
         22    1    3    3    0    0  0.58386349090E+02  0.21328371599E+02  0.17913580921E+03  0.18961409055E+03  0.00000000000E+00 0. -1.
         22    1    3    3    0    0 -0.10002466571E+02  0.73025773452E+02  0.39447050357E+02  0.83599537724E+02  0.00000000000E+00 0. -1.
</event>
<event>
 7    1  0.6315518E-006  0.1513824E+03  0.7818608E-02  0.1257742E+00
          2   -1    0    0  502    0  0.00000000000E+00  0.00000000000E+00  0.71423193494E+03  0.71423193494E+03  0.00000000000E+00 0. -1.
          1   -1    0    0  501    0 -0.00000000000E+00 -0.00000000000E+00 -0.37389315523E+04  0.37389315523E+04  0.00000000000E+00 0. -1.
         25    2    1    2    0    0  0.76010758297E+02 -0.40810691796E+02 -0.20883688074E+03  0.25822276037E+03  0.12499201283E+03 0.  0.
          2    1    1    2  501    0 -0.15523365860E+03  0.18941558561E+02 -0.35012011815E+04  0.35046919957E+04  0.00000000000E+00 0. -1.
          1    1    1    2  502    0  0.79222900308E+02  0.21869133235E+02  0.68533844486E+03  0.69024873120E+03  0.00000000000E+00 0. -1.
         22    1    3    3    0    0  0.10991715340E+03 -0.35148696226E+02 -0.17744908336E+03  0.21167283398E+03  0.00000000000E+00 0.  1.
         22    1    3    3    0    0 -0.33906395102E+02 -0.56619955700E+01 -0.31387797383E+02  0.46549926393E+02  0.00000000000E+00 0.  1.
</event>
<event>
 7    1  0.6315518E-006  0.5476313E+02  0.7818608E-02  0.1483622E+00
          2   -1    0    0  502    0  0.00000000000E+00  0.00000000000E+00  0.17308378210E+04  0.17308378210E+04  0.00000000000E+00 0. -1.
          1   -1    0    0  501    0 -0.00000000000E+00 -0.00000000000E+00 -0.14521947126E+03  0.14521947126E+03  0.00000000000E+00 0. -1.
         25    2    1    2    0    0 -0.58590516419E+01  0.22238440986E+02  0.10382362617E+03  0.16411560647E+03  0.12500284074E+03 0.  0.
          2    1    1    2  501    0  0.27419468683E+02 -0.49335536692E+02 -0.10795229755E+03  0.12181757259E+03  0.00000000000E+00 0. -1.
          1    1    1    2  502    0 -0.21560417041E+02  0.27097095706E+02  0.15897470211E+04  0.15901241132E+04  0.00000000000E+00 0. -1.
         22    1    3    3    0    0 -0.57286600947E+02  0.19106452772E+02  0.93905245015E+02  0.11164679228E+03  0.00000000000E+00 0.  1.
         22    1    3    3    0    0  0.51427549305E+02  0.31319882144E+01  0.99183811516E+01  0.52468814189E+02  0.00000000000E+00 0.  1.
</event>
<event>
 7    1  0.6315518E-006  0.1143568E+03  0.7818608E-02  0.1377165E+00
          2   -1    0    0  502    0  0.00000000000E+00  0.00000000000E+00  0.73747029673E+03  0.73747029673E+03  0.00000000000E+00 0. -1.
          1   -1    0    0  501    0 -0.00000000000E+00 -0.00000000000E+00 -0.10630807220E+03  0.10630807220E+03  0.00000000000E+00 0. -1.
         25    2    1    2    0    0 -0.18304849587E+02  0.12765746497E+03  0.25266015843E+03  0.30999108453E+03  0.12500328375E+03 0.  0.
          2    1    1    2  501    0 -0.15329882408E+02 -0.11178791885E+03 -0.35369723130E+02  0.11824788121E+03  0.00000000000E+00 0. -1.
          1    1    1    2  502    0  0.33634731995E+02 -0.15869546116E+02  0.41387178923E+03  0.41553940320E+03  0.00000000000E+00 0. -1.
         22    1    3    3    0    0 -0.67374170428E+00  0.28208286494E+02  0.18791264856E+03  0.19001927493E+03  0.00000000000E+00 0.  1.
         22    1    3    3    0    0 -0.17631107883E+02  0.99449178472E+02  0.64747509865E+02  0.11997180960E+03  0.00000000000E+00 0.  1.
</event>
<event>
 7    1  0.6315518E-006  0.3724558E+02  0.7818608E-02  0.1613573E+00
          2   -1    0    0  502    0  0.00000000000E+00  0.00000000000E+00  0.28625873171E+03  0.28625873171E+03  0.00000000000E+00 0. -1.
          1   -1    0    0  501    0 -0.00000000000E+00 -0.00000000000E+00 -0.86096803271E+03  0.86096803271E+03  0.00000000000E+00 0. -1.
         25    2    1    2    0    0  0.58639500260E+02  0.63405837259E+01  0.38857148435E+02  0.14357319153E+03  0.12499835739E+03 0.  0.
          2    1    1    2  501    0 -0.36609836266E+02 -0.62789502711E+01 -0.80755969735E+03  0.80841348957E+03  0.00000000000E+00 0. -1.
          1    1    1    2  502    0 -0.22029663995E+02 -0.61633454799E-01  0.19399324792E+03  0.19524008332E+03  0.00000000000E+00 0. -1.
         22    1    3    3    0    0 -0.11236449599E+02  0.21557028394E+02  0.63451286364E+02  0.67948723417E+02  0.00000000000E+00 0. -1.
         22    1    3    3    0    0  0.69875949860E+02 -0.15216444669E+02 -0.24594137928E+02  0.75624468115E+02  0.00000000000E+00 0. -1.
</event>
<event>
 7    1  0.6315518E-006  0.1076539E+03  0.7818608E-02  0.1431194E+00
          2   -1    0    0  502    0  0.00000000000E+00  0.00000000000E+00  0.20286481814E+04  0.20286481814E+04  0.00000000000E+00 0. -1.
          1   -1    0    0  501    0 -0.00000000000E+00 -0.00000000000E+00 -0.64173952846E+03  0.64173952846E+03  0.00000000000E+00 0. -1.
         25    2    1    2    0    0 -0.11092832609E+03  0.47713843750E+02 -0.33850066092E+03  0.38051097167E+03  0.12499679078E+03 0.  0.
          2    1    1    2  501    0  0.57033719555E+01 -0.25181132195E+02 -0.28019777735E+03  0.28138481179E+03  0.00000000000E+00 0. -1.
          1    1    1    2  502    0  0.10522495413E+03 -0.22532711554E+02  0.20056070912E+04  0.20084919264E+04  0.00000000000E+00 0. -1.
         22    1    3    3    0    0 -0.10312819471E+03  0.14138549684E+02 -0.32853316513E+03  0.34462931350E+03  0.00000000000E+00 0.  1.
         22    1    3    3    0    0 -0.78001313719E+01  0.33575294066E+02 -0.99674957940E+01  0.35881658176E+02  0.00000000000E+00 0.  1.
</event>
<event>
 7    1  0.6315518E-006  0.4740021E+02  0.7818608E-02  0.1496934E+00
          2   -1    0    0  502    0  0.00000000000E+00  0.00000000000E+00  0.14312202701E+04  0.14312202701E+04  0.00000000000E+00 0. -1.
          1   -1    0    0  501    0 -0.00000000000E+00 -0.00000000000E+00 -0.83401421300E+02  0.83401421300E+02  0.00000000000E+00 0. -1.
         25    2    1    2    0    0 -0.55014005394E+02 -0.48083706157E+02  0.24126925896E+03  0.28137995829E+03  0.12500096809E+03 0.  0.
          2    1    1    2  501    0  0.44907359357E+02  0.13047264290E+02 -0.54389848719E+02  0.71729754451E+02  0.00000000000E+00 0. -1.
          1    1    1    2  502    0  0.10106646037E+02  0.35036441867E+02  0.11609394385E+04  0.11615119786E+04  0.00000000000E+00 0. -1.
         22    1    3    3    0    0 -0.47269602196E+02 -0.35683241324E+02  0.24459614052E+02  0.64077934757E+02  0.00000000000E+00 0.  1.
         22    1    3    3    0    0 -0.77444031977E+01 -0.12400464833E+02  0.21680964491E+03  0.21730202354E+03  0.00000000000E+00 0.  1.
</event>
<event>
 7    1  0.6315518E-006  0.1140165E+03  0.7818608E-02  0.1316617E+00
          2   -1    0    0  502    0  0.00000000000E+00  0.00000000000E+00  0.44924870678E+03  0.44924870678E+03  0.00000000000E+00 0. -1.
          1   -1    0    0  501    0 -0.00000000000E+00 -0.00000000000E+00 -0.13360441211E+04  0.13360441211E+04  0.00000000000E+00 0. -1.
         25    2    1    2    0    0  0.14160890486E+03  0.24581570285E+02 -0.83400766145E+02  0.20793409721E+03  0.12499426169E+03 0.  0.
          2    1    1    2  501    0 -0.93183239508E+02 -0.64404418333E+02 -0.11851188352E+04  0.11905199279E+04  0.00000000000E+00 0. -1.
          1    1    1    2  502    0 -0.48425665355E+02  0.39822848048E+02  0.38172418707E+03  0.38683880271E+03  0.00000000000E+00 0. -1.
         22    1    3    3    0    0  0.94776937821E+01  0.39719049134E+02  0.13911499960E+02  0.43138838356E+02  0.00000000000E+00 0. -1.
         22    1    3    3    0    0  0.13213121108E+03 -0.15137478850E+02 -0.97312266104E+02  0.16479525886E+03  0.00000000000E+00 0. -1.
</event>
<event>
 7    1  0.6315518E-006  0.2103312E+03  0.7818608E-02  0.1262632E+00
          2   -1    0    0  502    0  0.00000000000E+00  0.00000000000E+00  0.15478419667E+04  0.15478419667E+04  0.00000000000E+00 0. -1.
          1   -1    0    0  501    0 -0.00000000000E+00 -0.00000000000E+00 -0.44496889578E+03  0.44496889578E+03  0.00000000000E+00 0. -1.
         25    2    1    2    0    0  0.23305636713E+03  0.10366624342E+03  0.31116884972E+03  0.42132259387E+03  0.12499885913E+03 0.  0.
          2    1    1    2  501    0 -0.39989908279E+02 -0.39739350819E+02 -0.37904052124E+03  0.38321028889E+03  0.00000000000E+00 0. -1.
          1    1    1    2  502    0 -0.19306645885E+03 -0.63926892596E+02  0.11707447425E+04  0.11882779798E+04  0.00000000000E+00 0. -1.
         22    1    3    3    0    0  0.11752752825E+03  0.21936952351E+02  0.22729013919E+03  0.25681658269E+03  0.00000000000E+00 0. -1.
         22    1    3    3    0    0  0.11552883888E+03  0.81729291065E+02  0.83878710525E+02  0.16450601117E+03  0.00000000000E+00 0. -1.
</event>
<event>
 7    1  0.6315518E-006  0.4491552E+02  0.7818608E-02  0.1504217E+00
          2   -1    0    0  502    0  0.00000000000E+00  0.00000000000E+00  0.34478300457E+03  0.34478300457E+03  0.00000000000E+00 0. -1.
          1   -1    0    0  501    0 -0.00000000000E+00 -0.00000000000E+00 -0.25971432830E+03  0.25971432830E+03  0.00000000000E+00 0. -1.
         25    2    1    2    0    0 -0.17089547357E+02 -0.33157420095E+02 -0.90343445927E+02  0.15867317526E+03  0.12499508466E+03 0.  0.
          2    1    1    2  501    0  0.46077019942E+02  0.10804067316E+02 -0.12993762177E+03  0.13828812381E+03  0.00000000000E+00 0. -1.
          1    1    1    2  502    0 -0.28987472586E+02  0.22353352779E+02  0.30534974396E+03  0.30753603380E+03  0.00000000000E+00 0. -1.
         22    1    3    3    0    0  0.10135043539E+02 -0.76525665678E+02 -0.40323567964E+02  0.87091255292E+02  0.00000000000E+00 0.  1.
         22    1    3    3    0    0 -0.27224590895E+02  0.43368245583E+02 -0.50019877963E+02  0.71581919965E+02  0.00000000000E+00 0.  1.
</event>
<event>
 7    1  0.6315518E-006  0.8097865E+02  0.7818608E-02  0.1371695E+00
          2   -1    0    0  502    0  0.00000000000E+00  0.00000000000E+00  0.39538967714E+04  0.39538967714E+04  0.00000000000E+00 0. -1.
          1   -1    0    0  501    0 -0.00000000000E+00 -0.00000000000E+00 -0.37636845982E+03  0.37636845982E+03  0.00000000000E+00 0. -1.
         25    2    1    2    0    0  0.24773214537E+02 -0.12294946742E+03  0.14652046777E+03  0.22983172955E+03  0.12499637090E+03 0.  0.
          2    1    1    2  501    0  0.88494188850E+01  0.79504116896E+02 -0.32972971681E+03  0.33929471403E+03  0.00000000000E+00 0. -1.
          1    1    1    2  502    0 -0.33622633423E+02  0.43445350524E+02  0.37607375606E+04  0.37611387876E+04  0.00000000000E+00 0. -1.
         22    1    3    3    0    0  0.57276599611E+01 -0.59859573539E+02 -0.91137247424E+01  0.60819689342E+02  0.00000000000E+00 0. -1.
         22    1    3    3    0    0  0.19045554576E+02 -0.63089893881E+02  0.15563419251E+03  0.16901204021E+03  0.00000000000E+00 0. -1.
</event>
<event>
 7    1  0.6315518E-006  0.1113266E+03  0.7818608E-02  0.1309980E+00
          2   -1    0    0  502    0  0.00000000000E+00  0.00000000000E+00  0.60921613852E+03  0.60921613852E+03  0.00000000000E+00 0. -1.
          1   -1    0    0  501    0 -0.00000000000E+00 -0.00000000000E+00 -0.16963063830E+04  0.16963063830E+04  0.00000000000E+00 0. -1.
         25    2    1    2    0    0 -0.15525546011E+03  0.17159578792E+02  0.22113753160E+02  0.20127636003E+03  0.12499778394E+03 0.  0.
          2    1    1    2  501    0  0.50174008628E+02 -0.46159186847E+02 -0.16000192783E+04  0.16014711338E+04  0.00000000000E+00 0. -1.
          1    1    1    2  502    0  0.10508145148E+03  0.28999608054E+02  0.49081528064E+03  0.50277502765E+03  0.00000000000E+00 0. -1.
         22    1    3    3    0    0 -0.84079686185E+02 -0.53506756733E+02  0.14178616046E+02  0.10066478927E+03  0.00000000000E+00 0.  1.
         22    1    3    3    0    0 -0.71175773920E+02  0.70666335525E+02  0.79351371143E+01  0.10061157076E+03  0.00000000000E+00 0.  1.
</event>
<event>
 7    1  0.6315518E-006  0.8102795E+02  0.7818608E-02  0.1504091E+00
          2   -1    0    0  502    0  0.00000000000E+00  0.00000000000E+00  0.18306721272E+04  0.18306721272E+04  0.00000000000E+00 0. -1.
          1   -1    0    0  501    0 -0.00000000000E+00 -0.00000000000E+00 -0.17988412125E+02  0.17988412125E+02  0.00000000000E+00 0. -1.
         25    2    1    2    0    0  0.73121393389E+02 -0.12885919491E-01  0.11047380809E+04  0.11141902380E+04  0.12500768298E+03 0.  0.
          2    1    1    2  501    0 -0.79893966820E+02  0.19158892227E+02  0.11584635130E+03  0.14202283688E+03  0.00000000000E+00 0. -1.
          1    1    1    2  502    0  0.67725734307E+01 -0.19146006307E+02  0.59209928290E+03  0.59244746443E+03  0.00000000000E+00 0. -1.
         22    1    3    3    0    0  0.62234632702E+02  0.36549124466E+02  0.10020377546E+04  0.10046335898E+04  0.00000000000E+00 0.  1.
         22    1    3    3    0    0  0.10886760686E+02 -0.36562010386E+02  0.10270032630E+03  0.10955664829E+03  0.00000000000E+00 0.  1.
</event>
<event>
 7    1  0.6315518E-006  0.4016802E+02  0.7818608E-02  0.1537602E+00
          2   -1    0    0  502    0  0.00000000000E+00  0.00000000000E+00  0.34000457787E+03  0.34000457787E+03  0.00000000000E+00 0. -1.
          1   -1    0    0  501    0 -0.00000000000E+00 -0.00000000000E+00 -0.21632544880E+03  0.21632544880E+03  0.00000000000E+00 0. -1.
         25    2    1    2    0    0  0.54351950270E+01 -0.10584071301E+02 -0.52715207664E+02  0.13618003880E+03  0.12499818374E+03 0.  0.
          2    1    1    2  501    0 -0.15749480106E+02 -0.28714931332E+02 -0.11825819453E+03  0.12270938830E+03  0.00000000000E+00 0. -1.
          1    1    1    2  502    0  0.10314285079E+02  0.39299002633E+02  0.29465253127E+03  0.29744059956E+03  0.00000000000E+00 0. -1.
         22    1    3    3    0    0 -0.13983106316E+02  0.49878278850E+02 -0.50939371055E+02  0.72651149246E+02  0.00000000000E+00 0. -1.
         22    1    3    3    0    0  0.19418301343E+02 -0.60462350151E+02 -0.17758366094E+01  0.63528889558E+02  0.00000000000E+00 0. -1.
</event>
<event>
 7    1  0.6315518E-006  0.1365314E+03  0.7818608E-02  0.1259498E+00
          2   -1    0    0  502    0  0.00000000000E+00  0.00000000000E+00  0.37318560463E+03  0.37318560463E+03  0.00000000000E+00 0. -1.
          1   -1    0    0  501    0 -0.00000000000E+00 -0.00000000000E+00 -0.18626840629E+04  0.18626840629E+04  0.00000000000E+00 0. -1.
         25    2    1    2    0    0 -0.42026239337E+02  0.25717275554E+02 -0.77652346847E+03  0.78806291586E+03  0.12500751660E+03 0.  0.
          2    1    1    2  501    0 -0.85042789003E+02  0.28093138743E+02 -0.10654886958E+04  0.10692463053E+04  0.00000000000E+00 0. -1.
          1    1    1    2  502    0  0.12706902834E+03 -0.53810414297E+02  0.35251370603E+03  0.37856044641E+03  0.00000000000E+00 0. -1.
         22    1    3    3    0    0  0.28453711495E+02 -0.90399787719E+01 -0.49146008246E+03  0.49236607069E+03  0.00000000000E+00 0. -1.
         22    1    3    3    0    0 -0.70479950832E+02  0.34757254326E+02 -0.28506338601E+03  0.29569684517E+03  0.00000000000E+00 0. -1.
</event>
<event>
 7    1  0.6315518E-006  0.6269968E+02  0.7818608E-02  0.1398603E+00
          2   -1    0    0  502    0  0.00000000000E+00  0.00000000000E+00  0.11711802332E+04  0.11711802332E+04  0.00000000000E+00 0. -1.
          1   -1    0    0  501    0 -0.00000000000E+00 -0.00000000000E+00 -0.70353455750E+02  0.70353455750E+02  0.00000000000E+00 0. -1.
         25    2    1    2    0    0 -0.90962751896E+02  0.66759230195E+02  0.30977838017E+03  0.35258888909E+03  0.12500105135E+03 0.  0.
          2    1    1    2  501    0  0.34561417624E+02 -0.45410048128E+02 -0.30826619227E+02  0.64860192045E+02  0.00000000000E+00 0. -1.
          1    1    1    2  502    0  0.56401334272E+02 -0.21349182067E+02  0.82187501650E+03  0.82408460781E+03  0.00000000000E+00 0. -1.
         22    1    3    3    0    0  0.21735127244E+02 -0.65805052269E+01  0.10629202362E+03  0.10869090620E+03  0.00000000000E+00 0. -1.
         22    1    3    3    0    0 -0.11269787914E+03  0.73339735422E+02  0.20348635655E+03  0.24389798289E+03  0.00000000000E+00 0. -1.
</event>
<event>
 7    1  0.6315518E-006  0.4984029E+02  0.7818608E-02  0.1495324E+00
          2   -1    0    0  502    0  0.00000000000E+00  0.00000000000E+00  0.69204233602E+03  0.69204233602E+03  0.00000000000E+00 0. -1.
          1   -1    0    0  501    0 -0.00000000000E+00 -0.00000000000E+00 -0.43054694740E+03  0.43054694740E+03  0.00000000000E+00 0. -1.
         25    2    1    2    0    0 -0.12370534983E+02 -0.90168574816E+01 -0.10564683875E+03  0.16438226903E+03  0.12500376786E+03 0.  0.
          2    1    1    2  501    0 -0.32356189293E+02 -0.13520678244E+02 -0.29354096137E+03  0.29562819170E+03  0.00000000000E+00 0. -1.
          1    1    1    2  502    0  0.44726724277E+02  0.22537535726E+02  0.66068318874E+03  0.66257882268E+03  0.00000000000E+00 0. -1.
         22    1    3    3    0    0 -0.45972959624E+02 -0.36054746519E+02 -0.10624371981E+03  0.12124844643E+03  0.00000000000E+00 0. -1.
         22    1    3    3    0    0  0.33602424640E+02  0.27037889037E+02  0.59688105839E+00  0.43133822602E+02  0.00000000000E+00 0. -1.
</event>
<event>
 7    1  0.6315518E-006  0.1064511E+03  0.7818608E-02  0.1287135E+00
          2   -1    0    0  502    0  0.00000000000E+00  0.00000000000E+00  0.45669656783E+03  0.45669656783E+03  0.00000000000E+00 0. -1.
          1   -1    0    0  501    0 -0.00000000000E+00 -0.00000000000E+00 -0.84582952474E+03  0.84582952474E+03  0.00000000000E+00 0. -1.
         25    2    1    2    0    0  0.14804987900E+02  0.20640193638E+02  0.47690795000E+02  0.13618888878E+03  0.12501118446E+03 0.  0.
          2    1    1    2  501    0 -0.16382334109E+02 -0.10868089151E+03 -0.79241743231E+03  0.80000331504E+03  0.00000000000E+00 0. -1.
          1    1    1    2  502    0  0.15773462096E+01  0.88040697869E+02  0.35559368040E+03  0.36633388875E+03  0.00000000000E+00 0. -1.
         22    1    3    3    0    0 -0.35055999269E+02  0.28012585135E+01 -0.27205267657E+02  0.44462306759E+02  0.00000000000E+00 0. -1.
         22    1    3    3    0    0  0.49860987169E+02  0.17838935125E+02  0.74896062657E+02  0.91726582021E+02  0.00000000000E+00 0. -1.
</event>
<event>
 7    1  0.6315518E-006  0.6015201E+02  0.7818608E-02  0.1418692E+00
          2   -1    0    0  502    0  0.00000000000E+00  0.00000000000E+00  0.72971043424E+03  0.72971043424E+03  0.00000000000E+00 0. -1.
          1   -1    0    0  501    0 -0.00000000000E+00 -0.00000000000E+00 -0.14525164550E+04  0.14525164550E+04  0.00000000000E+00 0. -1.
         25    2    1    2    0    0  0.66472134545E+02  0.24602356905E+02  0.18350586662E+03  0.23307130337E+03  0.12499603487E+03 0.  0.
          2    1    1    2  501    0 -0.25399395365E+02 -0.54559170559E+02 -0.14258583798E+04  0.14271278680E+04  0.00000000000E+00 0. -1.
          1    1    1    2  502    0 -0.41072739181E+02  0.29956813654E+02  0.51954649235E+03  0.52202771795E+03  0.00000000000E+00 0. -1.
         22    1    3    3    0    0  0.70633535098E+02 -0.66377935615E+01  0.18827354103E+03  0.20119662729E+03  0.00000000000E+00 0.  1.
         22    1    3    3    0    0 -0.41614005523E+01  0.31240150467E+02 -0.47676744050E+01  0.31874676076E+02  0.00000000000E+00 0.  1.
</event>
<event>
 7    1  0.6315518E-006  0.4936935E+02  0.7818608E-02  0.1478622E+00
          2   -1    0    0  502    0  0.00000000000E+00  0.00000000000E+00  0.32422497562E+03  0.32422497562E+03  0.00000000000E+00 0. -1.
          1   -1    0    0  501    0 -0.00000000000E+00 -0.00000000000E+00 -0.69257924790E+02  0.69257924790E+02  0.00000000000E+00 0. -1.
         25    2    1    2    0    0 -0.40203503769E+02  0.35222004302E+02  0.26934153965E+03  0.30170674146E+03  0.12500072624E+03 0.  0.
          2    1    1    2  501    0  0.33126365303E+01 -0.50131758273E+02 -0.27204343765E+01  0.50314684850E+02  0.00000000000E+00 0. -1.
          1    1    1    2  502    0  0.36890867239E+02  0.14909753972E+02 -0.11654054445E+02  0.41461474095E+02  0.00000000000E+00 0. -1.
         22    1    3    3    0    0 -0.29188275043E+02 -0.17993062754E+02  0.23485420078E+03  0.23734405687E+03  0.00000000000E+00 0. -1.
         22    1    3    3    0    0 -0.11015228727E+02  0.53215067056E+02  0.34487338866E+02  0.64362684591E+02  0.00000000000E+00 0. -1.
</event>
<event>
 7    1  0.6315518E-006  0.7968978E+02  0.7818608E-02  0.1459607E+00
          2   -1    0    0  502    0  0.00000000000E+00  0.00000000000E+00  0.16645684445E+04  0.16645684445E+04  0.00000000000E+00 0. -1.
          1   -1    0    0  501    0 -0.00000000000E+00 -0.00000000000E+00 -0.23093028247E+03  0.23093028247E+03  0.00000000000E+00 0. -1.
         25    2    1    2    0    0 -0.74195641846E+02 -0.31913524297E+02 -0.62692869831E+02  0.16148752502E+03  0.12499743400E+03 0.  0.
          2    1    1    2  501    0 -0.54182596604E+01  0.27727921627E+02 -0.11616210446E+03  0.11954844076E+03  0.00000000000E+00 0. -1.
          1    1    1    2  502    0  0.79613901507E+02  0.41856026706E+01  0.16124931363E+04  0.16144627612E+04  0.00000000000E+00 0. -1.
         22    1    3    3    0    0 -0.16502637846E+02 -0.39963679692E+01 -0.90169035469E+02  0.91753817197E+02  0.00000000000E+00 0. -1.
         22    1    3    3    0    0 -0.57693004000E+02 -0.27917156328E+02  0.27476165638E+02  0.69733707819E+02  0.00000000000E+00 0. -1.
</event>
<event>
 7    1  0.6315518E-006  0.1099990E+03  0.7818608E-02  0.1384871E+00
          2   -1    0    0  502    0  0.00000000000E+00  0.00000000000E+00  0.40221142669E+03  0.40221142669E+03  0.00000000000E+00 0. -1.
          1   -1    0    0  501    0 -0.00000000000E+00 -0.00000000000E+00 -0.99877984212E+03  0.99877984212E+03  0.00000000000E+00 0. -1.
         25    2    1    2    0    0 -0.11384908204E+03  0.18903622535E+02 -0.22238038579E+03  0.27997961805E+03  0.12496635593E+03 0.  0.
          2    1    1    2  501    0  0.16507406719E+02  0.32343388378E+02 -0.73904229303E+03  0.73993384848E+03  0.00000000000E+00 0. -1.
          1    1    1    2  502    0  0.97341675318E+02 -0.51247010912E+02  0.36485426338E+03  0.38107780228E+03  0.00000000000E+00 0. -1.
         22    1    3    3    0    0  0.14459225997E+02  0.33587832161E+02 -0.78749052983E+02  0.86825255723E+02  0.00000000000E+00 0.  1.
         22    1    3    3    0    0 -0.12830830803E+03 -0.14684209626E+02 -0.14363133281E+03  0.19315436233E+03  0.00000000000E+00 0.  1.
</event>
<event>
 7    1  0.6315518E-006  0.3851035E+02  0.7818608E-02  0.1560213E+00
          2   -1    0    0  502    0  0.00000000000E+00  0.00000000000E+00  0.15070490566E+03  0.15070490566E+03  0.00000000000E+00 0. -1.
          1   -1    0    0  501    0 -0.00000000000E+00 -0.00000000000E+00 -0.17124843915E+03  0.17124843915E+03  0.00000000000E+00 0. -1.
         25    2    1    2    0    0  0.89136709729E+01 -0.22423962531E+02 -0.23021944563E+02  0.12938134385E+03  0.12500893800E+03 0.  0.
          2    1    1    2  501    0 -0.26409257200E+02 -0.13226362580E+02 -0.88502939390E+02  0.93301424499E+02  0.00000000000E+00 0. -1.
          1    1    1    2  502    0  0.17495586227E+02  0.35650325111E+02  0.90981350460E+02  0.99270576454E+02  0.00000000000E+00 0. -1.
         22    1    3    3    0    0  0.24601823835E+02 -0.36143655210E+02 -0.67408069161E+02  0.80345885619E+02  0.00000000000E+00 0.  1.
         22    1    3    3    0    0 -0.15688152862E+02  0.13719692679E+02  0.44386124597E+02  0.49035458234E+02  0.00000000000E+00 0.  1.
</event>
<event>
 7    1  0.6315518E-006  0.9498588E+02  0.7818608E-02  0.1332267E+00
          2   -1    0    0  502    0  0.00000000000E+00  0.00000000000E+00  0.17186506238E+04  0.17186506238E+04  0.00000000000E+00 0. -1.
          1   -1    0    0  501    0 -0.00000000000E+00 -0.00000000000E+00 -0.13875816163E+03  0.13875816163E+03  0.00000000000E+00 0. -1.
         25    2    1    2    0    0 -0.38990232586E+02 -0.10214340064E+03  0.15130616389E+03  0.22465871551E+03  0.12499788275E+03 0.  0.
          2    1    1    2  501    0 -0.41268125580E+02  0.50865910217E+02 -0.89926898509E+02  0.11125307226E+03  0.00000000000E+00 0. -1.
          1    1    1    2  502    0  0.80258358165E+02  0.51277490422E+02  0.15185131968E+04  0.15214969977E+04  0.00000000000E+00 0. -1.
         22    1    3    3    0    0 -0.58133285405E+02 -0.11871287685E+03  0.14908262480E+03  0.19924320570E+03  0.00000000000E+00 0.  1.
         22    1    3    3    0    0  0.19143052819E+02  0.16569476209E+02  0.22235390989E+01  0.25415509815E+02  0.00000000000E+00 0.  1.
</event>
<event>
 7    1  0.6315518E-006  0.1061187E+03  0.7818608E-02  0.1376451E+00
          2   -1    0    0  502    0  0.00000000000E+00  0.00000000000E+00  0.38237765745E+03  0.38237765745E+03  0.00000000000E+00 0. -1.
          1   -1    0    0  501    0 -0.00000000000E+00 -0.00000000000E+00 -0.34002731910E+04  0.34002731910E+04  0.00000000000E+00 0. -1.
         25    2    1    2    0    0 -0.44147288109E+02  0.67214451679E+02 -0.61186522071E+03  0.62965930895E+03  0.12500012591E+03 0.  0.
          2    1    1    2  501    0 -0.40248448816E+02 -0.22774498180E+01 -0.27717709854E+04  0.27720641262E+04  0.00000000000E+00 0. -1.
          1    1    1    2  502    0  0.84395736926E+02 -0.64937001861E+02  0.36574067255E+03  0.38092741327E+03  0.00000000000E+00 0. -1.
         22    1    3    3    0    0 -0.67295348263E+02  0.44145311284E+02 -0.57411314304E+03  0.57972698180E+03  0.00000000000E+00 0.  1.
         22    1    3    3    0    0  0.23148060153E+02  0.23069140395E+02 -0.37752077665E+02  0.49932327158E+02  0.00000000000E+00 0.  1.
</event>
<event>
 7    1  0.6315518E-006  0.9022493E+02  0.7818608E-02  0.1400739E+00
          2   -1    0    0  502    0  0.00000000000E+00  0.00000000000E+00  0.88645847424E+03  0.88645847424E+03  0.00000000000E+00 0. -1.
          1   -1    0    0  501    0 -0.00000000000E+00 -0.00000000000E+00 -0.68490461061E+02  0.68490461061E+02  0.00000000000E+00 0. -1.
         25    2    1    2    0    0  0.56727996697E+02 -0.40595463471E+02  0.32355143919E+03  0.35380290689E+03  0.12499962343E+03 0.  0.
          2    1    1    2  501    0 -0.49723902152E+02  0.78952585865E+02 -0.11247134947E+02  0.93981249750E+02  0.00000000000E+00 0. -1.
          1    1    1    2  502    0 -0.70040945449E+01 -0.38357122394E+02  0.50566370894E+03  0.50716477866E+03  0.00000000000E+00 0. -1.
         22    1    3    3    0    0  0.27407050608E+02 -0.68400647174E+02  0.29565765998E+03  0.30470189836E+03  0.00000000000E+00 0. -1.
         22    1    3    3    0    0  0.29320946089E+02  0.27805183703E+02  0.27893779206E+02  0.49101008530E+02  0.00000000000E+00 0. -1.
</event>
<event>
 7    1  0.6315518E-006  0.7235400E+02  0.7818608E-02  0.1415276E+00
          2   -1    0    0  502    0  0.00000000000E+00  0.00000000000E+00  0.36054063522E+03  0.36054063522E+03  0.00000000000E+00 0. -1.
          1   -1    0    0  501    0 -0.00000000000E+00 -0.00000000000E+00 -0.15687392792E+04  0.15687392792E+04  0.00000000000E+00 0. -1.
         25    2    1    2    0    0  0.18009209082E+02  0.10267175992E+03 -0.56818456061E+02  0.17238802575E+03  0.12499389016E+03 0.  0.
          2    1    1    2  501    0  0.11654098682E+02 -0.71000397484E+02 -0.14516855951E+04  0.14534675578E+04  0.00000000000E+00 0. -1.
          1    1    1    2  502    0 -0.29663307764E+02 -0.31671362434E+02  0.30030540716E+03  0.30342433092E+03  0.00000000000E+00 0. -1.
         22    1    3    3    0    0 -0.40450531722E+02  0.34438389501E+01  0.62603483942E+01  0.41076727053E+02  0.00000000000E+00 0. -1.
         22    1    3    3    0    0  0.58459740804E+02  0.99227920968E+02 -0.63078804455E+02  0.13131129870E+03  0.00000000000E+00 0. -1.
</event>
<event>
 7    1  0.6315518E-006  0.3871366E+02  0.7818608E-02  0.1564979E+00
          2   -1    0    0  502    0  0.00000000000E+00  0.00000000000E+00  0.11850048909E+04  0.11850048909E+04  0.00000000000E+00 0. -1.
          1   -1    0    0  501    0 -0.00000000000E+00 -0.00000000000E+00 -0.39111020989E+03  0.39111020989E+03  0.00000000000E+00 0. -1.
         25    2    1    2    0    0 -0.39841045360E+02  0.53293646924E+02 -0.14521422808E+03  0.20282829730E+03  0.12499849780E+03 0.  0.
          2    1    1    2  501    0  0.13211127458E+02 -0.25264033143E+02 -0.21582804305E+03  0.21770289255E+03  0.00000000000E+00 0. -1.
          1    1    1    2  502    0  0.26629917901E+02 -0.28029613781E+02  0.11549369522E+04  0.11555839110E+04  0.00000000000E+00 0. -1.
         22    1    3    3    0    0  0.44129166819E+02  0.25859574572E+02 -0.36955930207E+02  0.63101836254E+02  0.00000000000E+00 0. -1.
         22    1    3    3    0    0 -0.83970212179E+02  0.27434072352E+02 -0.10825829787E+03  0.13972646105E+03  0.00000000000E+00 0. -1.
</event>
<event>
 7    1  0.8211369E-006  0.5113509E+02  0.7818608E-02  0.1490007E+00
          2   -1    0    0  502    0  0.00000000000E+00  0.00000000000E+00  0.22837376717E+04  0.22837376717E+04  0.00000000000E+00 0. -1.
          1   -1    0    0  501    0 -0.00000000000E+00 -0.00000000000E+00 -0.12248739754E+04  0.12248739754E+04  0.00000000000E+00 0. -1.
         25    2    1    2    0    0  0.30071783289E+02 -0.73986346295E+01 -0.96106287440E+02  0.16069110509E+03  0.12500464321E+03 0.  0.
          2    1    1    2  501    0 -0.45456922734E+02 -0.24554909239E+02 -0.10957269020E+04  0.10969442644E+04  0.00000000000E+00 0. -1.
          1    1    1    2  502    0  0.15385139445E+02  0.31953543868E+02  0.22506968857E+04  0.22509762777E+04  0.00000000000E+00 0. -1.
         22    1    3    3    0    0 -0.33348304355E+02 -0.24942020693E+02 -0.84040206930E+02  0.93792164814E+02  0.00000000000E+00 0.  1.
         22    1    3    3    0    0  0.63420087643E+02  0.17543386063E+02 -0.12066080510E+02  0.66898940277E+02  0.00000000000E+00 0.  1.
</event>
<event>
 7    1  0.6315518E-006  0.1042809E+03  0.7818608E-02  0.1370340E+00
          2   -1    0    0  502    0  0.00000000000E+00  0.00000000000E+00  0.13013498845E+04  0.13013498845E+04  0.00000000000E+00 0. -1.
          1   -1    0    0  501    0 -0.00000000000E+00 -0.00000000000E+00 -0.69726895671E+02  0.69726895671E+02  0.00000000000E+00 0. -1.
         25    2    1    2    0    0 -0.29662870097E+02 -0.13049273847E+03  0.51888361661E+03  0.55024780436E+03  0.12499679178E+03 0.  0.
          2    1    1    2  501    0  0.29196866161E+02  0.31759327908E+02 -0.41674061904E+02  0.59981991784E+02  0.00000000000E+00 0. -1.
          1    1    1    2  502    0  0.46600393573E+00  0.98733410563E+02  0.75441343410E+03  0.76084698401E+03  0.00000000000E+00 0. -1.
         22    1    3    3    0    0 -0.48907212332E+02 -0.52775519892E+02  0.40314068205E+03  0.40951139232E+03  0.00000000000E+00 0.  1.
         22    1    3    3    0    0  0.19244342235E+02 -0.77717218578E+02  0.11574293456E+03  0.14073641203E+03  0.00000000000E+00 0.  1.
</event>
<event>
 7    1  0.6315518E-006  0.1286586E+03  0.7818608E-02  0.1432713E+00
          2   -1    0    0  502    0  0.00000000000E+00  0.00000000000E+00  0.13139576149E+03  0.13139576149E+03  0.00000000000E+00 0. -1.
          1   -1    0    0  501    0 -0.00000000000E+00 -0.00000000000E+00 -0.10107918509E+04  0.10107918509E+04  0.00000000000E+00 0. -1.
         25    2    1    2    0    0  0.38826123311E+02  0.12659046086E+03 -0.15625637333E+03  0.23994772974E+03  0.12500498458E+03 0.  0.
          2    1    1    2  501    0 -0.56841353470E+02 -0.11511984079E+03 -0.80626075380E+03  0.81641896127E+03  0.00000000000E+00 0. -1.
          1    1    1    2  502    0  0.18015230159E+02 -0.11470620068E+02  0.83121037698E+02  0.85820921403E+02  0.00000000000E+00 0. -1.
         22    1    3    3    0    0 -0.13577193200E+02 -0.18972155516E+02 -0.40456400960E+02  0.46701212390E+02  0.00000000000E+00 0. -1.
         22    1    3    3    0    0  0.52403316511E+02  0.14556261637E+03 -0.11579997237E+03  0.19324651735E+03  0.00000000000E+00 0. -1.
</event>
<event>
 7    1  0.6315518E-006  0.9914068E+02  0.7818608E-02  0.1346102E+00
          2   -1    0    0  502    0  0.00000000000E+00  0.00000000000E+00  0.53763444271E+03  0.53763444271E+03  0.00000000000E+00 0. -1.
          1   -1    0    0  501    0 -0.00000000000E+00 -0.00000000000E+00 -0.88034740125E+03  0.88034740125E+03  0.00000000000E+00 0. -1.
         25    2    1    2    0    0 -0.30101174019E+02 -0.38957309160E+02 -0.93747759745E+01  0.13467389172E+03  0.12500167227E+03 0.  0.
          2    1    1    2  501    0 -0.15737861081E+02 -0.53388326695E+02 -0.80175248098E+03  0.80368217254E+03  0.00000000000E+00 0. -1.
          1    1    1    2  502    0  0.45839035101E+02  0.92345635855E+02  0.46841429841E+03  0.47962577970E+03  0.00000000000E+00 0. -1.
         22    1    3    3    0    0 -0.24268861013E+02 -0.75972446146E+02 -0.37197251527E+02  0.88002418770E+02  0.00000000000E+00 0.  1.
         22    1    3    3    0    0 -0.58323130066E+01  0.37015136986E+02  0.27822475553E+02  0.46671472946E+02  0.00000000000E+00 0.  1.
</event>
<event>
 7    1  0.6315518E-006  0.5137495E+02  0.7818608E-02  0.1455694E+00
          2   -1    0    0  502    0  0.00000000000E+00  0.00000000000E+00  0.24268679554E+03  0.24268679554E+03  0.00000000000E+00 0. -1.
          1   -1    0    0  501    0 -0.00000000000E+00 -0.00000000000E+00 -0.68283948606E+02  0.68283948606E+02  0.00000000000E+00 0. -1.
         25    2    1    2    0    0  0.13685358389E+01  0.81593213966E+01  0.73249138363E+02  0.14511628847E+03  0.12499941397E+03 0.  0.
          2    1    1    2  501    0  0.37259059138E+02 -0.42031049070E+02  0.44412436474E+01  0.56343333403E+02  0.00000000000E+00 0. -1.
          1    1    1    2  502    0 -0.38627594977E+02  0.33871727674E+02  0.96712464923E+02  0.10951112227E+03  0.00000000000E+00 0. -1.
         22    1    3    3    0    0  0.10730442069E+02  0.40831818327E+02 -0.19376164226E+02  0.46452292893E+02  0.00000000000E+00 0.  1.
         22    1    3    3    0    0 -0.93619062300E+01 -0.32672496931E+02  0.92625302589E+02  0.98663995580E+02  0.00000000000E+00 0.  1.
</event>
<event>
 7    1  0.6315518E-006  0.7645498E+02  0.7818608E-02  0.1479389E+00
          2   -1    0    0  502    0  0.00000000000E+00  0.00000000000E+00  0.27656994203E+03  0.27656994203E+03  0.00000000000E+00 0. -1.
          1   -1    0    0  501    0 -0.00000000000E+00 -0.00000000000E+00 -0.28152951596E+03  0.28152951596E+03  0.00000000000E+00 0. -1.
         25    2    1    2    0    0 -0.52126289256E+02  0.84235561925E+02  0.12071501852E+03  0.20002643487E+03  0.12500271608E+03 0.  0.
          2    1    1    2  501    0  0.47111462453E+02 -0.59177987427E+02 -0.23444282250E+03  0.24634317752E+03  0.00000000000E+00 0. -1.
          1    1    1    2  502    0  0.50148268033E+01 -0.25057574498E+02  0.10876823006E+03  0.11172984560E+03  0.00000000000E+00 0. -1.
         22    1    3    3    0    0 -0.20533874724E+02 -0.24528756836E+02  0.67899293785E+02  0.75057404829E+02  0.00000000000E+00 0. -1.
         22    1    3    3    0    0 -0.31592414531E+02  0.10876431876E+03  0.52815724732E+02  0.12496903005E+03  0.00000000000E+00 0. -1.
</event>
<event>
 7    1  0.6315518E-006  0.6852551E+02  0.7818608E-02  0.1402627E+00
          2   -1    0    0  502    0  0.00000000000E+00  0.00000000000E+00  0.45128133257E+04  0.45128133257E+04  0.00000000000E+00 0. -1.
          1   -1    0    0  501    0 -0.00000000000E+00 -0.00000000000E+00 -0.33351737682E+03  0.33351737682E+03  0.00000000000E+00 0. -1.
         25    2    1    2    0    0 -0.51211792711E+02  0.10337985582E+03  0.40528650207E+03  0.43953444991E+03  0.12499336620E+03 0.  0.
          2    1    1    2  501    0  0.33419538300E+02 -0.37964895172E+02 -0.31408921001E+03  0.31813555389E+03  0.00000000000E+00 0. -1.
          1    1    1    2  502    0  0.17792254411E+02 -0.65414960651E+02  0.40880986568E+04  0.40886606987E+04  0.00000000000E+00 0. -1.
         22    1    3    3    0    0 -0.18467248455E+02  0.69979759031E+02  0.37906446254E+03  0.38591200124E+03  0.00000000000E+00 0. -1.
         22    1    3    3    0    0 -0.32744544256E+02  0.33400096792E+02  0.26222039531E+02  0.53622448671E+02  0.00000000000E+00 0. -1.
</event>
<event>
 7    1  0.6315518E-006  0.6757708E+02  0.7818608E-02  0.1402737E+00
          2   -1    0    0  502    0  0.00000000000E+00  0.00000000000E+00  0.42483928177E+03  0.42483928177E+03  0.00000000000E+00 0. -1.
          1   -1    0    0  501    0 -0.00000000000E+00 -0.00000000000E+00 -0.19454267799E+04  0.19454267799E+04  0.00000000000E+00 0. -1.
         25    2    1    2    0    0 -0.42682134513E+02  0.10706110744E+03  0.35013110233E+03  0.38923015788E+03  0.12499792660E+03 0.  0.
          2    1    1    2  501    0  0.11298067190E+02 -0.66552240233E+02 -0.19132504606E+04  0.19144409555E+04  0.00000000000E+00 0. -1.
          1    1    1    2  502    0  0.31384067322E+02 -0.40508867208E+02  0.42531860193E+02  0.66594948274E+02  0.00000000000E+00 0. -1.
         22    1    3    3    0    0 -0.27915004342E+02  0.88164145949E+02  0.93596099103E+02  0.13157657035E+03  0.00000000000E+00 0. -1.
         22    1    3    3    0    0 -0.14767130170E+02  0.18896961492E+02  0.25653500322E+03  0.25765358753E+03  0.00000000000E+00 0. -1.
</event>
<event>
 7    1  0.6315518E-006  0.8598576E+02  0.7818608E-02  0.1366005E+00
          2   -1    0    0  502    0  0.00000000000E+00  0.00000000000E+00  0.26645567699E+04  0.26645567699E+04  0.00000000000E+00 0. -1.
          1   -1    0    0  501    0 -0.00000000000E+00 -0.00000000000E+00 -0.50918811608E+03  0.50918811608E+03  0.00000000000E+00 0. -1.
         25    2    1    2    0    0 -0.44762939145E+02 -0.19671861213E+02  0.29074244386E+03  0.32022944985E+03  0.12500011619E+03 0.  0.
          2    1    1    2  501    0 -0.41588367031E+01 -0.54077082744E+02 -0.49212423317E+03  0.49510391603E+03  0.00000000000E+00 0. -1.
          1    1    1    2  502    0  0.48921775848E+02  0.73748943957E+02  0.23567504431E+04  0.23584115201E+04  0.00000000000E+00 0. -1.
         22    1    3    3    0    0 -0.28262068111E+02  0.27836347089E+02  0.25611551929E+03  0.25916937692E+03  0.00000000000E+00 0.  1.
         22    1    3    3    0    0 -0.16500871034E+02 -0.47508208302E+02  0.34626924566E+02  0.61060072927E+02  0.00000000000E+00 0.  1.
</event>
<event>
 7    1  0.6315518E-006  0.4801213E+02  0.7818608E-02  0.1557961E+00
          2   -1    0    0  502    0  0.00000000000E+00  0.00000000000E+00  0.29427292072E+04  0.29427292072E+04  0.00000000000E+00 0. -1.
          1   -1    0    0  501    0 -0.00000000000E+00 -0.00000000000E+00 -0.76341841610E+02  0.76341841610E+02  0.00000000000E+00 0. -1.
         25    2    1    2    0    0  0.27164841293E+02  0.27129080690E+02  0.55068254150E+03  0.56599539032E+03  0.12500241890E+03 0.  0.
          2    1    1    2  501    0 -0.14007308326E+02  0.19527531929E+02 -0.66329153630E+02  0.70548464272E+02  0.00000000000E+00 0. -1.
          1    1    1    2  502    0 -0.13157532967E+02 -0.46656612620E+02  0.23820339777E+04  0.23825271942E+04  0.00000000000E+00 0. -1.
         22    1    3    3    0    0 -0.13775158782E+02 -0.44190765928E+02  0.25111846799E+03  0.25534890593E+03  0.00000000000E+00 0. -1.
         22    1    3    3    0    0  0.40940000076E+02  0.71319846618E+02  0.29956407350E+03  0.31064648439E+03  0.00000000000E+00 0. -1.
</event>
<event>
 7    1  0.6315518E-006  0.8803202E+02  0.7818608E-02  0.1358155E+00
          2   -1    0    0  502    0  0.00000000000E+00  0.00000000000E+00  0.41669938414E+03  0.41669938414E+03  0.00000000000E+00 0. -1.
          1   -1    0    0  501    0 -0.00000000000E+00 -0.00000000000E+00 -0.27865550051E+03  0.27865550051E+03  0.00000000000E+00 0. -1.
         25    2    1    2    0    0 -0.83830863041E+01  0.13008478215E+03  0.25188403916E+03  0.30994136254E+03  0.12500300933E+03 0.  0.
          2    1    1    2  501    0  0.34539465624E+02 -0.79917506091E+02 -0.23558897419E+03  0.25116119769E+03  0.00000000000E+00 0. -1.
          1    1    1    2  502    0 -0.26156379320E+02 -0.50167276057E+02  0.12174881866E+03  0.13425232442E+03  0.00000000000E+00 0. -1.
         22    1    3    3    0    0  0.45057072956E+02  0.70985622364E+02  0.63383242198E+02  0.10529261036E+03  0.00000000000E+00 0. -1.
         22    1    3    3    0    0 -0.53440159260E+02  0.59099159784E+02  0.18850079697E+03  0.20464875217E+03  0.00000000000E+00 0. -1.
</event>
<event>
 7    1  0.6315518E-006  0.7970093E+02  0.7818608E-02  0.1369329E+00
          2   -1    0    0  502    0  0.00000000000E+00  0.00000000000E+00  0.12592840726E+04  0.12592840726E+04  0.00000000000E+00 0. -1.
          1   -1    0    0  501    0 -0.00000000000E+00 -0.00000000000E+00 -0.13904143853E+03  0.13904143853E+03  0.00000000000E+00 0. -1.
         25    2    1    2    0    0 -0.10026842722E+03 -0.73787687512E+02  0.33262289268E+03  0.37651126164E+03  0.12499744430E+03 0.  0.
          2    1    1    2  501    0  0.55806564490E+02  0.11203646902E+02 -0.10844051180E+03  0.12247138010E+03  0.00000000000E+00 0. -1.
          1    1    1    2  502    0  0.44461862729E+02  0.62584040610E+02  0.89606025315E+03  0.89934286935E+03  0.00000000000E+00 0. -1.
         22    1    3    3    0    0 -0.11649406344E+03 -0.24946354716E+02  0.27227182153E+03  0.29719544450E+03  0.00000000000E+00 0. -1.
         22    1    3    3    0    0  0.16225636218E+02 -0.48841332796E+02  0.60351071145E+02  0.79315817139E+02  0.00000000000E+00 0. -1.
</event>
<event>
 7    1  0.6315518E-006  0.5570069E+02  0.7818608E-02  0.1503438E+00
          2   -1    0    0  502    0  0.00000000000E+00  0.00000000000E+00  0.25940140785E+03  0.25940140785E+03  0.00000000000E+00 0. -1.
          1   -1    0    0  501    0 -0.00000000000E+00 -0.00000000000E+00 -0.12784370450E+04  0.12784370450E+04  0.00000000000E+00 0. -1.
         25    2    1    2    0    0 -0.66842108474E+00 -0.48769584078E+02 -0.58676465009E+02  0.14644698809E+03  0.12499949463E+03 0.  0.
          2    1    1    2  501    0 -0.29640153502E+02  0.14384500270E+01 -0.11720200329E+04  0.11723956522E+04  0.00000000000E+00 0. -1.
          1    1    1    2  502    0  0.30308574587E+02  0.47331134051E+02  0.21166086075E+03  0.21899581255E+03  0.00000000000E+00 0. -1.
         22    1    3    3    0    0 -0.11323256109E+02 -0.84439897804E+02 -0.66898386776E+02  0.10832223513E+03  0.00000000000E+00 0.  1.
         22    1    3    3    0    0  0.10654835024E+02  0.35670313727E+02  0.82219217671E+01  0.38124752960E+02  0.00000000000E+00 0.  1.
</event>
<event>
 7    1  0.6315518E-006  0.1095323E+03  0.7818608E-02  0.1316917E+00
          2   -1    0    0  502    0  0.00000000000E+00  0.00000000000E+00  0.87890580028E+03  0.87890580028E+03  0.00000000000E+00 0. -1.
          1   -1    0    0  501    0 -0.00000000000E+00 -0.00000000000E+00 -0.10117559260E+04  0.10117559260E+04  0.00000000000E+00 0. -1.
         25    2    1    2    0    0 -0.54657324050E+02 -0.73403518716E+02 -0.13150791581E+03  0.20320724882E+03  0.12499341751E+03 0.  0.
          2    1    1    2  501    0  0.10742321974E+03  0.35295078810E+02 -0.83934532803E+03  0.84692742925E+03  0.00000000000E+00 0. -1.
          1    1    1    2  502    0 -0.52765895690E+02  0.38108439906E+02  0.83800311808E+03  0.84052704826E+03  0.00000000000E+00 0. -1.
         22    1    3    3    0    0  0.27438085410E+02  0.12419863275E+02 -0.65679145730E+01  0.30825947456E+02  0.00000000000E+00 0.  1.
         22    1    3    3    0    0 -0.82095409460E+02 -0.85823381991E+02 -0.12494000124E+03  0.17238130137E+03  0.00000000000E+00 0.  1.
</event>
<event>
 7    1  0.6315518E-006  0.1488488E+03  0.7818608E-02  0.1367944E+00
          2   -1    0    0  502    0  0.00000000000E+00  0.00000000000E+00  0.83944238603E+03  0.83944238603E+03  0.00000000000E+00 0. -1.
          1   -1    0    0  501    0 -0.00000000000E+00 -0.00000000000E+00 -0.86089446353E+03  0.86089446353E+03  0.00000000000E+00 0. -1.
         25    2    1    2    0    0  0.15755002901E+03  0.49288342534E+02  0.34029862578E+03  0.39834539639E+03  0.12499819104E+03 0.  0.
          2    1    1    2  501    0 -0.28280916562E+02  0.12274648258E+02 -0.82067319039E+03  0.82125207010E+03  0.00000000000E+00 0. -1.
          1    1    1    2  502    0 -0.12926911244E+03 -0.61562990792E+02  0.45892248711E+03  0.48073938308E+03  0.00000000000E+00 0. -1.
         22    1    3    3    0    0 -0.17848562626E+02  0.21667962110E+02  0.31979808633E+02  0.42553259922E+02  0.00000000000E+00 0. -1.
         22    1    3    3    0    0  0.17539859163E+03  0.27620380424E+02  0.30831881715E+03  0.35579213646E+03  0.00000000000E+00 0. -1.
</event>
<event>
 7    1  0.6315518E-006  0.6032932E+02  0.7818608E-02  0.1411808E+00
          2   -1    0    0  502    0  0.00000000000E+00  0.00000000000E+00  0.96320922037E+03  0.96320922037E+03  0.00000000000E+00 0. -1.
          1   -1    0    0  501    0 -0.00000000000E+00 -0.00000000000E+00 -0.33538762995E+03  0.33538762995E+03  0.00000000000E+00 0. -1.
         25    2    1    2    0    0 -0.56235664602E+01  0.11862624755E+02  0.53641382459E+02  0.13665054662E+03  0.12499451034E+03 0.  0.
          2    1    1    2  501    0  0.27652003018E+02  0.45756043429E+02 -0.29034350355E+03  0.29522465824E+03  0.00000000000E+00 0. -1.
          1    1    1    2  502    0 -0.22028436558E+02 -0.57618668183E+02  0.86452371151E+03  0.86672164546E+03  0.00000000000E+00 0. -1.
         22    1    3    3    0    0  0.27041734396E+02 -0.48223244849E+02  0.36153134974E+02  0.66058957844E+02  0.00000000000E+00 0.  1.
         22    1    3    3    0    0 -0.32665300857E+02  0.60085869604E+02  0.17488247485E+02  0.70591588778E+02  0.00000000000E+00 0.  1.
</event>
<event>
 7    1  0.6315518E-006  0.3847844E+02  0.7818608E-02  0.1577774E+00
          2   -1    0    0  502    0  0.00000000000E+00  0.00000000000E+00  0.13397835771E+03  0.13397835771E+03  0.00000000000E+00 0. -1.
          1   -1    0    0  501    0 -0.00000000000E+00 -0.00000000000E+00 -0.28981639298E+03  0.28981639298E+03  0.00000000000E+00 0. -1.
         25    2    1    2    0    0  0.31471413949E+02  0.16089927840E+02  0.13239927447E+02  0.13059103868E+03  0.12501755090E+03 0.  0.
          2    1    1    2  501    0  0.70806037044E+01 -0.25517270953E+02 -0.22393498222E+03  0.22549532662E+03  0.00000000000E+00 0. -1.
          1    1    1    2  502    0 -0.38552017653E+02  0.94273431136E+01  0.54857019506E+02  0.67708385392E+02  0.00000000000E+00 0. -1.
         22    1    3    3    0    0  0.25030866324E+02  0.24802051314E+02 -0.52904321582E+02  0.63565346380E+02  0.00000000000E+00 0.  1.
         22    1    3    3    0    0  0.64405476247E+01 -0.87121234743E+01  0.66144249029E+02  0.67025692304E+02  0.00000000000E+00 0.  1.
</event>
<event>
 7    1  0.6315518E-006  0.5232567E+02  0.7818608E-02  0.1468333E+00
          2   -1    0    0  502    0  0.00000000000E+00  0.00000000000E+00  0.87217331154E+03  0.87217331154E+03  0.00000000000E+00 0. -1.
          1   -1    0    0  501    0 -0.00000000000E+00 -0.00000000000E+00 -0.30534351117E+02  0.30534351117E+02  0.00000000000E+00 0. -1.
         25    2    1    2    0    0  0.13771996012E+02  0.94506330394E+01  0.35677391696E+03  0.37839040685E+03  0.12495074964E+03 0.  0.
          2    1    1    2  501    0 -0.38010161427E+02 -0.41770455434E+02  0.23472785128E+02  0.61159749513E+02  0.00000000000E+00 0. -1.
          1    1    1    2  502    0  0.24238165415E+02  0.32319822395E+02  0.46139225833E+03  0.46315750629E+03  0.00000000000E+00 0. -1.
         22    1    3    3    0    0 -0.18049167224E+02 -0.45991222918E+02  0.24221994026E+03  0.24720733096E+03  0.00000000000E+00 0.  1.
         22    1    3    3    0    0  0.31821163236E+02  0.55441855957E+02  0.11455397670E+03  0.13118307589E+03  0.00000000000E+00 0.  1.
</event>
<event>
 7    1  0.6315518E-006  0.8021069E+02  0.7818608E-02  0.1380797E+00
          2   -1    0    0  502    0  0.00000000000E+00  0.00000000000E+00  0.51287636513E+03  0.51287636513E+03  0.00000000000E+00 0. -1.
          1   -1    0    0  501    0 -0.00000000000E+00 -0.00000000000E+00 -0.62447106098E+03  0.62447106098E+03  0.00000000000E+00 0. -1.
         25    2    1    2    0    0 -0.82237638386E+02  0.50831409306E+02 -0.16796884746E+03  0.23062037615E+03  0.12500145134E+03 0.  0.
          2    1    1    2  501    0  0.79798340763E+02  0.58368153269E+00 -0.42003350529E+03  0.42754679444E+03  0.00000000000E+00 0. -1.
          1    1    1    2  502    0  0.24392976232E+01 -0.51415090839E+02  0.47640765689E+03  0.47918025552E+03  0.00000000000E+00 0. -1.
         22    1    3    3    0    0 -0.55918126390E+02 -0.59205355510E+01 -0.54703964961E+01  0.56496148878E+02  0.00000000000E+00 0. -1.
         22    1    3    3    0    0 -0.26319511996E+02  0.56751944857E+02 -0.16249845096E+03  0.17412422727E+03  0.00000000000E+00 0. -1.
</event>
<event>
 7    1  0.6315518E-006  0.4700585E+02  0.7818608E-02  0.1539026E+00
          2   -1    0    0  502    0  0.00000000000E+00  0.00000000000E+00  0.30825754966E+02  0.30825754966E+02  0.00000000000E+00 0. -1.
          1   -1    0    0  501    0 -0.00000000000E+00 -0.00000000000E+00 -0.15827555196E+04  0.15827555196E+04  0.00000000000E+00 0. -1.
         25    2    1    2    0    0  0.18376268431E+02 -0.12912693747E+02 -0.65554278172E+03  0.66773205661E+03  0.12500134339E+03 0.  0.
          2    1    1    2  501    0  0.27727149505E+02 -0.15031894568E+00 -0.89748997073E+03  0.89791818390E+03  0.00000000000E+00 0. -1.
          1    1    1    2  502    0 -0.46103417937E+02  0.13063012692E+02  0.11029877989E+01  0.47931034082E+02  0.00000000000E+00 0. -1.
         22    1    3    3    0    0 -0.19598233205E+02  0.33882808425E+02 -0.80206470436E+02  0.89248043964E+02  0.00000000000E+00 0. -1.
         22    1    3    3    0    0  0.37974501636E+02 -0.46795502172E+02 -0.57533631129E+03  0.57848401264E+03  0.00000000000E+00 0. -1.
</event>
<event>
 7    1  0.6315518E-006  0.8060568E+02  0.7818608E-02  0.1463950E+00
          2   -1    0    0  502    0  0.00000000000E+00  0.00000000000E+00  0.36544042880E+03  0.36544042880E+03  0.00000000000E+00 0. -1.
          1   -1    0    0  501    0 -0.00000000000E+00 -0.00000000000E+00 -0.93603858025E+03  0.93603858025E+03  0.00000000000E+00 0. -1.
         25    2    1    2    0    0 -0.12476535406E+02 -0.56679127179E+02 -0.82608184418E+01  0.13806365311E+03  0.12500057518E+03 0.  0.
          2    1    1    2  501    0  0.12277749755E+01  0.81296924537E+02 -0.86034638194E+03  0.86417972337E+03  0.00000000000E+00 0. -1.
          1    1    1    2  502    0  0.11248760431E+02 -0.24617797359E+02  0.29800904893E+03  0.29923563257E+03  0.00000000000E+00 0. -1.
         22    1    3    3    0    0 -0.68470543147E+01 -0.14250408576E+02 -0.65054565427E+02  0.66948135002E+02  0.00000000000E+00 0.  1.
         22    1    3    3    0    0 -0.56294810915E+01 -0.42428718602E+02  0.56793746985E+02  0.71115518111E+02  0.00000000000E+00 0.  1.
</event>
<event>
 7    1  0.6315518E-006  0.2403622E+02  0.7818608E-02  0.1685058E+00
          2   -1    0    0  502    0  0.00000000000E+00  0.00000000000E+00  0.76730408528E+03  0.76730408528E+03  0.00000000000E+00 0. -1.
          1   -1    0    0  501    0 -0.00000000000E+00 -0.00000000000E+00 -0.36324542856E+03  0.36324542856E+03  0.00000000000E+00 0. -1.
         25    2    1    2    0    0  0.14614599150E+01  0.13585485356E+02  0.10406076202E+03  0.16322025055E+03  0.12500202687E+03 0.  0.
          2    1    1    2  501    0  0.21749221945E+02 -0.67974360782E+01 -0.33304550856E+03  0.33382412220E+03  0.00000000000E+00 0. -1.
          1    1    1    2  502    0 -0.23210681860E+02 -0.67880492783E+01  0.63304340326E+03  0.63350514109E+03  0.00000000000E+00 0. -1.
         22    1    3    3    0    0 -0.43761559456E+00 -0.51083620088E+02  0.78495999104E+02  0.93655483684E+02  0.00000000000E+00 0. -1.
         22    1    3    3    0    0  0.18990755096E+01  0.64669105445E+02  0.25564762912E+02  0.69564766869E+02  0.00000000000E+00 0. -1.
</event>
<event>
 7    1  0.6315518E-006  0.6227435E+02  0.7818608E-02  0.1458395E+00
          2   -1    0    0  502    0  0.00000000000E+00  0.00000000000E+00  0.77462870585E+03  0.77462870585E+03  0.00000000000E+00 0. -1.
          1   -1    0    0  501    0 -0.00000000000E+00 -0.00000000000E+00 -0.84116380425E+02  0.84116380425E+02  0.00000000000E+00 0. -1.
         25    2    1    2    0    0  0.56597579086E+02 -0.66189868617E+01  0.15197954797E+03  0.20486715692E+03  0.12500268812E+03 0.  0.
          2    1    1    2  501    0 -0.56305781355E+02 -0.29853302179E+02 -0.39314188653E+02  0.74881012910E+02  0.00000000000E+00 0. -1.
          1    1    1    2  502    0 -0.29179773100E+00  0.36472289041E+02  0.57784696611E+03  0.57899691644E+03  0.00000000000E+00 0. -1.
         22    1    3    3    0    0  0.26095151315E+02 -0.61839950010E+02  0.45453521580E+02  0.81062685395E+02  0.00000000000E+00 0.  1.
         22    1    3    3    0    0  0.30502427771E+02  0.55220963149E+02  0.10652602639E+03  0.12380447153E+03  0.00000000000E+00 0.  1.
</event>
<event>
 7    1  0.6315518E-006  0.3342896E+02  0.7818608E-02  0.1594268E+00
          2   -1    0    0  502    0  0.00000000000E+00  0.00000000000E+00  0.56549418326E+01  0.56549418326E+01  0.00000000000E+00 0. -1.
          1   -1    0    0  501    0 -0.00000000000E+00 -0.00000000000E+00 -0.17155308978E+04  0.17155308978E+04  0.00000000000E+00 0. -1.
         25    2    1    2    0    0 -0.49084619305E+01 -0.24057237923E+02 -0.11448367135E+04  0.11519023925E+04  0.12500070993E+03 0.  0.
          2    1    1    2  501    0 -0.22014296377E+02  0.29911303322E+02 -0.42084527543E+03  0.42248084118E+03  0.00000000000E+00 0. -1.
          1    1    1    2  502    0  0.26922758307E+02 -0.58540653992E+01 -0.14419396704E+03  0.14680260600E+03  0.00000000000E+00 0. -1.
         22    1    3    3    0    0  0.54564826017E+02  0.95564752453E+01 -0.65274503501E+03  0.65509138842E+03  0.00000000000E+00 0.  1.
         22    1    3    3    0    0 -0.59473287947E+02 -0.33613713168E+02 -0.49209167850E+03  0.49681100404E+03  0.00000000000E+00 0.  1.
</event>
<event>
 7    1  0.6315518E-006  0.9632237E+02  0.7818608E-02  0.1469965E+00
          2   -1    0    0  502    0  0.00000000000E+00  0.00000000000E+00  0.42726638241E+03  0.42726638241E+03  0.00000000000E+00 0. -1.
          1   -1    0    0  501    0 -0.00000000000E+00 -0.00000000000E+00 -0.68459643078E+03  0.68459643078E+03  0.00000000000E+00 0. -1.
         25    2    1    2    0    0  0.18376978669E+02 -0.81315193445E+02  0.37852356588E+02  0.15494330795E+03  0.12499901499E+03 0.  0.
          2    1    1    2  501    0 -0.38734420097E+02  0.88802237400E+02 -0.62194106159E+03  0.62944171832E+03  0.00000000000E+00 0. -1.
          1    1    1    2  502    0  0.20357441428E+02 -0.74870439550E+01  0.32675865662E+03  0.32747778692E+03  0.00000000000E+00 0. -1.
         22    1    3    3    0    0  0.32491555767E+02 -0.96354780903E+02 -0.10646010606E+02  0.10224129567E+03  0.00000000000E+00 0.  1.
         22    1    3    3    0    0 -0.14114577098E+02  0.15039587458E+02  0.48498367194E+02  0.52702012277E+02  0.00000000000E+00 0.  1.
</event>
<event>
 7    1  0.6315518E-006  0.5102748E+02  0.7818608E-02  0.1461977E+00
          2   -1    0    0  502    0  0.00000000000E+00  0.00000000000E+00  0.67675018348E+03  0.67675018348E+03  0.00000000000E+00 0. -1.
          1   -1    0    0  501    0 -0.00000000000E+00 -0.00000000000E+00 -0.18481935935E+03  0.18481935935E+03  0.00000000000E+00 0. -1.
         25    2    1    2    0    0 -0.58570977551E+02  0.57754393987E+02  0.39650431905E+03  0.42380270303E+03  0.12500770627E+03 0.  0.
          2    1    1    2  501    0  0.48362951710E+02 -0.15603409162E+02 -0.16556917656E+03  0.17319236041E+03  0.00000000000E+00 0. -1.
          1    1    1    2  502    0  0.10208025841E+02 -0.42150984825E+02  0.26099568164E+03  0.26457447939E+03  0.00000000000E+00 0. -1.
         22    1    3    3    0    0 -0.35774550778E+02  0.46955578586E+02  0.52875765999E+02  0.79249551883E+02  0.00000000000E+00 0. -1.
         22    1    3    3    0    0 -0.22796426773E+02  0.10798815400E+02  0.34362855306E+03  0.34455315114E+03  0.00000000000E+00 0. -1.
</event>
<event>
 7    1  0.6315518E-006  0.6980125E+02  0.7818608E-02  0.1509748E+00
          2   -1    0    0  502    0  0.00000000000E+00  0.00000000000E+00  0.66988863846E+03  0.66988863846E+03  0.00000000000E+00 0. -1.
          1   -1    0    0  501    0 -0.00000000000E+00 -0.00000000000E+00 -0.13959717299E+04  0.13959717299E+04  0.00000000000E+00 0. -1.
         25    2    1    2    0    0 -0.51602495821E+02  0.19252941113E+02 -0.47904014541E+03  0.49813562911E+03  0.12500460293E+03 0.  0.
          2    1    1    2  501    0 -0.18045089850E+02 -0.13746192116E+02 -0.90539342798E+03  0.90567755989E+03  0.00000000000E+00 0. -1.
          1    1    1    2  502    0  0.69647585670E+02 -0.55067489971E+01  0.65835048200E+03  0.66204717931E+03  0.00000000000E+00 0. -1.
         22    1    3    3    0    0  0.13924588746E+02  0.50433147134E+02 -0.10726908830E+03  0.11934845540E+03  0.00000000000E+00 0. -1.
         22    1    3    3    0    0 -0.65527084567E+02 -0.31180206021E+02 -0.37177105712E+03  0.37878717372E+03  0.00000000000E+00 0. -1.
</event>
<event>
 7    1  0.6315518E-006  0.1160634E+03  0.7818608E-02  0.1451906E+00
          2   -1    0    0  502    0  0.00000000000E+00  0.00000000000E+00  0.30202437346E+04  0.30202437346E+04  0.00000000000E+00 0. -1.
          1   -1    0    0  501    0 -0.00000000000E+00 -0.00000000000E+00 -0.86681754997E+03  0.86681754997E+03  0.00000000000E+00 0. -1.
         25    2    1    2    0    0  0.67227599157E+02  0.11227017139E+03  0.13639051187E+04  0.13758585620E+04  0.12500187274E+03 0.  0.
          2    1    1    2  501    0 -0.15333817126E+02 -0.13637882812E+02 -0.85883652089E+03  0.85908165352E+03  0.00000000000E+00 0. -1.
          1    1    1    2  502    0 -0.51893782030E+02 -0.98632288577E+02  0.16483575868E+04  0.16521210691E+04  0.00000000000E+00 0. -1.
         22    1    3    3    0    0  0.89496927323E+02  0.99422155105E+02  0.13016197191E+04  0.13084755856E+04  0.00000000000E+00 0. -1.
         22    1    3    3    0    0 -0.22269328167E+02  0.12848016284E+02  0.62285399583E+02  0.67382976341E+02  0.00000000000E+00 0. -1.
</event>
<event>
 7    1  0.6315518E-006  0.1001116E+03  0.7818608E-02  0.1373494E+00
          2   -1    0    0  502    0  0.00000000000E+00  0.00000000000E+00  0.14780711713E+03  0.14780711713E+03  0.00000000000E+00 0. -1.
          1   -1    0    0  501    0 -0.00000000000E+00 -0.00000000000E+00 -0.13864312127E+04  0.13864312127E+04  0.00000000000E+00 0. -1.
         25    2    1    2    0    0 -0.94859724181E+01 -0.87780697551E+02 -0.23500270622E+03  0.28044934278E+03  0.12502050790E+03 0.  0.
          2    1    1    2  501    0  0.42999013414E+02 -0.82468613455E+01 -0.11075259395E+04  0.11083910107E+04  0.00000000000E+00 0. -1.
          1    1    1    2  502    0 -0.33513040996E+02  0.96027558897E+02  0.10390455017E+03  0.14539797636E+03  0.00000000000E+00 0. -1.
         22    1    3    3    0    0  0.46734094316E+02  0.15835137813E+01 -0.85060837718E+02  0.97066622486E+02  0.00000000000E+00 0. -1.
         22    1    3    3    0    0 -0.56220066734E+02 -0.89364211333E+02 -0.14994186850E+03  0.18338272029E+03  0.00000000000E+00 0. -1.
</event>
<event>
 7    1  0.6315518E-006  0.1694190E+03  0.7818608E-02  0.1258518E+00
          2   -1    0    0  502    0  0.00000000000E+00  0.00000000000E+00  0.47497442501E+03  0.47497442501E+03  0.00000000000E+00 0. -1.
          1   -1    0    0  501    0 -0.00000000000E+00 -0.00000000000E+00 -0.64546134428E+03  0.64546134428E+03  0.00000000000E+00 0. -1.
         25    2    1    2    0    0 -0.13553464400E+03 -0.90776059697E+02 -0.28733982629E+03  0.35327029958E+03  0.12500318419E+03 0.  0.
          2    1    1    2  501    0 -0.33009691948E+02  0.64971445565E+02 -0.30424779744E+03  0.31285404064E+03  0.00000000000E+00 0. -1.
          1    1    1    2  502    0  0.16854433595E+03  0.25804614132E+02  0.42110070445E+03  0.45431142907E+03  0.00000000000E+00 0. -1.
         22    1    3    3    0    0 -0.10501307369E+03 -0.10753343388E+02 -0.22106749888E+03  0.24497799718E+03  0.00000000000E+00 0. -1.
         22    1    3    3    0    0 -0.30521570311E+02 -0.80022716309E+02 -0.66272327404E+02  0.10829230240E+03  0.00000000000E+00 0. -1.
</event>
<event>
 7    1  0.6315518E-006  0.8673706E+02  0.7818608E-02  0.1382048E+00
          2   -1    0    0  502    0  0.00000000000E+00  0.00000000000E+00  0.24308303083E+04  0.24308303083E+04  0.00000000000E+00 0. -1.
          1   -1    0    0  501    0 -0.00000000000E+00 -0.00000000000E+00 -0.54355727105E+02  0.54355727105E+02  0.00000000000E+00 0. -1.
         25    2    1    2    0    0 -0.77454020215E+02 -0.44285143573E+02  0.11398607488E+04  0.11501601002E+04  0.12500172115E+03 0.  0.
          2    1    1    2  501    0  0.87051549772E+02 -0.18448259949E+01 -0.98908273504E+01  0.87631068500E+02  0.00000000000E+00 0. -1.
          1    1    1    2  502    0 -0.95975295577E+01  0.46129969568E+02  0.12465046598E+04  0.12473948667E+04  0.00000000000E+00 0. -1.
         22    1    3    3    0    0 -0.55303454325E+02 -0.56896755571E+02  0.10999256302E+04  0.11027837979E+04  0.00000000000E+00 0.  1.
         22    1    3    3    0    0 -0.22150565890E+02  0.12611611998E+02  0.39935118529E+02  0.47376302287E+02  0.00000000000E+00 0.  1.
</event>
<event>
 7    1  0.6315518E-006  0.2396776E+03  0.7818608E-02  0.1333029E+00
          2   -1    0    0  502    0  0.00000000000E+00  0.00000000000E+00  0.10773779440E+04  0.10773779440E+04  0.00000000000E+00 0. -1.
          1   -1    0    0  501    0 -0.00000000000E+00 -0.00000000000E+00 -0.38075537038E+03  0.38075537038E+03  0.00000000000E+00 0. -1.
         25    2    1    2    0    0 -0.61256543777E+02 -0.21706531307E+03  0.21980670781E+03  0.33883511547E+03  0.12499812952E+03 0.  0.
          2    1    1    2  501    0  0.85210487861E+02  0.22661095777E+03 -0.27537408874E+03  0.36666639085E+03  0.00000000000E+00 0. -1.
          1    1    1    2  502    0 -0.23953944083E+02 -0.95456447002E+01  0.75218995457E+03  0.75263180808E+03  0.00000000000E+00 0. -1.
         22    1    3    3    0    0 -0.46611539854E+02 -0.13057979435E+03  0.49417687540E+02  0.14719315942E+03  0.00000000000E+00 0.  1.
         22    1    3    3    0    0 -0.14645003923E+02 -0.86485518728E+02  0.17038902027E+03  0.19164195605E+03  0.00000000000E+00 0.  1.
</event>
<event>
 7    1  0.6315518E-006  0.4638807E+02  0.7818608E-02  0.1528008E+00
          2   -1    0    0  502    0  0.00000000000E+00  0.00000000000E+00  0.75231415386E+03  0.75231415386E+03  0.00000000000E+00 0. -1.
          1   -1    0    0  501    0 -0.00000000000E+00 -0.00000000000E+00 -0.65474433967E+03  0.65474433967E+03  0.00000000000E+00 0. -1.
         25    2    1    2    0    0 -0.52188578716E+02  0.54709609358E+02  0.32177362093E+03  0.35339637344E+03  0.12503577300E+03 0.  0.
          2    1    1    2  501    0  0.27557706516E+02 -0.37226585412E+02 -0.63754177748E+03  0.63922199890E+03  0.00000000000E+00 0. -1.
          1    1    1    2  502    0  0.24630872200E+02 -0.17483023946E+02  0.41333797074E+03  0.41444012118E+03  0.00000000000E+00 0. -1.
         22    1    3    3    0    0 -0.91429690900E+02  0.44780493885E+02  0.26314100476E+03  0.28214866542E+03  0.00000000000E+00 0.  1.
         22    1    3    3    0    0  0.39241112184E+02  0.99291154723E+01  0.58632616168E+02  0.71247708020E+02  0.00000000000E+00 0.  1.
</event>
<event>
 7    1  0.6315518E-006  0.1551091E+03  0.7818608E-02  0.1365662E+00
          2   -1    0    0  502    0  0.00000000000E+00  0.00000000000E+00  0.20696954968E+04  0.20696954968E+04  0.00000000000E+00 0. -1.
          1   -1    0    0  501    0 -0.00000000000E+00 -0.00000000000E+00 -0.13021932939E+03  0.13021932939E+03  0.00000000000E+00 0. -1.
         25    2    1    2    0    0  0.16176567773E+03  0.58259703315E+02  0.23077853289E+03  0.31375987403E+03  0.12499679912E+03 0.  0.
          2    1    1    2  501    0 -0.26286416061E+02  0.14771202523E+02 -0.82768461251E+02  0.88089626354E+02  0.00000000000E+00 0. -1.
          1    1    1    2  502    0 -0.13547926167E+03 -0.73030905838E+02  0.17914660958E+04  0.17980653258E+04  0.00000000000E+00 0. -1.
         22    1    3    3    0    0  0.73842122205E+02  0.88955993794E+02  0.97883881033E+02  0.15148294297E+03  0.00000000000E+00 0.  1.
         22    1    3    3    0    0  0.87923555526E+02 -0.30696290479E+02  0.13289465185E+03  0.16227693107E+03  0.00000000000E+00 0.  1.
</event>
<event>
 7    1  0.6315518E-006  0.2313894E+03  0.7818608E-02  0.1303414E+00
          2   -1    0    0  502    0  0.00000000000E+00  0.00000000000E+00  0.59573145893E+03  0.59573145893E+03  0.00000000000E+00 0. -1.
          1   -1    0    0  501    0 -0.00000000000E+00 -0.00000000000E+00 -0.45326336196E+03  0.45326336196E+03  0.00000000000E+00 0. -1.
         25    2    1    2    0    0  0.13931549519E+02 -0.24684132928E+03 -0.45926807921E+02  0.28081670001E+03  0.12499606957E+03 0.  0.
          2    1    1    2  501    0  0.13571220628E+02  0.22547680585E+03 -0.24508436462E+03  0.33330213589E+03  0.00000000000E+00 0. -1.
          1    1    1    2  502    0 -0.27502770146E+02  0.21364523427E+02  0.43347926951E+03  0.43487598499E+03  0.00000000000E+00 0. -1.
         22    1    3    3    0    0  0.21389757255E+01 -0.23742810597E+03 -0.74206397578E+02  0.24876348237E+03  0.00000000000E+00 0.  1.
         22    1    3    3    0    0  0.11792573793E+02 -0.94132233082E+01  0.28279589656E+02  0.32053217637E+02  0.00000000000E+00 0.  1.
</event>
<event>
 7    1  0.6315518E-006  0.1140835E+03  0.7818608E-02  0.1258270E+00
          2   -1    0    0  502    0  0.00000000000E+00  0.00000000000E+00  0.15897475620E+04  0.15897475620E+04  0.00000000000E+00 0. -1.
          1   -1    0    0  501    0 -0.00000000000E+00 -0.00000000000E+00 -0.23216396349E+03  0.23216396349E+03  0.00000000000E+00 0. -1.
         25    2    1    2    0    0  0.14186912947E+03 -0.70762170699E+02  0.13930056454E+03  0.24528315376E+03  0.12500017416E+03 0.  0.
          2    1    1    2  501    0 -0.32736067538E+02  0.10343302081E+03 -0.16018209201E+03  0.19346406001E+03  0.00000000000E+00 0. -1.
          1    1    1    2  502    0 -0.10913306193E+03 -0.32670850116E+02  0.13784651260E+04  0.13831643117E+04  0.00000000000E+00 0. -1.
         22    1    3    3    0    0  0.28629809224E+02 -0.26445032511E+02  0.11480210359E+03  0.12123748888E+03  0.00000000000E+00 0. -1.
         22    1    3    3    0    0  0.11323932024E+03 -0.44317138187E+02  0.24498460945E+02  0.12404566488E+03  0.00000000000E+00 0. -1.
</event>
<event>
 7    1  0.6315518E-006  0.6718690E+02  0.7818608E-02  0.1378955E+00
          2   -1    0    0  502    0  0.00000000000E+00  0.00000000000E+00  0.12696008260E+04  0.12696008260E+04  0.00000000000E+00 0. -1.
          1   -1    0    0  501    0 -0.00000000000E+00 -0.00000000000E+00 -0.24572562433E+03  0.24572562433E+03  0.00000000000E+00 0. -1.
         25    2    1    2    0    0  0.10873661617E+03 -0.68395194571E+01  0.88733665679E+03  0.90269692981E+03  0.12499989551E+03 0.  0.
          2    1    1    2  501    0 -0.54944424095E+02  0.38426519990E+02 -0.23064084892E+03  0.24018885979E+03  0.00000000000E+00 0. -1.
          1    1    1    2  502    0 -0.53792192071E+02 -0.31587000533E+02  0.36717939379E+03  0.37244066071E+03  0.00000000000E+00 0. -1.
         22    1    3    3    0    0  0.11798372433E+03  0.29352551045E+02  0.54882258359E+03  0.56212806345E+03  0.00000000000E+00 0. -1.
         22    1    3    3    0    0 -0.92471081642E+01 -0.36192070502E+02  0.33851407320E+03  0.34056886636E+03  0.00000000000E+00 0. -1.
</event>
<event>
 7    1  0.6315518E-006  0.9712359E+02  0.7818608E-02  0.1390783E+00
          2   -1    0    0  502    0  0.00000000000E+00  0.00000000000E+00  0.35869492153E+04  0.35869492153E+04  0.00000000000E+00 0. -1.
          1   -1    0    0  501    0 -0.00000000000E+00 -0.00000000000E+00 -0.20361559872E+03  0.20361559872E+03  0.00000000000E+00 0. -1.
         25    2    1    2    0    0  0.11517619357E+03  0.19856736907E+02  0.94740005003E+03  0.96273059346E+03  0.12499398071E+03 0.  0.
          2    1    1    2  501    0 -0.85571109745E+02 -0.45569128786E+02 -0.18380310952E+03  0.20780409859E+03  0.00000000000E+00 0. -1.
          1    1    1    2  502    0 -0.29605083822E+02  0.25712391879E+02  0.26197366761E+04  0.26200301220E+04  0.00000000000E+00 0. -1.
         22    1    3    3    0    0  0.90315651120E+02 -0.36820849363E+02  0.73672049131E+03  0.74314855453E+03  0.00000000000E+00 0. -1.
         22    1    3    3    0    0  0.24860542447E+02  0.56677586270E+02  0.21067955872E+03  0.21958203893E+03  0.00000000000E+00 0. -1.
</event>
<event>
 7    1  0.6315518E-006  0.4387131E+02  0.7818608E-02  0.1582838E+00
          2   -1    0    0  502    0  0.00000000000E+00  0.00000000000E+00  0.21366392023E+03  0.21366392023E+03  0.00000000000E+00 0. -1.
          1   -1    0    0  501    0 -0.00000000000E+00 -0.00000000000E+00 -0.26647642462E+03  0.26647642462E+03  0.00000000000E+00 0. -1.
         25    2    1    2    0    0  0.57201520147E+02 -0.29434356909E+02 -0.60266791318E+02  0.15295035343E+03  0.12499331664E+03 0.  0.
          2    1    1    2  501    0 -0.39893134924E+02  0.15040327754E+02 -0.15624130257E+03  0.16195375359E+03  0.00000000000E+00 0. -1.
          1    1    1    2  502    0 -0.17308385223E+02  0.14394029155E+02  0.16369558949E+03  0.16523623783E+03  0.00000000000E+00 0. -1.
         22    1    3    3    0    0 -0.26904557432E+02  0.21985089254E+02  0.44467897656E+01  0.35028178647E+02  0.00000000000E+00 0. -1.
         22    1    3    3    0    0  0.84106077579E+02 -0.51419446164E+02 -0.64713581084E+02  0.11792217479E+03  0.00000000000E+00 0. -1.
</event>
<event>
 7    1  0.1187062E-005  0.1065379E+03  0.7818608E-02  0.1295877E+00
          2   -1    0    0  502    0  0.00000000000E+00  0.00000000000E+00  0.18894665675E+04  0.18894665675E+04  0.00000000000E+00 0. -1.
          1   -1    0    0  501    0 -0.00000000000E+00 -0.00000000000E+00 -0.12074890182E+04  0.12074890182E+04  0.00000000000E+00 0. -1.
         25    2    1    2    0    0  0.94519343012E+01  0.26490178316E+02 -0.40652056708E+03  0.42623390197E+03  0.12500119650E+03 0.  0.
          2    1    1    2  501    0  0.59392742906E+02  0.55199419348E+02 -0.78751052445E+03  0.79167373325E+03  0.00000000000E+00 0. -1.
          1    1    1    2  502    0 -0.68844677208E+02 -0.81689597664E+02  0.18760086407E+04  0.18790479505E+04  0.00000000000E+00 0. -1.
         22    1    3    3    0    0  0.66727538001E+02  0.11524984650E+02 -0.24582871267E+03  0.25498459870E+03  0.00000000000E+00 0.  1.
         22    1    3    3    0    0 -0.57275603700E+02  0.14965193666E+02 -0.16069185440E+03  0.17124930328E+03  0.00000000000E+00 0.  1.
</event>
<event>
 7    1  0.6315518E-006  0.2217708E+03  0.7818608E-02  0.1264668E+00
          2   -1    0    0  502    0  0.00000000000E+00  0.00000000000E+00  0.16844690657E+03  0.16844690657E+03  0.00000000000E+00 0. -1.
          1   -1    0    0  501    0 -0.00000000000E+00 -0.00000000000E+00 -0.14326674376E+04  0.14326674376E+04  0.00000000000E+00 0. -1.
         25    2    1    2    0    0 -0.59818547423E+02 -0.21876140117E+03 -0.47149919822E+03  0.53793233159E+03  0.12499956075E+03 0.  0.
          2    1    1    2  501    0 -0.46535707837E+02  0.24122391131E+02 -0.83562712719E+03  0.83726946532E+03  0.00000000000E+00 0. -1.
          1    1    1    2  502    0  0.10635425526E+03  0.19463901004E+03  0.42905794340E+02  0.22591254731E+03  0.00000000000E+00 0. -1.
         22    1    3    3    0    0 -0.85047489202E+02 -0.12089818333E+03 -0.34974763879E+03  0.37970100999E+03  0.00000000000E+00 0.  1.
         22    1    3    3    0    0  0.25228941779E+02 -0.97863217842E+02 -0.12175155943E+03  0.15823132160E+03  0.00000000000E+00 0.  1.
</event>
<event>
 7    1  0.6315518E-006  0.5341799E+02  0.7818608E-02  0.1506215E+00
          2   -1    0    0  502    0  0.00000000000E+00  0.00000000000E+00  0.44791792255E+03  0.44791792255E+03  0.00000000000E+00 0. -1.
          1   -1    0    0  501    0 -0.00000000000E+00 -0.00000000000E+00 -0.45533421901E+03  0.45533421901E+03  0.00000000000E+00 0. -1.
         25    2    1    2    0    0 -0.13797993106E+02  0.19053067927E+02  0.18411830406E+03  0.22378123798E+03  0.12500035427E+03 0.  0.
          2    1    1    2  501    0  0.35809770751E+02 -0.39965644011E+02 -0.43289500197E+03  0.43620829327E+03  0.00000000000E+00 0. -1.
          1    1    1    2  502    0 -0.22011777645E+02  0.20912576083E+02  0.24136040145E+03  0.24326261032E+03  0.00000000000E+00 0. -1.
         22    1    3    3    0    0 -0.52858185824E+02 -0.32745464139E+02  0.84856589278E+02  0.10519930596E+03  0.00000000000E+00 0.  1.
         22    1    3    3    0    0  0.39060192717E+02  0.51798532066E+02  0.99261714783E+02  0.11858193202E+03  0.00000000000E+00 0.  1.
</event>
<event>
 7    1  0.6315518E-006  0.4266061E+02  0.7818608E-02  0.1534810E+00
          2   -1    0    0  502    0  0.00000000000E+00  0.00000000000E+00  0.31955784813E+03  0.31955784813E+03  0.00000000000E+00 0. -1.
          1   -1    0    0  501    0 -0.00000000000E+00 -0.00000000000E+00 -0.40938532782E+03  0.40938532782E+03  0.00000000000E+00 0. -1.
         25    2    1    2    0    0  0.33313169983E+01  0.71670908173E+02  0.68676551099E+02  0.15965411013E+03  0.12500059784E+03 0.  0.
          2    1    1    2  501    0 -0.74201183524E+01 -0.30516356041E+02 -0.36112621850E+03  0.36248924375E+03  0.00000000000E+00 0. -1.
          1    1    1    2  502    0  0.40888013541E+01 -0.41154552132E+02  0.20262218771E+03  0.20679982207E+03  0.00000000000E+00 0. -1.
         22    1    3    3    0    0 -0.57547970052E+02  0.55547983930E+02  0.28290738416E+02  0.84839337904E+02  0.00000000000E+00 0. -1.
         22    1    3    3    0    0  0.60879287050E+02  0.16122924242E+02  0.40385812682E+02  0.74814772230E+02  0.00000000000E+00 0. -1.
</event>
<event>
 7    1  0.6315518E-006  0.1255213E+03  0.7818608E-02  0.1250825E+00
          2   -1    0    0  502    0  0.00000000000E+00  0.00000000000E+00  0.13406269590E+04  0.13406269590E+04  0.00000000000E+00 0. -1.
          1   -1    0    0  501    0 -0.00000000000E+00 -0.00000000000E+00 -0.66710339592E+03  0.66710339592E+03  0.00000000000E+00 0. -1.
         25    2    1    2    0    0  0.37044283489E+02  0.42002859615E+02  0.26364872912E+03  0.29710598986E+03  0.12499919075E+03 0.  0.
          2    1    1    2  501    0 -0.10589282173E+02  0.10562807951E+03 -0.64068104174E+03  0.64941636977E+03  0.00000000000E+00 0. -1.
          1    1    1    2  502    0 -0.26455001316E+02 -0.14763093912E+03  0.10505558757E+04  0.10612079952E+04  0.00000000000E+00 0. -1.
         22    1    3    3    0    0 -0.28827835745E+02  0.67623077202E+01  0.18967398953E+03  0.19197133959E+03  0.00000000000E+00 0. -1.
         22    1    3    3    0    0  0.65872119234E+02  0.35240551895E+02  0.73974739587E+02  0.10513465027E+03  0.00000000000E+00 0. -1.
</event>
<event>
 7    1  0.6315518E-006  0.7799968E+02  0.7818608E-02  0.1373744E+00
          2   -1    0    0  502    0  0.00000000000E+00  0.00000000000E+00  0.52163950855E+03  0.52163950855E+03  0.00000000000E+00 0. -1.
          1   -1    0    0  501    0 -0.00000000000E+00 -0.00000000000E+00 -0.10575807810E+04  0.10575807810E+04  0.00000000000E+00 0. -1.
         25    2    1    2    0    0  0.31237962522E+02 -0.11705951330E+03 -0.69742005924E+02  0.18753225588E+03  0.12500263856E+03 0.  0.
          2    1    1    2  501    0 -0.38956869648E+02  0.40338540359E+02 -0.92487626567E+03  0.92657484443E+03  0.00000000000E+00 0. -1.
          1    1    1    2  502    0  0.77189071262E+01  0.76720972945E+02  0.45867699917E+03  0.46511318922E+03  0.00000000000E+00 0. -1.
         22    1    3    3    0    0 -0.21604752761E+02 -0.87165749348E+02  0.65375157890E+01  0.90040947984E+02  0.00000000000E+00 0.  1.
         22    1    3    3    0    0  0.52842715283E+02 -0.29893763957E+02 -0.76279521713E+02  0.97491307893E+02  0.00000000000E+00 0.  1.
</event>
<event>
 7    1  0.6315518E-006  0.9243893E+02  0.7818608E-02  0.1382160E+00
          2   -1    0    0  502    0  0.00000000000E+00  0.00000000000E+00  0.55536722946E+02  0.55536722946E+02  0.00000000000E+00 0. -1.
          1   -1    0    0  501    0 -0.00000000000E+00 -0.00000000000E+00 -0.32375210840E+04  0.32375210840E+04  0.00000000000E+00 0. -1.
         25    2    1    2    0    0  0.66137078139E+02  0.61749718316E+02 -0.36914728204E+03  0.40010275911E+03  0.12500144475E+03 0.  0.
          2    1    1    2  501    0 -0.34980049775E+02  0.26971715354E+02 -0.27972977549E+04  0.27976464763E+04  0.00000000000E+00 0. -1.
          1    1    1    2  502    0 -0.31157028364E+02 -0.88721433670E+02 -0.15539324185E+02  0.95308571520E+02  0.00000000000E+00 0. -1.
         22    1    3    3    0    0  0.58387007550E+02  0.92188949167E+02 -0.19783577408E+03  0.22593547420E+03  0.00000000000E+00 0. -1.
         22    1    3    3    0    0  0.77500705883E+01 -0.30439230851E+02 -0.17131150797E+03  0.17416728490E+03  0.00000000000E+00 0. -1.
</event>
<event>
 7    1  0.6315518E-006  0.1200149E+03  0.7818608E-02  0.1305546E+00
          2   -1    0    0  502    0  0.00000000000E+00  0.00000000000E+00  0.18885644271E+04  0.18885644271E+04  0.00000000000E+00 0. -1.
          1   -1    0    0  501    0 -0.00000000000E+00 -0.00000000000E+00 -0.24096360991E+03  0.24096360991E+03  0.00000000000E+00 0. -1.
         25    2    1    2    0    0  0.17860977982E+02 -0.13733032523E+03  0.83891740500E+00  0.18657187646E+03  0.12501891274E+03 0.  0.
          2    1    1    2  501    0  0.42393327155E+02  0.11077357815E+03 -0.12363862670E+03  0.17133152020E+03  0.00000000000E+00 0. -1.
          1    1    1    2  502    0 -0.60254305137E+02  0.26556747080E+02  0.17704005264E+04  0.17716246403E+04  0.00000000000E+00 0. -1.
         22    1    3    3    0    0  0.17740306955E+02 -0.15904768893E+03 -0.13413486577E+02  0.16059516638E+03  0.00000000000E+00 0.  1.
         22    1    3    3    0    0  0.12067102690E+00  0.21717363695E+02  0.14252403982E+02  0.25976710081E+02  0.00000000000E+00 0.  1.
</event>
<event>
 7    1  0.6315518E-006  0.1245150E+03  0.7818608E-02  0.1351079E+00
          2   -1    0    0  502    0  0.00000000000E+00  0.00000000000E+00  0.12916646956E+04  0.12916646956E+04  0.00000000000E+00 0. -1.
          1   -1    0    0  501    0 -0.00000000000E+00 -0.00000000000E+00 -0.10306914750E+03  0.10306914750E+03  0.00000000000E+00 0. -1.
         25    2    1    2    0    0  0.11489481188E+03 -0.42157345480E+02  0.43842353525E+02  0.18034800205E+03  0.12500076121E+03 0.  0.
          2    1    1    2  501    0 -0.10122719805E+03  0.82369041899E+02  0.89425907378E+02  0.15820429071E+03  0.00000000000E+00 0. -1.
          1    1    1    2  502    0 -0.13667613828E+02 -0.40211696419E+02  0.10553272872E+04  0.10561815504E+04  0.00000000000E+00 0. -1.
         22    1    3    3    0    0  0.52622827035E+02 -0.83030332408E+02  0.10910016678E+02  0.98905138839E+02  0.00000000000E+00 0.  1.
         22    1    3    3    0    0  0.62271984847E+02  0.40872986927E+02  0.32932336846E+02  0.81442863207E+02  0.00000000000E+00 0.  1.
</event>
<event>
 7    1  0.6315518E-006  0.7170251E+02  0.7818608E-02  0.1458136E+00
          2   -1    0    0  502    0  0.00000000000E+00  0.00000000000E+00  0.29345520987E+03  0.29345520987E+03  0.00000000000E+00 0. -1.
          1   -1    0    0  501    0 -0.00000000000E+00 -0.00000000000E+00 -0.17397138915E+04  0.17397138915E+04  0.00000000000E+00 0. -1.
         25    2    1    2    0    0 -0.24443386744E+02  0.58581212160E+02 -0.23316433321E+03  0.27206775530E+03  0.12500407841E+03 0.  0.
          2    1    1    2  501    0  0.54300401628E+02 -0.47819326704E+02 -0.14852952102E+04  0.14870565164E+04  0.00000000000E+00 0. -1.
          1    1    1    2  502    0 -0.29857014885E+02 -0.10761885456E+02  0.27220086176E+03  0.27404482965E+03  0.00000000000E+00 0. -1.
         22    1    3    3    0    0 -0.28224554069E+02  0.90887836275E+02 -0.11379443341E+03  0.14834553350E+03  0.00000000000E+00 0.  1.
         22    1    3    3    0    0  0.37811673256E+01 -0.32306624114E+02 -0.11936989980E+03  0.12372222180E+03  0.00000000000E+00 0.  1.
</event>
<event>
 7    1  0.6315518E-006  0.3150423E+02  0.7818608E-02  0.1626860E+00
          2   -1    0    0  502    0  0.00000000000E+00  0.00000000000E+00  0.56021162270E+02  0.56021162270E+02  0.00000000000E+00 0. -1.
          1   -1    0    0  501    0 -0.00000000000E+00 -0.00000000000E+00 -0.73134397086E+03  0.73134397086E+03  0.00000000000E+00 0. -1.
         25    2    1    2    0    0 -0.10633828716E+02  0.51087291640E+02 -0.31593317119E+03  0.34374326687E+03  0.12499070037E+03 0.  0.
          2    1    1    2  501    0  0.13386520129E+02 -0.20031423579E+02 -0.39531829840E+03  0.39605178184E+03  0.00000000000E+00 0. -1.
          1    1    1    2  502    0 -0.27526914130E+01 -0.31055868061E+02  0.35928660994E+02  0.47570084421E+02  0.00000000000E+00 0. -1.
         22    1    3    3    0    0  0.16168270949E+02  0.53072640887E+02 -0.44878939813E+02  0.71359914762E+02  0.00000000000E+00 0. -1.
         22    1    3    3    0    0 -0.26802099664E+02 -0.19853492473E+01 -0.27105423137E+03  0.27238335211E+03  0.00000000000E+00 0. -1.
</event>
<event>
 7    1  0.6315518E-006  0.4322958E+02  0.7818608E-02  0.1588546E+00
          2   -1    0    0  502    0  0.00000000000E+00  0.00000000000E+00  0.84952411903E+03  0.84952411903E+03  0.00000000000E+00 0. -1.
          1   -1    0    0  501    0 -0.00000000000E+00 -0.00000000000E+00 -0.44078498268E+03  0.44078498268E+03  0.00000000000E+00 0. -1.
         25    2    1    2    0    0 -0.22583186012E+02  0.17859935668E+02  0.24152731454E+03  0.27347775188E+03  0.12500263802E+03 0.  0.
          2    1    1    2  501    0  0.17922422485E+02 -0.39422328389E+02 -0.42349970618E+03  0.42570803884E+03  0.00000000000E+00 0. -1.
          1    1    1    2  502    0  0.46607635265E+01  0.21562392721E+02  0.59071152799E+03  0.59112331099E+03  0.00000000000E+00 0. -1.
         22    1    3    3    0    0  0.16072363964E+02  0.13815532790E+02 -0.66985744101E+01  0.22227476887E+02  0.00000000000E+00 0.  1.
         22    1    3    3    0    0 -0.38655549975E+02  0.40444028779E+01  0.24822588895E+03  0.25125027499E+03  0.00000000000E+00 0.  1.
</event>
<event>
 7    1  0.6315518E-006  0.1696154E+03  0.7818608E-02  0.1240961E+00
          2   -1    0    0  502    0  0.00000000000E+00  0.00000000000E+00  0.12883275866E+03  0.12883275866E+03  0.00000000000E+00 0. -1.
          1   -1    0    0  501    0 -0.00000000000E+00 -0.00000000000E+00 -0.13127950731E+04  0.13127950731E+04  0.00000000000E+00 0. -1.
         25    2    1    2    0    0  0.69236368754E+02 -0.13432487214E+03 -0.11106262970E+03  0.22537726911E+03  0.12499263850E+03 0.  0.
          2    1    1    2  501    0 -0.14621034185E+03  0.94310912617E+02 -0.11087962424E+04  0.11223640761E+04  0.00000000000E+00 0. -1.
          1    1    1    2  502    0  0.76973973094E+02  0.40013959524E+02  0.35896557669E+02  0.93886486477E+02  0.00000000000E+00 0. -1.
         22    1    3    3    0    0  0.32634545006E+02 -0.10451191428E+03 -0.53687074283E+01  0.10962014767E+03  0.00000000000E+00 0. -1.
         22    1    3    3    0    0  0.36601823749E+02 -0.29812957857E+02 -0.10569392227E+03  0.11575712144E+03  0.00000000000E+00 0. -1.
</event>
<event>
 7    1  0.6315518E-006  0.1963807E+03  0.7818608E-02  0.1243075E+00
          2   -1    0    0  502    0  0.00000000000E+00  0.00000000000E+00  0.12109072425E+04  0.12109072425E+04  0.00000000000E+00 0. -1.
          1   -1    0    0  501    0 -0.00000000000E+00 -0.00000000000E+00 -0.29424110703E+03  0.29424110703E+03  0.00000000000E+00 0. -1.
         25    2    1    2    0    0 -0.23010466846E+03 -0.10102336059E+03  0.69416401222E+02  0.28913160472E+03  0.12499828102E+03 0.  0.
          2    1    1    2  501    0  0.15717490886E+03  0.93248303765E+02 -0.13739719818E+03  0.22864205256E+03  0.00000000000E+00 0. -1.
          1    1    1    2  502    0  0.72929759600E+02  0.77750568211E+01  0.98464693242E+03  0.98737469223E+03  0.00000000000E+00 0. -1.
         22    1    3    3    0    0 -0.15717381927E+02 -0.26669835077E+02  0.53309363847E+02  0.61645798490E+02  0.00000000000E+00 0. -1.
         22    1    3    3    0    0 -0.21438728653E+03 -0.74353525510E+02  0.16107037375E+02  0.22748580623E+03  0.00000000000E+00 0. -1.
</event>
<event>
 7    1  0.6315518E-006  0.3115062E+03  0.7818608E-02  0.1318869E+00
          2   -1    0    0  502    0  0.00000000000E+00  0.00000000000E+00  0.20578735155E+03  0.20578735155E+03  0.00000000000E+00 0. -1.
          1   -1    0    0  501    0 -0.00000000000E+00 -0.00000000000E+00 -0.25494233172E+04  0.25494233172E+04  0.00000000000E+00 0. -1.
         25    2    1    2    0    0 -0.16332419434E+03  0.24126640320E+03 -0.25671789324E+02  0.31806945470E+03  0.12499946991E+03 0.  0.
          2    1    1    2  501    0  0.18080994811E+03 -0.25540946862E+03 -0.23646787989E+04  0.23852949621E+04  0.00000000000E+00 0. -1.
          1    1    1    2  502    0 -0.17485753776E+02  0.14143065424E+02  0.46714622578E+02  0.51846252008E+02  0.00000000000E+00 0. -1.
         22    1    3    3    0    0 -0.14776576250E+03  0.10868087614E+03 -0.18943373679E+02  0.18440473099E+03  0.00000000000E+00 0. -1.
         22    1    3    3    0    0 -0.15558431833E+02  0.13258552706E+03 -0.67284156451E+01  0.13366472371E+03  0.00000000000E+00 0. -1.
</event>
<event>
 7    1  0.6315518E-006  0.4368749E+02  0.7818608E-02  0.1511823E+00
          2   -1    0    0  502    0  0.00000000000E+00  0.00000000000E+00  0.32913699385E+04  0.32913699385E+04  0.00000000000E+00 0. -1.
          1   -1    0    0  501    0 -0.00000000000E+00 -0.00000000000E+00 -0.38496343213E+01  0.38496343213E+01  0.00000000000E+00 0. -1.
         25    2    1    2    0    0 -0.13835199877E+02 -0.15102540431E+02  0.22263447264E+04  0.22299446820E+04  0.12499177710E+03 0.  0.
          2    1    1    2  501    0  0.30450234588E+02 -0.31326987781E+02  0.45181420873E+03  0.45392144272E+03  0.00000000000E+00 0. -1.
          1    1    1    2  502    0 -0.16615034711E+02  0.46429528213E+02  0.60936136905E+03  0.61135344815E+03  0.00000000000E+00 0. -1.
         22    1    3    3    0    0 -0.29999693077E+02 -0.25220826162E+02  0.21719560271E+04  0.21723096132E+04  0.00000000000E+00 0. -1.
         22    1    3    3    0    0  0.16164493200E+02  0.10118285731E+02  0.54388699252E+02  0.57635068777E+02  0.00000000000E+00 0. -1.
</event>
<event>
 7    1  0.6315518E-006  0.6393176E+02  0.7818608E-02  0.1404486E+00
          2   -1    0    0  502    0  0.00000000000E+00  0.00000000000E+00  0.13149577715E+04  0.13149577715E+04  0.00000000000E+00 0. -1.
          1   -1    0    0  501    0 -0.00000000000E+00 -0.00000000000E+00 -0.58451191406E+03  0.58451191406E+03  0.00000000000E+00 0. -1.
         25    2    1    2    0    0  0.83938343291E+02  0.59196792733E+02  0.18542698439E+03  0.24608518256E+03  0.12499937915E+03 0.  0.
          2    1    1    2  501    0 -0.62884864553E+02 -0.10095495266E+02 -0.55170051885E+03  0.55536464391E+03  0.00000000000E+00 0. -1.
          1    1    1    2  502    0 -0.21053478738E+02 -0.49101297467E+02  0.10967193919E+04  0.10980198591E+04  0.00000000000E+00 0. -1.
         22    1    3    3    0    0  0.75949057557E+02 -0.18670753592E+02  0.12391107680E+03  0.14652921667E+03  0.00000000000E+00 0.  1.
         22    1    3    3    0    0  0.79892857342E+01  0.77867546325E+02  0.61515907593E+02  0.99555965890E+02  0.00000000000E+00 0.  1.
</event>
<event>
 7    1  0.6315518E-006  0.5433238E+02  0.7818608E-02  0.1537774E+00
          2   -1    0    0  502    0  0.00000000000E+00  0.00000000000E+00  0.17105295594E+04  0.17105295594E+04  0.00000000000E+00 0. -1.
          1   -1    0    0  501    0 -0.00000000000E+00 -0.00000000000E+00 -0.43906088989E+03  0.43906088989E+03  0.00000000000E+00 0. -1.
         25    2    1    2    0    0 -0.65423364260E+01  0.57828338156E+02  0.17654377839E+03  0.22401000743E+03  0.12500343548E+03 0.  0.
          2    1    1    2  501    0  0.27962433751E+02 -0.46598239592E+02 -0.41345273026E+03  0.41700893731E+03  0.00000000000E+00 0. -1.
          1    1    1    2  502    0 -0.21420097325E+02 -0.11230098564E+02  0.15083776213E+04  0.15085715045E+04  0.00000000000E+00 0. -1.
         22    1    3    3    0    0 -0.60135482110E+02  0.32651062444E+02  0.51457825399E+02  0.85617030327E+02  0.00000000000E+00 0. -1.
         22    1    3    3    0    0  0.53593145684E+02  0.25177275712E+02  0.12508595299E+03  0.13839297710E+03  0.00000000000E+00 0. -1.
</event>
<event>
 7    1  0.6315518E-006  0.2283166E+03  0.7818608E-02  0.1201687E+00
          2   -1    0    0  502    0  0.00000000000E+00  0.00000000000E+00  0.16054646220E+04  0.16054646220E+04  0.00000000000E+00 0. -1.
          1   -1    0    0  501    0 -0.00000000000E+00 -0.00000000000E+00 -0.70014506232E+02  0.70014506232E+02  0.00000000000E+00 0. -1.
         25    2    1    2    0    0 -0.44832896259E+02 -0.24289700007E+03  0.55450827811E+03  0.61976894124E+03  0.12500067518E+03 0.  0.
          2    1    1    2  501    0 -0.80493060012E+02  0.54590821230E+02  0.77439317499E+02  0.12432271863E+03  0.00000000000E+00 0. -1.
          1    1    1    2  502    0  0.12532595627E+03  0.18830617883E+03  0.90350252013E+03  0.93138746834E+03  0.00000000000E+00 0. -1.
         22    1    3    3    0    0 -0.50966632920E+02 -0.18491054954E+03  0.51440096211E+03  0.54899713918E+03  0.00000000000E+00 0. -1.
         22    1    3    3    0    0  0.61337366609E+01 -0.57986450523E+02  0.40107316001E+02  0.70771802058E+02  0.00000000000E+00 0. -1.
</event>
<event>
 7    1  0.6315518E-006  0.3700290E+02  0.7818608E-02  0.1553377E+00
          2   -1    0    0  502    0  0.00000000000E+00  0.00000000000E+00  0.25344695089E+04  0.25344695089E+04  0.00000000000E+00 0. -1.
          1   -1    0    0  501    0 -0.00000000000E+00 -0.00000000000E+00 -0.88132246887E+03  0.88132246887E+03  0.00000000000E+00 0. -1.
         25    2    1    2    0    0  0.15710607136E+02  0.87007468544E+01  0.23644067245E+03  0.26805121471E+03  0.12499894377E+03 0.  0.
          2    1    1    2  501    0  0.16418540252E+02 -0.27591021922E+02 -0.86506720706E+03  0.86566281293E+03  0.00000000000E+00 0. -1.
          1    1    1    2  502    0 -0.32129147388E+02  0.18890275067E+02  0.22817735747E+04  0.22820779502E+04  0.00000000000E+00 0. -1.
         22    1    3    3    0    0  0.18611826584E+02  0.62582468440E+02  0.17215790863E+03  0.18412308640E+03  0.00000000000E+00 0. -1.
         22    1    3    3    0    0 -0.29012194486E+01 -0.53881721586E+02  0.64282763829E+02  0.83928128305E+02  0.00000000000E+00 0. -1.
</event>
<event>
 7    1  0.6315518E-006  0.1241909E+03  0.7818608E-02  0.1445685E+00
          2   -1    0    0  502    0  0.00000000000E+00  0.00000000000E+00  0.71381005591E+03  0.71381005591E+03  0.00000000000E+00 0. -1.
          1   -1    0    0  501    0 -0.00000000000E+00 -0.00000000000E+00 -0.14978088204E+04  0.14978088204E+04  0.00000000000E+00 0. -1.
         25    2    1    2    0    0  0.12274626430E+03 -0.48552261233E+01  0.20047696349E+03  0.26628167821E+03  0.12499880256E+03 0.  0.
          2    1    1    2  501    0 -0.12170161220E+03  0.24907120750E+02 -0.14620615762E+04  0.14673294449E+04  0.00000000000E+00 0. -1.
          1    1    1    2  502    0 -0.10446521003E+01 -0.20051894627E+02  0.47758584822E+03  0.47800775328E+03  0.00000000000E+00 0. -1.
         22    1    3    3    0    0 -0.10708524290E+01 -0.10951568179E+02  0.11541290029E+03  0.11593628045E+03  0.00000000000E+00 0. -1.
         22    1    3    3    0    0  0.12381711673E+03  0.60963420557E+01  0.85064063201E+02  0.15034539776E+03  0.00000000000E+00 0. -1.
</event>
<event>
 7    1  0.6315518E-006  0.1402765E+03  0.7818608E-02  0.1240498E+00
          2   -1    0    0  502    0  0.00000000000E+00  0.00000000000E+00  0.93302170820E+03  0.93302170820E+03  0.00000000000E+00 0. -1.
          1   -1    0    0  501    0 -0.00000000000E+00 -0.00000000000E+00 -0.10736178700E+03  0.10736178700E+03  0.00000000000E+00 0. -1.
         25    2    1    2    0    0  0.65466273251E+02 -0.10129889075E+03  0.42861772577E+03  0.46247741888E+03  0.12499963971E+03 0.  0.
          2    1    1    2  501    0  0.30624142709E+02  0.14458892151E+03 -0.18735229599E+02  0.14897920381E+03  0.00000000000E+00 0. -1.
          1    1    1    2  502    0 -0.96090415960E+02 -0.43290030759E+02  0.41577742502E+03  0.42892687251E+03  0.00000000000E+00 0. -1.
         22    1    3    3    0    0 -0.29071248739E+02  0.25570361682E+01  0.11851900998E+03  0.12205913184E+03  0.00000000000E+00 0. -1.
         22    1    3    3    0    0  0.94537521990E+02 -0.10385592692E+03  0.31009871579E+03  0.34041828704E+03  0.00000000000E+00 0. -1.
</event>
<event>
 7    1  0.6315518E-006  0.3858623E+02  0.7818608E-02  0.1553881E+00
          2   -1    0    0  502    0  0.00000000000E+00  0.00000000000E+00  0.13773234112E+03  0.13773234112E+03  0.00000000000E+00 0. -1.
          1   -1    0    0  501    0 -0.00000000000E+00 -0.00000000000E+00 -0.49185646348E+03  0.49185646348E+03  0.00000000000E+00 0. -1.
         25    2    1    2    0    0 -0.40111114706E+02  0.51976580541E+02 -0.10497698018E+02  0.14157991843E+03  0.12499682072E+03 0.  0.
          2    1    1    2  501    0  0.14208509773E+02 -0.35516365376E+02 -0.41162851079E+03  0.41340213456E+03  0.00000000000E+00 0. -1.
          1    1    1    2  502    0  0.25902604934E+02 -0.16460215165E+02  0.68002086453E+02  0.74606751622E+02  0.00000000000E+00 0. -1.
         22    1    3    3    0    0 -0.23298261243E+02  0.84152255868E+02 -0.38797483983E+02  0.95549232901E+02  0.00000000000E+00 0. -1.
         22    1    3    3    0    0 -0.16812853463E+02 -0.32175675327E+02  0.28299785966E+02  0.46030685526E+02  0.00000000000E+00 0. -1.
</event>
<event>
 7    1  0.6315518E-006  0.1033614E+03  0.7818608E-02  0.1404486E+00
          2   -1    0    0  502    0  0.00000000000E+00  0.00000000000E+00  0.82435474330E+03  0.82435474330E+03  0.00000000000E+00 0. -1.
          1   -1    0    0  501    0 -0.00000000000E+00 -0.00000000000E+00 -0.13770921967E+03  0.13770921967E+03  0.00000000000E+00 0. -1.
         25    2    1    2    0    0 -0.10050728141E+02 -0.13258274912E+03  0.18372422121E+03  0.25896087319E+03  0.12500776730E+03 0.  0.
          2    1    1    2  501    0  0.96556133601E+01  0.99540385232E+02 -0.74518977198E+02  0.12471807056E+03  0.00000000000E+00 0. -1.
          1    1    1    2  502    0  0.39511478107E+00  0.33042363887E+02  0.57744027963E+03  0.57838501922E+03  0.00000000000E+00 0. -1.
         22    1    3    3    0    0  0.19937427522E+02 -0.65195783664E+02  0.17103083891E+03  0.18411827471E+03  0.00000000000E+00 0. -1.
         22    1    3    3    0    0 -0.29988155663E+02 -0.67386965455E+02  0.12693382298E+02  0.74842598481E+02  0.00000000000E+00 0. -1.
</event>
<event>
 7    1  0.6315518E-006  0.4367343E+03  0.7818608E-02  0.1089056E+00
          2   -1    0    0  502    0  0.00000000000E+00  0.00000000000E+00  0.19754180003E+04  0.19754180003E+04  0.00000000000E+00 0. -1.
          1   -1    0    0  501    0 -0.00000000000E+00 -0.00000000000E+00 -0.17774828693E+04  0.17774828693E+04  0.00000000000E+00 0. -1.
         25    2    1    2    0    0 -0.91571606127E+02  0.38293914782E+03 -0.26181656557E+03  0.48908134894E+03  0.12499960757E+03 0.  0.
          2    1    1    2  501    0  0.18979462400E+03  0.48475179722E+02 -0.13686742576E+04  0.13826210853E+04  0.00000000000E+00 0. -1.
          1    1    1    2  502    0 -0.98223017873E+02 -0.43141432754E+03  0.18284259541E+04  0.18811984353E+04  0.00000000000E+00 0. -1.
         22    1    3    3    0    0 -0.44966479194E+02  0.21666303390E+03 -0.72537545425E+02  0.23286594858E+03  0.00000000000E+00 0.  1.
         22    1    3    3    0    0 -0.46605126934E+02  0.16627611392E+03 -0.18927902015E+03  0.25621540036E+03  0.00000000000E+00 0.  1.
</event>
<event>
 7    1  0.6315518E-006  0.1180882E+03  0.7818608E-02  0.1417400E+00
          2   -1    0    0  502    0  0.00000000000E+00  0.00000000000E+00  0.47379042997E+03  0.47379042997E+03  0.00000000000E+00 0. -1.
          1   -1    0    0  501    0 -0.00000000000E+00 -0.00000000000E+00 -0.14926544039E+03  0.14926544039E+03  0.00000000000E+00 0. -1.
         25    2    1    2    0    0  0.53510518177E+02 -0.79963896878E+02  0.49276061557E+02  0.16526024678E+03  0.12500087425E+03 0.  0.
          2    1    1    2  501    0  0.98760922236E+01 -0.24218315876E+02 -0.78961307387E+02  0.83180238553E+02  0.00000000000E+00 0. -1.
          1    1    1    2  502    0 -0.63386610401E+02  0.10418221275E+03  0.35421023541E+03  0.37461538503E+03  0.00000000000E+00 0. -1.
         22    1    3    3    0    0  0.39814255984E+02 -0.11414017842E+03  0.36201526010E+02  0.12618916671E+03  0.00000000000E+00 0.  1.
         22    1    3    3    0    0  0.13696262193E+02  0.34176281542E+02  0.13074535547E+02  0.39071080070E+02  0.00000000000E+00 0.  1.
</event>
<event>
 7    1  0.6315518E-006  0.5643164E+02  0.7818608E-02  0.1523366E+00
          2   -1    0    0  502    0  0.00000000000E+00  0.00000000000E+00  0.12037847874E+03  0.12037847874E+03  0.00000000000E+00 0. -1.
          1   -1    0    0  501    0 -0.00000000000E+00 -0.00000000000E+00 -0.44176275692E+03  0.44176275692E+03  0.00000000000E+00 0. -1.
         25    2    1    2    0    0 -0.23031585558E+01  0.45146518244E+02 -0.18330628561E+03  0.22642488266E+03  0.12499408184E+03 0.  0.
          2    1    1    2  501    0  0.26830507648E+02 -0.52499063167E+02 -0.23147885996E+03  0.23886919094E+03  0.00000000000E+00 0. -1.
          1    1    1    2  502    0 -0.24527349092E+02  0.73525449227E+01  0.93400867388E+02  0.96847162061E+02  0.00000000000E+00 0. -1.
         22    1    3    3    0    0 -0.40765366081E+01  0.75748854853E+02 -0.18031924569E+03  0.19562601445E+03  0.00000000000E+00 0.  1.
         22    1    3    3    0    0  0.17733780524E+01 -0.30602336609E+02 -0.29870399203E+01  0.30798868211E+02  0.00000000000E+00 0.  1.
</event>
<event>
 7    1  0.6315518E-006  0.1748154E+03  0.7818608E-02  0.1179664E+00
          2   -1    0    0  502    0  0.00000000000E+00  0.00000000000E+00  0.18386100551E+04  0.18386100551E+04  0.00000000000E+00 0. -1.
          1   -1    0    0  501    0 -0.00000000000E+00 -0.00000000000E+00 -0.20946105591E+03  0.20946105591E+03  0.00000000000E+00 0. -1.
         25    2    1    2    0    0  0.10274765507E+03  0.51442315448E+02  0.38748400664E+03  0.42305075294E+03  0.12499876686E+03 0.  0.
          2    1    1    2  501    0 -0.15880144665E+03  0.10051909263E+03 -0.13971049208E+03  0.23418157280E+03  0.00000000000E+00 0. -1.
          1    1    1    2  502    0  0.56053791575E+02 -0.15196140807E+03  0.13813754846E+04  0.13908387852E+04  0.00000000000E+00 0. -1.
         22    1    3    3    0    0 -0.23604599944E+02 -0.11792378632E+02  0.39781676447E+02  0.47736978468E+02  0.00000000000E+00 0. -1.
         22    1    3    3    0    0  0.12635225502E+03  0.63234694080E+02  0.34770233020E+03  0.37531377447E+03  0.00000000000E+00 0. -1.
</event>
<event>
 7    1  0.6315518E-006  0.1727304E+03  0.7818608E-02  0.1276260E+00
          2   -1    0    0  502    0  0.00000000000E+00  0.00000000000E+00  0.20836986186E+04  0.20836986186E+04  0.00000000000E+00 0. -1.
          1   -1    0    0  501    0 -0.00000000000E+00 -0.00000000000E+00 -0.47896692840E+03  0.47896692840E+03  0.00000000000E+00 0. -1.
         25    2    1    2    0    0  0.41794427717E+02  0.13898953721E+03  0.11354155000E+03  0.22266915296E+03  0.12500000984E+03 0.  0.
          2    1    1    2  501    0  0.53150777227E+01 -0.17641616159E+03 -0.40555562163E+03  0.44229659094E+03  0.00000000000E+00 0. -1.
          1    1    1    2  502    0 -0.47109505440E+02  0.37426624377E+02  0.18967457618E+04  0.18976998031E+04  0.00000000000E+00 0. -1.
         22    1    3    3    0    0  0.31811064228E+02  0.12916351793E+03  0.27935726019E+02  0.13592484305E+03  0.00000000000E+00 0. -1.
         22    1    3    3    0    0  0.99833634895E+01  0.98260192855E+01  0.85605823983E+02  0.86744309908E+02  0.00000000000E+00 0. -1.
</event>
<event>
 7    1  0.1025826E-005  0.1153884E+03  0.7818608E-02  0.1326331E+00
          2   -1    0    0  502    0  0.00000000000E+00  0.00000000000E+00  0.16669205561E+04  0.16669205561E+04  0.00000000000E+00 0. -1.
          1   -1    0    0  501    0 -0.00000000000E+00 -0.00000000000E+00 -0.10975203205E+04  0.10975203205E+04  0.00000000000E+00 0. -1.
         25    2    1    2    0    0  0.21844748159E+02  0.63978422309E+02 -0.18841826694E+03  0.23600502259E+03  0.12500598316E+03 0.  0.
          2    1    1    2  501    0 -0.23109248103E+02  0.51900534589E+02 -0.88235067826E+03  0.88417782276E+03  0.00000000000E+00 0. -1.
          1    1    1    2  502    0  0.12644999442E+01 -0.11587895690E+03  0.16401691808E+04  0.16442580312E+04  0.00000000000E+00 0. -1.
         22    1    3    3    0    0  0.65270870524E+02  0.47914019397E+02 -0.63868845587E+02  0.10312744169E+03  0.00000000000E+00 0. -1.
         22    1    3    3    0    0 -0.43426122365E+02  0.16064402911E+02 -0.12454942136E+03  0.13287758090E+03  0.00000000000E+00 0. -1.
</event>
<event>
 7    1  0.6315518E-006  0.6856041E+02  0.7818608E-02  0.1458572E+00
          2   -1    0    0  502    0  0.00000000000E+00  0.00000000000E+00  0.14370851764E+04  0.14370851764E+04  0.00000000000E+00 0. -1.
          1   -1    0    0  501    0 -0.00000000000E+00 -0.00000000000E+00 -0.17768099946E+04  0.17768099946E+04  0.00000000000E+00 0. -1.
         25    2    1    2    0    0  0.46433081424E+02  0.14748710532E+02  0.15928049287E+03  0.20824886257E+03  0.12499503125E+03 0.  0.
          2    1    1    2  501    0 -0.49368939631E+02 -0.47704770452E+02 -0.17514348471E+04  0.17527798096E+04  0.00000000000E+00 0. -1.
          1    1    1    2  502    0  0.29358582068E+01  0.32956059920E+02  0.12524295360E+04  0.12528664988E+04  0.00000000000E+00 0. -1.
         22    1    3    3    0    0 -0.22991280409E+02 -0.14952729666E+02  0.12007363560E+03  0.12316598989E+03  0.00000000000E+00 0.  1.
         22    1    3    3    0    0  0.69424361832E+02  0.29701440198E+02  0.39206857272E+02  0.85082872676E+02  0.00000000000E+00 0.  1.
</event>
<event>
 7    1  0.6315518E-006  0.4450601E+02  0.7818608E-02  0.1536496E+00
          2   -1    0    0  502    0  0.00000000000E+00  0.00000000000E+00  0.71494659368E+03  0.71494659368E+03  0.00000000000E+00 0. -1.
          1   -1    0    0  501    0 -0.00000000000E+00 -0.00000000000E+00 -0.11095053200E+03  0.11095053200E+03  0.00000000000E+00 0. -1.
         25    2    1    2    0    0 -0.45216138909E+02  0.41054652519E+00  0.12664161325E+03  0.18359598181E+03  0.12499887424E+03 0.  0.
          2    1    1    2  501    0  0.34799116351E+02 -0.28301455234E+02 -0.75944591240E+02  0.88201654212E+02  0.00000000000E+00 0. -1.
          1    1    1    2  502    0  0.10417022558E+02  0.27890908709E+02  0.55329903967E+03  0.55409948966E+03  0.00000000000E+00 0. -1.
         22    1    3    3    0    0  0.14895111145E+02  0.29177145267E+02  0.11018835550E+03  0.11495496435E+03  0.00000000000E+00 0.  1.
         22    1    3    3    0    0 -0.60111250054E+02 -0.28766598742E+02  0.16453257751E+02  0.68641017452E+02  0.00000000000E+00 0.  1.
</event>
<event>
 7    1  0.6315518E-006  0.5237115E+02  0.7818608E-02  0.1479787E+00
          2   -1    0    0  502    0  0.00000000000E+00  0.00000000000E+00  0.95716321392E+03  0.95716321392E+03  0.00000000000E+00 0. -1.
          1   -1    0    0  501    0 -0.00000000000E+00 -0.00000000000E+00 -0.47279012990E+02  0.47279012990E+02  0.00000000000E+00 0. -1.
         25    2    1    2    0    0 -0.49977070878E+02 -0.27588953718E+02  0.93578675305E+02  0.16625608590E+03  0.12500103857E+03 0.  0.
          2    1    1    2  501    0 -0.17057470329E+01  0.37162372708E+02  0.24291826158E+02  0.44430218729E+02  0.00000000000E+00 0. -1.
          1    1    1    2  502    0  0.51682817911E+02 -0.95734189897E+01  0.79201369947E+03  0.79375592229E+03  0.00000000000E+00 0. -1.
         22    1    3    3    0    0  0.26645366682E+02 -0.46929576511E+02  0.17951738624E+02  0.56873769320E+02  0.00000000000E+00 0. -1.
         22    1    3    3    0    0 -0.76622437560E+02  0.19340622792E+02  0.75626936681E+02  0.10938231658E+03  0.00000000000E+00 0. -1.
</event>
<event>
 7    1  0.6315518E-006  0.6217690E+02  0.7818608E-02  0.1423436E+00
          2   -1    0    0  502    0  0.00000000000E+00  0.00000000000E+00  0.35014630916E+04  0.35014630916E+04  0.00000000000E+00 0. -1.
          1   -1    0    0  501    0 -0.00000000000E+00 -0.00000000000E+00 -0.26378989599E+03  0.26378989599E+03  0.00000000000E+00 0. -1.
         25    2    1    2    0    0  0.33494939611E+02 -0.17879620333E+02  0.72243029135E+02  0.14928617053E+03  0.12500285457E+03 0.  0.
          2    1    1    2  501    0 -0.59917068538E+02 -0.21499345142E+02 -0.22060181223E+03  0.22960277982E+03  0.00000000000E+00 0. -1.
          1    1    1    2  502    0  0.26422128927E+02  0.39378965475E+02  0.33860319787E+04  0.33863640372E+04  0.00000000000E+00 0. -1.
         22    1    3    3    0    0 -0.47285444349E+02 -0.10361648482E+02  0.36529710012E+02  0.60644016359E+02  0.00000000000E+00 0.  1.
         22    1    3    3    0    0  0.80780383960E+02 -0.75179718516E+01  0.35713319123E+02  0.88642154172E+02  0.00000000000E+00 0.  1.
</event>
<event>
 7    1  0.6315518E-006  0.3823892E+03  0.7818608E-02  0.1232263E+00
          2   -1    0    0  502    0  0.00000000000E+00  0.00000000000E+00  0.53806188432E+03  0.53806188432E+03  0.00000000000E+00 0. -1.
          1   -1    0    0  501    0 -0.00000000000E+00 -0.00000000000E+00 -0.12173509155E+04  0.12173509155E+04  0.00000000000E+00 0. -1.
         25    2    1    2    0    0 -0.28080768163E+03 -0.27820185644E+03  0.29448433308E+03  0.50852234954E+03  0.12499892223E+03 0.  0.
          2    1    1    2  501    0  0.21750967832E+02  0.35993704856E+02 -0.87871920122E+03  0.87972500589E+03  0.00000000000E+00 0. -1.
          1    1    1    2  502    0  0.25905671380E+03  0.24220815158E+03 -0.95054163047E+02  0.36716544441E+03  0.00000000000E+00 0. -1.
         22    1    3    3    0    0 -0.11694148337E+03 -0.52074726670E+02  0.13871900585E+03  0.18875923891E+03  0.00000000000E+00 0. -1.
         22    1    3    3    0    0 -0.16386619826E+03 -0.22612712977E+03  0.15576532724E+03  0.31976311063E+03  0.00000000000E+00 0. -1.
</event>
<event>
 7    1  0.6315518E-006  0.9965456E+02  0.7818608E-02  0.1415339E+00
          2   -1    0    0  502    0  0.00000000000E+00  0.00000000000E+00  0.21173647989E+04  0.21173647989E+04  0.00000000000E+00 0. -1.
          1   -1    0    0  501    0 -0.00000000000E+00 -0.00000000000E+00 -0.16404051410E+04  0.16404051410E+04  0.00000000000E+00 0. -1.
         25    2    1    2    0    0 -0.96308322602E+01 -0.12783417404E+03 -0.39784071500E+03  0.43627571234E+03  0.12499973471E+03 0.  0.
          2    1    1    2  501    0  0.95135033453E+01  0.96344036752E+02 -0.12213131007E+04  0.12251442242E+04  0.00000000000E+00 0. -1.
          1    1    1    2  502    0  0.11732891491E+00  0.31490137286E+02  0.20961134736E+04  0.20963500034E+04  0.00000000000E+00 0. -1.
         22    1    3    3    0    0  0.17283476375E+02 -0.69544690695E+02 -0.63250759605E+02  0.95581594201E+02  0.00000000000E+00 0. -1.
         22    1    3    3    0    0 -0.26914308635E+02 -0.58289483343E+02 -0.33458995540E+03  0.34069411813E+03  0.00000000000E+00 0. -1.
</event>
<event>
 7    1  0.6315518E-006  0.6836085E+02  0.7818608E-02  0.1474840E+00
          2   -1    0    0  502    0  0.00000000000E+00  0.00000000000E+00  0.29484806619E+03  0.29484806619E+03  0.00000000000E+00 0. -1.
          1   -1    0    0  501    0 -0.00000000000E+00 -0.00000000000E+00 -0.10309067884E+03  0.10309067884E+03  0.00000000000E+00 0. -1.
         25    2    1    2    0    0 -0.86326266434E+02 -0.32790690657E+02  0.43274279097E+02  0.16132424583E+03  0.12500158156E+03 0.  0.
          2    1    1    2  501    0  0.59570486914E+02  0.20324435425E+02 -0.19628016333E+02  0.65931666229E+02  0.00000000000E+00 0. -1.
          1    1    1    2  502    0  0.26755779520E+02  0.12466255232E+02  0.16811112459E+03  0.17068283296E+03  0.00000000000E+00 0. -1.
         22    1    3    3    0    0 -0.93381775759E+01 -0.28425054718E+02  0.72834789191E+02  0.78740661749E+02  0.00000000000E+00 0.  1.
         22    1    3    3    0    0 -0.76988088858E+02 -0.43656359392E+01 -0.29560510094E+02  0.82583584084E+02  0.00000000000E+00 0.  1.
</event>
<event>
 7    1  0.6315518E-006  0.2856031E+03  0.7818608E-02  0.1244475E+00
          2   -1    0    0  502    0  0.00000000000E+00  0.00000000000E+00  0.94046774977E+03  0.94046774977E+03  0.00000000000E+00 0. -1.
          1   -1    0    0  501    0 -0.00000000000E+00 -0.00000000000E+00 -0.30020975336E+03  0.30020975336E+03  0.00000000000E+00 0. -1.
         25    2    1    2    0    0  0.25356919550E+03  0.47743651941E+02  0.24835969995E+03  0.37932358758E+03  0.12500820104E+03 0.  0.
          2    1    1    2  501    0  0.46284444863E+02 -0.18170354237E+02 -0.19520968957E+03  0.20144288151E+03  0.00000000000E+00 0. -1.
          1    1    1    2  502    0 -0.29985364036E+03 -0.29573297704E+02  0.58710798603E+03  0.65991103403E+03  0.00000000000E+00 0. -1.
         22    1    3    3    0    0  0.22234861224E+03  0.14900425116E+02  0.14339811391E+03  0.26499801340E+03  0.00000000000E+00 0.  1.
         22    1    3    3    0    0  0.31220583264E+02  0.32843226825E+02  0.10496158604E+03  0.11432557418E+03  0.00000000000E+00 0.  1.
</event>
<event>
 7    1  0.6315518E-006  0.2661821E+03  0.7818608E-02  0.1250004E+00
          2   -1    0    0  502    0  0.00000000000E+00  0.00000000000E+00  0.24224971291E+04  0.24224971291E+04  0.00000000000E+00 0. -1.
          1   -1    0    0  501    0 -0.00000000000E+00 -0.00000000000E+00 -0.18202855020E+03  0.18202855020E+03  0.00000000000E+00 0. -1.
         25    2    1    2    0    0 -0.10653938260E+03  0.21511325714E+03  0.83947867962E+03  0.88202843990E+03  0.12500144730E+03 0.  0.
          2    1    1    2  501    0  0.15679280812E+03 -0.21980260223E+03 -0.46635057893E+02  0.27399269561E+03  0.00000000000E+00 0. -1.
          1    1    1    2  502    0 -0.50253425524E+02  0.46893450917E+01  0.14476249572E+04  0.14485045438E+04  0.00000000000E+00 0. -1.
         22    1    3    3    0    0 -0.22087893553E+02  0.49868448797E+02  0.41749332537E+03  0.42104086970E+03  0.00000000000E+00 0.  1.
         22    1    3    3    0    0 -0.84451489043E+02  0.16524480834E+03  0.42198535425E+03  0.46098757020E+03  0.00000000000E+00 0.  1.
</event>
<event>
 7    1  0.6315518E-006  0.7312792E+02  0.7818608E-02  0.1391206E+00
          2   -1    0    0  502    0  0.00000000000E+00  0.00000000000E+00  0.27350746610E+04  0.27350746610E+04  0.00000000000E+00 0. -1.
          1   -1    0    0  501    0 -0.00000000000E+00 -0.00000000000E+00 -0.17588291197E+02  0.17588291197E+02  0.00000000000E+00 0. -1.
         25    2    1    2    0    0 -0.10272579263E+03  0.18284985594E+02  0.10402247774E+04  0.10528914941E+04  0.12500392670E+03 0.  0.
          2    1    1    2  501    0  0.35112627113E+02 -0.38222584752E+02  0.53709715230E+02  0.74689999853E+02  0.00000000000E+00 0. -1.
          1    1    1    2  502    0  0.67613165520E+02  0.19937599158E+02  0.16235518771E+04  0.16250814582E+04  0.00000000000E+00 0. -1.
         22    1    3    3    0    0 -0.79586010833E+02  0.74911778189E+01  0.25465265433E+03  0.26690452454E+03  0.00000000000E+00 0.  1.
         22    1    3    3    0    0 -0.23139781801E+02  0.10793807775E+02  0.78557212306E+03  0.78598696956E+03  0.00000000000E+00 0.  1.
</event>
<event>
 7    1  0.6315518E-006  0.7098760E+02  0.7818608E-02  0.1374608E+00
          2   -1    0    0  502    0  0.00000000000E+00  0.00000000000E+00  0.41403503755E+03  0.41403503755E+03  0.00000000000E+00 0. -1.
          1   -1    0    0  501    0 -0.00000000000E+00 -0.00000000000E+00 -0.22342846305E+03  0.22342846305E+03  0.00000000000E+00 0. -1.
         25    2    1    2    0    0  0.98716438300E+02 -0.67100291294E+02  0.49392639721E+02  0.17975586684E+03  0.12500061808E+03 0.  0.
          2    1    1    2  501    0 -0.31859939928E+02  0.52231995220E+02 -0.14818294207E+03  0.16031662864E+03  0.00000000000E+00 0. -1.
          1    1    1    2  502    0 -0.66856498372E+02  0.14868296074E+02  0.28939687684E+03  0.29739100513E+03  0.00000000000E+00 0. -1.
         22    1    3    3    0    0 -0.29535548608E+02 -0.58001621722E+01  0.14381605280E+02  0.33358973054E+02  0.00000000000E+00 0. -1.
         22    1    3    3    0    0  0.12825198691E+03 -0.61300129122E+02  0.35011034441E+02  0.14639689378E+03  0.00000000000E+00 0. -1.
</event>
<event>
 7    1  0.6315518E-006  0.4589158E+02  0.7818608E-02  0.1582876E+00
          2   -1    0    0  502    0  0.00000000000E+00  0.00000000000E+00  0.31482890696E+03  0.31482890696E+03  0.00000000000E+00 0. -1.
          1   -1    0    0  501    0 -0.00000000000E+00 -0.00000000000E+00 -0.64683680235E+03  0.64683680235E+03  0.00000000000E+00 0. -1.
         25    2    1    2    0    0 -0.30498679289E+02 -0.52933572850E+02  0.19522639419E+03  0.23973572862E+03  0.12501096758E+03 0.  0.
          2    1    1    2  501    0  0.10669615726E+02  0.44583431025E+02 -0.62254014231E+03  0.62422572184E+03  0.00000000000E+00 0. -1.
          1    1    1    2  502    0  0.19829063563E+02  0.83501418243E+01  0.95305852736E+02  0.97704258843E+02  0.00000000000E+00 0. -1.
         22    1    3    3    0    0  0.41091712096E+02 -0.53607447461E+02  0.95328766461E+02  0.11683261934E+03  0.00000000000E+00 0. -1.
         22    1    3    3    0    0 -0.71590391386E+02  0.67387461103E+00  0.99897627733E+02  0.12290310929E+03  0.00000000000E+00 0. -1.
</event>
<event>
 7    1  0.6315518E-006  0.1581430E+03  0.7818608E-02  0.1378382E+00
          2   -1    0    0  502    0  0.00000000000E+00  0.00000000000E+00  0.48557558373E+03  0.48557558373E+03  0.00000000000E+00 0. -1.
          1   -1    0    0  501    0 -0.00000000000E+00 -0.00000000000E+00 -0.18205347327E+03  0.18205347327E+03  0.00000000000E+00 0. -1.
         25    2    1    2    0    0 -0.12883506092E+03 -0.74324494433E+02 -0.34790680236E+02  0.19737201905E+03  0.12499087597E+03 0.  0.
          2    1    1    2  501    0  0.14061139354E+03  0.98205613305E+02  0.47142288251E+02  0.17787158801E+03  0.00000000000E+00 0. -1.
          1    1    1    2  502    0 -0.11776332621E+02 -0.23881118872E+02  0.29117050244E+03  0.29238544995E+03  0.00000000000E+00 0. -1.
         22    1    3    3    0    0 -0.45455026214E+02 -0.27729768475E+02 -0.76451267138E+02  0.93165957918E+02  0.00000000000E+00 0. -1.
         22    1    3    3    0    0 -0.83380034706E+02 -0.46594725958E+02  0.41660586902E+02  0.10420606113E+03  0.00000000000E+00 0. -1.
</event>
<event>
 7    1  0.6315518E-006  0.1280865E+03  0.7818608E-02  0.1236628E+00
          2   -1    0    0  502    0  0.00000000000E+00  0.00000000000E+00  0.21210363875E+04  0.21210363875E+04  0.00000000000E+00 0. -1.
          1   -1    0    0  501    0 -0.00000000000E+00 -0.00000000000E+00 -0.13557264018E+04  0.13557264018E+04  0.00000000000E+00 0. -1.
         25    2    1    2    0    0 -0.12740379239E+03 -0.17797727029E+03  0.30130555981E+03  0.39283193795E+03  0.12499702413E+03 0.  0.
          2    1    1    2  501    0  0.17642890739E+02  0.11875516030E+03 -0.13050122526E+04  0.13105231929E+04  0.00000000000E+00 0. -1.
          1    1    1    2  502    0  0.10976090165E+03  0.59222109990E+02  0.17690166785E+04  0.17734076584E+04  0.00000000000E+00 0. -1.
         22    1    3    3    0    0 -0.11482296929E+03 -0.70500943141E+02  0.21796304272E+03  0.25624711755E+03  0.00000000000E+00 0.  1.
         22    1    3    3    0    0 -0.12580823102E+02 -0.10747632715E+03  0.83342517088E+02  0.13658482040E+03  0.00000000000E+00 0.  1.
</event>
<event>
 7    1  0.6315518E-006  0.1459968E+03  0.7818608E-02  0.1387563E+00
          2   -1    0    0  502    0  0.00000000000E+00  0.00000000000E+00  0.86065900784E+03  0.86065900784E+03  0.00000000000E+00 0. -1.
          1   -1    0    0  501    0 -0.00000000000E+00 -0.00000000000E+00 -0.16960105294E+04  0.16960105294E+04  0.00000000000E+00 0. -1.
         25    2    1    2    0    0  0.14207903392E+03 -0.95373750454E+02 -0.15924893773E+03  0.26507063266E+03  0.12497844604E+03 0.  0.
          2    1    1    2  501    0 -0.18122343354E+02  0.19703337945E+02 -0.14772006908E+04  0.14774432380E+04  0.00000000000E+00 0. -1.
          1    1    1    2  502    0 -0.12395669056E+03  0.75670412508E+02  0.80109810692E+03  0.81415566655E+03  0.00000000000E+00 0. -1.
         22    1    3    3    0    0  0.39584861543E+02  0.22524668391E+02 -0.54896945826E+01  0.45874379517E+02  0.00000000000E+00 0. -1.
         22    1    3    3    0    0  0.10249417237E+03 -0.11789841884E+03 -0.15375924315E+03  0.21919625314E+03  0.00000000000E+00 0. -1.
</event>
<event>
 7    1  0.6315518E-006  0.9059249E+02  0.7818608E-02  0.1306567E+00
          2   -1    0    0  502    0  0.00000000000E+00  0.00000000000E+00  0.59930954434E+03  0.59930954434E+03  0.00000000000E+00 0. -1.
          1   -1    0    0  501    0 -0.00000000000E+00 -0.00000000000E+00 -0.37308010034E+03  0.37308010034E+03  0.00000000000E+00 0. -1.
         25    2    1    2    0    0  0.11645197464E+03 -0.11011740582E+03  0.12642704452E+03  0.23937399535E+03  0.12501682528E+03 0.  0.
          2    1    1    2  501    0 -0.34921128782E+02  0.81452847462E+02 -0.30576146509E+03  0.31834592054E+03  0.00000000000E+00 0. -1.
          1    1    1    2  502    0 -0.81530845856E+02  0.28664558362E+02  0.40556386456E+03  0.41466972879E+03  0.00000000000E+00 0. -1.
         22    1    3    3    0    0  0.43589927900E+02 -0.12142177793E+03  0.72119560523E+02  0.14779905609E+03  0.00000000000E+00 0. -1.
         22    1    3    3    0    0  0.72862046739E+02  0.11304372108E+02  0.54307483995E+02  0.91574939266E+02  0.00000000000E+00 0. -1.
</event>
<event>
 7    1  0.6315518E-006  0.7150104E+02  0.7818608E-02  0.1383375E+00
          2   -1    0    0  502    0  0.00000000000E+00  0.00000000000E+00  0.86968816704E+03  0.86968816704E+03  0.00000000000E+00 0. -1.
          1   -1    0    0  501    0 -0.00000000000E+00 -0.00000000000E+00 -0.58990205629E+03  0.58990205629E+03  0.00000000000E+00 0. -1.
         25    2    1    2    0    0  0.11138521238E+03 -0.57951211249E+02 -0.89090747105E+02  0.19831128697E+03  0.12500078759E+03 0.  0.
          2    1    1    2  501    0 -0.44157299074E+02  0.35319528851E+02 -0.44285663008E+03  0.44645193581E+03  0.00000000000E+00 0. -1.
          1    1    1    2  502    0 -0.67227913309E+02  0.22631682398E+02  0.81173348794E+03  0.81482700055E+03  0.00000000000E+00 0. -1.
         22    1    3    3    0    0  0.26682425187E+02  0.30717416011E+02 -0.59644813459E+02  0.72201213513E+02  0.00000000000E+00 0. -1.
         22    1    3    3    0    0  0.84702787196E+02 -0.88668627260E+02 -0.29445933646E+02  0.12611007346E+03  0.00000000000E+00 0. -1.
</event>
<event>
 7    1  0.6315518E-006  0.4915430E+02  0.7818608E-02  0.1561135E+00
          2   -1    0    0  502    0  0.00000000000E+00  0.00000000000E+00  0.11856631310E+03  0.11856631310E+03  0.00000000000E+00 0. -1.
          1   -1    0    0  501    0 -0.00000000000E+00 -0.00000000000E+00 -0.19558433262E+03  0.19558433262E+03  0.00000000000E+00 0. -1.
         25    2    1    2    0    0  0.50715611427E+02 -0.25973668395E+02 -0.14535060052E+03  0.19999509989E+03  0.12499815285E+03 0.  0.
          2    1    1    2  501    0 -0.17936359563E+01  0.22935649378E+02 -0.72056303144E+01  0.24107721804E+02  0.00000000000E+00 0. -1.
          1    1    1    2  502    0 -0.48921975471E+02  0.30380190174E+01  0.75538211319E+02  0.90047824032E+02  0.00000000000E+00 0. -1.
         22    1    3    3    0    0  0.84037402458E+01  0.47739826419E+02 -0.76724775708E+02  0.90754642218E+02  0.00000000000E+00 0. -1.
         22    1    3    3    0    0  0.42311871181E+02 -0.73713494814E+02 -0.68625824809E+02  0.10924045767E+03  0.00000000000E+00 0. -1.
</event>
<event>
 7    1  0.6315518E-006  0.1047563E+03  0.7818608E-02  0.1340274E+00
          2   -1    0    0  502    0  0.00000000000E+00  0.00000000000E+00  0.30454018549E+03  0.30454018549E+03  0.00000000000E+00 0. -1.
          1   -1    0    0  501    0 -0.00000000000E+00 -0.00000000000E+00 -0.20011102109E+03  0.20011102109E+03  0.00000000000E+00 0. -1.
         25    2    1    2    0    0  0.64404696730E+02  0.10693383962E+03  0.13815031253E+03  0.22426210762E+03  0.12500069219E+03 0.  0.
          2    1    1    2  501    0  0.17935114812E+02 -0.52406241600E+02 -0.13071477423E+03  0.14196631538E+03  0.00000000000E+00 0. -1.
          1    1    1    2  502    0 -0.82339811542E+02 -0.54527598017E+02  0.96993626097E+02  0.13842278358E+03  0.00000000000E+00 0. -1.
         22    1    3    3    0    0  0.58739213075E+02  0.13466164283E+03  0.10448053682E+03  0.18027821770E+03  0.00000000000E+00 0.  1.
         22    1    3    3    0    0  0.56654836546E+01 -0.27727803216E+02  0.33669775711E+02  0.43983889922E+02  0.00000000000E+00 0.  1.
</event>
<event>
 7    1  0.6315518E-006  0.1304061E+03  0.7818608E-02  0.1270774E+00
          2   -1    0    0  502    0  0.00000000000E+00  0.00000000000E+00  0.12896112873E+04  0.12896112873E+04  0.00000000000E+00 0. -1.
          1   -1    0    0  501    0 -0.00000000000E+00 -0.00000000000E+00 -0.36706786285E+03  0.36706786285E+03  0.00000000000E+00 0. -1.
         25    2    1    2    0    0  0.51850109513E+02  0.99888480741E+02  0.83596323677E+03  0.85271693610E+03  0.12500198976E+03 0.  0.
          2    1    1    2  501    0 -0.12049726370E+03 -0.51459752422E+02 -0.34251470689E+03  0.36672063088E+03  0.00000000000E+00 0. -1.
          1    1    1    2  502    0  0.68647154184E+02 -0.48428728318E+02  0.42909489454E+03  0.43724158314E+03  0.00000000000E+00 0. -1.
         22    1    3    3    0    0  0.16465992452E+02  0.35028782126E+02  0.49719179213E+02  0.63009057018E+02  0.00000000000E+00 0.  1.
         22    1    3    3    0    0  0.35384117061E+02  0.64859698614E+02  0.78624405755E+03  0.78970787908E+03  0.00000000000E+00 0.  1.
</event>
<event>
 7    1  0.6315518E-006  0.1292013E+03  0.7818608E-02  0.1300476E+00
          2   -1    0    0  502    0  0.00000000000E+00  0.00000000000E+00  0.41013725883E+03  0.41013725883E+03  0.00000000000E+00 0. -1.
          1   -1    0    0  501    0 -0.00000000000E+00 -0.00000000000E+00 -0.25591291538E+04  0.25591291538E+04  0.00000000000E+00 0. -1.
         25    2    1    2    0    0  0.66802697438E+02 -0.16916251519E+03 -0.73871805731E+03  0.77097842734E+03  0.12499924117E+03 0.  0.
          2    1    1    2  501    0 -0.25826476860E+02  0.11989989998E+03 -0.17995744670E+04  0.18037492218E+04  0.00000000000E+00 0. -1.
          1    1    1    2  502    0 -0.40976220578E+02  0.49262615211E+02  0.38930062932E+03  0.39453876349E+03  0.00000000000E+00 0. -1.
         22    1    3    3    0    0  0.10921563659E+02  0.17015919832E+02 -0.14111484301E+03  0.14255602758E+03  0.00000000000E+00 0.  1.
         22    1    3    3    0    0  0.55881133779E+02 -0.18617843503E+03 -0.59760321430E+03  0.62842239976E+03  0.00000000000E+00 0.  1.
</event>
<event>
 7    1  0.6315518E-006  0.9360124E+02  0.7818608E-02  0.1391450E+00
          2   -1    0    0  502    0  0.00000000000E+00  0.00000000000E+00  0.69137594845E+03  0.69137594845E+03  0.00000000000E+00 0. -1.
          1   -1    0    0  501    0 -0.00000000000E+00 -0.00000000000E+00 -0.28157539984E+03  0.28157539984E+03  0.00000000000E+00 0. -1.
         25    2    1    2    0    0  0.41161968030E+02 -0.64266792220E+02  0.70861202078E+02  0.16270145980E+03  0.12500370741E+03 0.  0.
          2    1    1    2  501    0  0.38741555958E+02  0.11703153205E+02 -0.22989549080E+03  0.23343052209E+03  0.00000000000E+00 0. -1.
          1    1    1    2  502    0 -0.79903523988E+02  0.52563639015E+02  0.56883483733E+03  0.57681936640E+03  0.00000000000E+00 0. -1.
         22    1    3    3    0    0 -0.43402056731E+02 -0.35883937515E+02  0.18538252993E+02  0.59287961038E+02  0.00000000000E+00 0.  1.
         22    1    3    3    0    0  0.84564024761E+02 -0.28382854705E+02  0.52322949085E+02  0.10341349876E+03  0.00000000000E+00 0.  1.
</event>
<event>
 7    1  0.6315518E-006  0.7635307E+02  0.7818608E-02  0.1411571E+00
          2   -1    0    0  502    0  0.00000000000E+00  0.00000000000E+00  0.95320113088E+02  0.95320113088E+02  0.00000000000E+00 0. -1.
          1   -1    0    0  501    0 -0.00000000000E+00 -0.00000000000E+00 -0.10041295133E+04  0.10041295133E+04  0.00000000000E+00 0. -1.
         25    2    1    2    0    0 -0.83343061388E+02  0.30431827277E+02 -0.44440662846E+03  0.47009864586E+03  0.12499329350E+03 0.  0.
          2    1    1    2  501    0  0.32825861335E+02  0.26711798276E+02 -0.52821373940E+03  0.52990641799E+03  0.00000000000E+00 0. -1.
          1    1    1    2  502    0  0.50517200053E+02 -0.57143625553E+02  0.63810967600E+02  0.99444562590E+02  0.00000000000E+00 0. -1.
         22    1    3    3    0    0 -0.86445006756E+02 -0.11046358432E+02 -0.39947432769E+03  0.40886978332E+03  0.00000000000E+00 0. -1.
         22    1    3    3    0    0  0.31019453677E+01  0.41478185709E+02 -0.44932300770E+02  0.61228862535E+02  0.00000000000E+00 0. -1.
</event>
<event>
 7    1  0.6315518E-006  0.5509110E+02  0.7818608E-02  0.1457246E+00
          2   -1    0    0  502    0  0.00000000000E+00  0.00000000000E+00  0.21512570691E+04  0.21512570691E+04  0.00000000000E+00 0. -1.
          1   -1    0    0  501    0 -0.00000000000E+00 -0.00000000000E+00 -0.20788648635E+03  0.20788648635E+03  0.00000000000E+00 0. -1.
         25    2    1    2    0    0  0.71266169589E+02  0.11703948945E+02  0.15028720695E+02  0.14515401255E+03  0.12501190169E+03 0.  0.
          2    1    1    2  501    0 -0.31837326063E+02  0.26738120080E+02 -0.13942383458E+03  0.14549071463E+03  0.00000000000E+00 0. -1.
          1    1    1    2  502    0 -0.39428843526E+02 -0.38442069025E+02  0.20677656966E+04  0.20684988282E+04  0.00000000000E+00 0. -1.
         22    1    3    3    0    0  0.10441585953E+03  0.26235804235E+02  0.58863105216E+01  0.10782225093E+03  0.00000000000E+00 0. -1.
         22    1    3    3    0    0 -0.33149689940E+02 -0.14531855290E+02  0.91424101731E+01  0.37331761612E+02  0.00000000000E+00 0. -1.
</event>
<event>
 7    1  0.8590134E-006  0.7207014E+02  0.7818608E-02  0.1403229E+00
          2   -1    0    0  502    0  0.00000000000E+00  0.00000000000E+00  0.17363792079E+04  0.17363792079E+04  0.00000000000E+00 0. -1.
          1   -1    0    0  501    0 -0.00000000000E+00 -0.00000000000E+00 -0.19832765095E+04  0.19832765095E+04  0.00000000000E+00 0. -1.
         25    2    1    2    0    0 -0.84286728651E+02 -0.62730392079E+02 -0.23239598260E+03  0.28403243571E+03  0.12500870806E+03 0.  0.
          2    1    1    2  501    0  0.14341035323E+02  0.45664184273E+02 -0.17239724115E+04  0.17246367033E+04  0.00000000000E+00 0. -1.
          1    1    1    2  502    0  0.69945693329E+02  0.17066207806E+02  0.17094710924E+04  0.17109865784E+04  0.00000000000E+00 0. -1.
         22    1    3    3    0    0 -0.10834751415E+03 -0.74242243724E+02 -0.21577013404E+03  0.25260214829E+03  0.00000000000E+00 0.  1.
         22    1    3    3    0    0  0.24060785498E+02  0.11511851645E+02 -0.16625848554E+02  0.31430287419E+02  0.00000000000E+00 0.  1.
</event>
<event>
 7    1  0.6315518E-006  0.1216388E+03  0.7818608E-02  0.1351536E+00
          2   -1    0    0  502    0  0.00000000000E+00  0.00000000000E+00  0.13948672576E+04  0.13948672576E+04  0.00000000000E+00 0. -1.
          1   -1    0    0  501    0 -0.00000000000E+00 -0.00000000000E+00 -0.51838861260E+03  0.51838861260E+03  0.00000000000E+00 0. -1.
         25    2    1    2    0    0  0.14455039591E+03  0.31978305389E+02 -0.63251578873E+02  0.20382032077E+03  0.12499812781E+03 0.  0.
          2    1    1    2  501    0 -0.36615698732E+02  0.23124388861E+02 -0.38085110237E+03  0.38330537294E+03  0.00000000000E+00 0. -1.
          1    1    1    2  502    0 -0.10793469718E+03 -0.55102694250E+02  0.13205813263E+04  0.13261301765E+04  0.00000000000E+00 0. -1.
         22    1    3    3    0    0  0.13153175601E+02  0.34190856419E+02  0.26034712574E+02  0.44942484909E+02  0.00000000000E+00 0.  1.
         22    1    3    3    0    0  0.13139722031E+03 -0.22125510296E+01 -0.89286291447E+02  0.15887783586E+03  0.00000000000E+00 0.  1.
</event>
<event>
 7    1  0.6315518E-006  0.5295699E+03  0.7818608E-02  0.1129297E+00
          2   -1    0    0  502    0  0.00000000000E+00  0.00000000000E+00  0.14377818065E+04  0.14377818065E+04  0.00000000000E+00 0. -1.
          1   -1    0    0  501    0 -0.00000000000E+00 -0.00000000000E+00 -0.83419383543E+03  0.83419383543E+03  0.00000000000E+00 0. -1.
         25    2    1    2    0    0  0.48766112915E+03 -0.12902498863E+02  0.38002872134E+03  0.63089328767E+03  0.12499864007E+03 0.  0.
          2    1    1    2  501    0 -0.52980371431E+03  0.99907778903E+02 -0.60300659584E+03  0.80888225015E+03  0.00000000000E+00 0. -1.
          1    1    1    2  502    0  0.42142585154E+02 -0.87005280040E+02  0.82656584559E+03  0.83220010415E+03  0.00000000000E+00 0. -1.
         22    1    3    3    0    0  0.35512543113E+03 -0.16685302681E+02  0.34114557754E+03  0.49271977455E+03  0.00000000000E+00 0. -1.
         22    1    3    3    0    0  0.13253569802E+03  0.37828038176E+01  0.38883143801E+02  0.13817351312E+03  0.00000000000E+00 0. -1.
</event>
<event>
 7    1  0.6315518E-006  0.1489967E+03  0.7818608E-02  0.1217489E+00
          2   -1    0    0  502    0  0.00000000000E+00  0.00000000000E+00  0.46093221214E+04  0.46093221214E+04  0.00000000000E+00 0. -1.
          1   -1    0    0  501    0 -0.00000000000E+00 -0.00000000000E+00 -0.83945956725E+03  0.83945956725E+03  0.00000000000E+00 0. -1.
         25    2    1    2    0    0  0.21339176705E+03  0.42053201444E+02 -0.11660771930E+03  0.27663450510E+03  0.12499908486E+03 0.  0.
          2    1    1    2  501    0 -0.10862591552E+03  0.63615641396E+02 -0.63544017032E+03  0.64778912418E+03  0.00000000000E+00 0. -1.
          1    1    1    2  502    0 -0.10476585153E+03 -0.10566884284E+03  0.45219104437E+04  0.45243580594E+04  0.00000000000E+00 0. -1.
         22    1    3    3    0    0  0.15576926986E+03  0.85410566978E+02 -0.94442049307E+02  0.20119227386E+03  0.00000000000E+00 0. -1.
         22    1    3    3    0    0  0.57622497185E+02 -0.43357365534E+02 -0.22165669991E+02  0.75442231237E+02  0.00000000000E+00 0. -1.
</event>
<event>
 7    1  0.6315518E-006  0.3329462E+02  0.7818608E-02  0.1584804E+00
          2   -1    0    0  502    0  0.00000000000E+00  0.00000000000E+00  0.64623967046E+03  0.64623967046E+03  0.00000000000E+00 0. -1.
          1   -1    0    0  501    0 -0.00000000000E+00 -0.00000000000E+00 -0.60981306941E+02  0.60981306941E+02  0.00000000000E+00 0. -1.
         25    2    1    2    0    0 -0.27443108340E+02  0.35713782903E+02  0.51063715329E+02  0.14234024319E+03  0.12499857329E+03 0.  0.
          2    1    1    2  501    0 -0.51250429802E+01 -0.28854936934E+02 -0.34238884498E+00  0.29308542801E+02  0.00000000000E+00 0. -1.
          1    1    1    2  502    0  0.32568151320E+02 -0.68588459686E+01  0.53453703703E+03  0.53557219140E+03  0.00000000000E+00 0. -1.
         22    1    3    3    0    0 -0.64107899151E+01  0.43534125093E+02 -0.33210733799E+02  0.55129584747E+02  0.00000000000E+00 0. -1.
         22    1    3    3    0    0 -0.21032318425E+02 -0.78203421906E+01  0.84274449128E+02  0.87210658443E+02  0.00000000000E+00 0. -1.
</event>
<event>
 7    1  0.6315518E-006  0.5807538E+02  0.7818608E-02  0.1453769E+00
          2   -1    0    0  502    0  0.00000000000E+00  0.00000000000E+00  0.56547473480E+03  0.56547473480E+03  0.00000000000E+00 0. -1.
          1   -1    0    0  501    0 -0.00000000000E+00 -0.00000000000E+00 -0.52104272372E+02  0.52104272372E+02  0.00000000000E+00 0. -1.
         25    2    1    2    0    0  0.15767849137E+01  0.61992857191E+02  0.23855380778E+03  0.27636604355E+03  0.12499868092E+03 0.  0.
          2    1    1    2  501    0  0.35915251935E+02 -0.46797115927E+02 -0.43309433633E+01  0.59149238803E+02  0.00000000000E+00 0. -1.
          1    1    1    2  502    0 -0.37492036848E+02 -0.15195741264E+02  0.27914759802E+03  0.28206372482E+03  0.00000000000E+00 0. -1.
         22    1    3    3    0    0  0.95199088847E+01 -0.73630300151E+01  0.19218243840E+03  0.19255890659E+03  0.00000000000E+00 0.  1.
         22    1    3    3    0    0 -0.79431239710E+01  0.69355887207E+02  0.46371369375E+02  0.83807136965E+02  0.00000000000E+00 0.  1.
</event>
<event>
 7    1  0.6315518E-006  0.1419460E+03  0.7818608E-02  0.1305093E+00
          2   -1    0    0  502    0  0.00000000000E+00  0.00000000000E+00  0.18296467150E+04  0.18296467150E+04  0.00000000000E+00 0. -1.
          1   -1    0    0  501    0 -0.00000000000E+00 -0.00000000000E+00 -0.21490582244E+04  0.21490582244E+04  0.00000000000E+00 0. -1.
         25    2    1    2    0    0 -0.17177683801E+03  0.63548637510E+02 -0.38315068077E+03  0.44269153015E+03  0.12500254109E+03 0.  0.
          2    1    1    2  501    0  0.11689756152E+03 -0.74204264929E+02 -0.17329410366E+04  0.17384636750E+04  0.00000000000E+00 0. -1.
          1    1    1    2  502    0  0.54879276489E+02  0.10655627419E+02  0.17966802080E+04  0.17975497343E+04  0.00000000000E+00 0. -1.
         22    1    3    3    0    0 -0.59938848781E+02  0.66574931505E+02 -0.26609309070E+03  0.28076755513E+03  0.00000000000E+00 0.  1.
         22    1    3    3    0    0 -0.11183798923E+03 -0.30262939947E+01 -0.11705759008E+03  0.16192397502E+03  0.00000000000E+00 0.  1.
</event>
<event>
 7    1  0.6315518E-006  0.1696865E+03  0.7818608E-02  0.1202283E+00
          2   -1    0    0  502    0  0.00000000000E+00  0.00000000000E+00  0.10853655146E+04  0.10853655146E+04  0.00000000000E+00 0. -1.
          1   -1    0    0  501    0 -0.00000000000E+00 -0.00000000000E+00 -0.82784009339E+03  0.82784009339E+03  0.00000000000E+00 0. -1.
         25    2    1    2    0    0 -0.21629130615E+03  0.17082081300E+03  0.16345313166E+03  0.34395328478E+03  0.12500102639E+03 0.  0.
          2    1    1    2  501    0  0.12425429951E+03 -0.38299977062E+02 -0.72391763204E+03  0.73550170439E+03  0.00000000000E+00 0. -1.
          1    1    1    2  502    0  0.92037006638E+02 -0.13252083593E+03  0.81798992154E+03  0.83375061877E+03  0.00000000000E+00 0. -1.
         22    1    3    3    0    0  0.13696844992E+02  0.61330346880E+01 -0.36045351225E+01  0.15434064619E+02  0.00000000000E+00 0. -1.
         22    1    3    3    0    0 -0.22998815114E+03  0.16468777831E+03  0.16705766678E+03  0.32851922017E+03  0.00000000000E+00 0. -1.
</event>
<event>
 7    1  0.6315518E-006  0.8305218E+02  0.7818608E-02  0.1358450E+00
          2   -1    0    0  502    0  0.00000000000E+00  0.00000000000E+00  0.72019839735E+03  0.72019839735E+03  0.00000000000E+00 0. -1.
          1   -1    0    0  501    0 -0.00000000000E+00 -0.00000000000E+00 -0.11115450242E+03  0.11115450242E+03  0.00000000000E+00 0. -1.
         25    2    1    2    0    0 -0.93968345462E+01 -0.82993422948E+02  0.89279183821E+02  0.17484820947E+03  0.12499965976E+03 0.  0.
          2    1    1    2  501    0  0.58153455887E+02  0.14023316922E+02 -0.51557654808E+02  0.78972587765E+02  0.00000000000E+00 0. -1.
          1    1    1    2  502    0 -0.48756621341E+02  0.68970106026E+02  0.57132236592E+03  0.57753210253E+03  0.00000000000E+00 0. -1.
         22    1    3    3    0    0 -0.21438439780E+02  0.85850594836E+01 -0.20849252664E+02  0.31112718994E+02  0.00000000000E+00 0. -1.
         22    1    3    3    0    0  0.12041605234E+02 -0.91578482431E+02  0.11012843648E+03  0.14373549048E+03  0.00000000000E+00 0. -1.
</event>
<event>
 7    1  0.6315518E-006  0.7247479E+02  0.7818608E-02  0.1486189E+00
          2   -1    0    0  502    0  0.00000000000E+00  0.00000000000E+00  0.84316909829E+02  0.84316909829E+02  0.00000000000E+00 0. -1.
          1   -1    0    0  501    0 -0.00000000000E+00 -0.00000000000E+00 -0.25287680213E+04  0.25287680213E+04  0.00000000000E+00 0. -1.
         25    2    1    2    0    0 -0.85221559205E+02  0.44294361044E+02 -0.49022551151E+02  0.16508466171E+03  0.12500012175E+03 0.  0.
          2    1    1    2  501    0  0.59793382873E+02 -0.40576424923E+02 -0.24147609841E+04  0.24158419454E+04  0.00000000000E+00 0. -1.
          1    1    1    2  502    0  0.25428176332E+02 -0.37179361210E+01  0.19332423710E+02  0.32158324071E+02  0.00000000000E+00 0. -1.
         22    1    3    3    0    0 -0.66537972406E+02 -0.16336614205E+02 -0.70302755705E+02  0.98166512596E+02  0.00000000000E+00 0. -1.
         22    1    3    3    0    0 -0.18683586798E+02  0.60630975249E+02  0.21280204554E+02  0.66918149116E+02  0.00000000000E+00 0. -1.
</event>
<event>
 7    1  0.6315518E-006  0.8764898E+02  0.7818608E-02  0.1490479E+00
          2   -1    0    0  502    0  0.00000000000E+00  0.00000000000E+00  0.17124739374E+03  0.17124739374E+03  0.00000000000E+00 0. -1.
          1   -1    0    0  501    0 -0.00000000000E+00 -0.00000000000E+00 -0.95931838998E+03  0.95931838998E+03  0.00000000000E+00 0. -1.
         25    2    1    2    0    0  0.42205673772E+02  0.70456284505E+02 -0.12710234026E+03  0.19627076196E+03  0.12498720006E+03 0.  0.
          2    1    1    2  501    0 -0.61506741005E+02 -0.63193246907E+02 -0.79439993768E+03  0.79927950470E+03  0.00000000000E+00 0. -1.
          1    1    1    2  502    0  0.19301067233E+02 -0.72630375980E+01  0.13343128169E+03  0.13501551706E+03  0.00000000000E+00 0. -1.
         22    1    3    3    0    0  0.82143267917E+02  0.42129627235E+02 -0.50143002855E+02  0.10505590269E+03  0.00000000000E+00 0. -1.
         22    1    3    3    0    0 -0.39937594145E+02  0.28326657270E+02 -0.76959337406E+02  0.91214859273E+02  0.00000000000E+00 0. -1.
</event>
<event>
 7    1  0.6315518E-006  0.4737902E+02  0.7818608E-02  0.1538555E+00
          2   -1    0    0  502    0  0.00000000000E+00  0.00000000000E+00  0.22164814406E+03  0.22164814406E+03  0.00000000000E+00 0. -1.
          1   -1    0    0  501    0 -0.00000000000E+00 -0.00000000000E+00 -0.16863338343E+04  0.16863338343E+04  0.00000000000E+00 0. -1.
         25    2    1    2    0    0 -0.24587689829E+01 -0.45956806059E+02 -0.89816475729E+03  0.90798834500E+03  0.12499931934E+03 0.  0.
          2    1    1    2  501    0  0.27054188113E+02  0.54304893453E+01 -0.78041830150E+03  0.78090597682E+03  0.00000000000E+00 0. -1.
          1    1    1    2  502    0 -0.24595419130E+02  0.40526316714E+02  0.21389736854E+03  0.21908765656E+03  0.00000000000E+00 0. -1.
         22    1    3    3    0    0 -0.67275343511E+00 -0.32422784064E+02 -0.89269196825E+03  0.89328082913E+03  0.00000000000E+00 0.  1.
         22    1    3    3    0    0 -0.17860155478E+01 -0.13534021995E+02 -0.54727890462E+01  0.14707515863E+02  0.00000000000E+00 0.  1.
</event>
<event>
 7    1  0.6315518E-006  0.5647085E+02  0.7818608E-02  0.1466599E+00
          2   -1    0    0  502    0  0.00000000000E+00  0.00000000000E+00  0.10372454220E+04  0.10372454220E+04  0.00000000000E+00 0. -1.
          1   -1    0    0  501    0 -0.00000000000E+00 -0.00000000000E+00 -0.11645761052E+03  0.11645761052E+03  0.00000000000E+00 0. -1.
         25    2    1    2    0    0 -0.43981149662E+02  0.40235918853E+02  0.20416483639E+03  0.24669833480E+03  0.12499406898E+03 0.  0.
          2    1    1    2  501    0  0.56631976277E+02 -0.45066805764E+01 -0.86227391833E+02  0.10326012788E+03  0.00000000000E+00 0. -1.
          1    1    1    2  502    0 -0.12650826615E+02 -0.35729238277E+02  0.80285036689E+03  0.80374456981E+03  0.00000000000E+00 0. -1.
         22    1    3    3    0    0 -0.85013014091E+02  0.24497380280E+02  0.16764573259E+03  0.18955850248E+03  0.00000000000E+00 0.  1.
         22    1    3    3    0    0  0.41031864429E+02  0.15738538574E+02  0.36519103796E+02  0.57139832315E+02  0.00000000000E+00 0.  1.
</event>
<event>
 7    1  0.6315518E-006  0.6879255E+02  0.7818608E-02  0.1484051E+00
          2   -1    0    0  502    0  0.00000000000E+00  0.00000000000E+00  0.45350743438E+03  0.45350743438E+03  0.00000000000E+00 0. -1.
          1   -1    0    0  501    0 -0.00000000000E+00 -0.00000000000E+00 -0.18720777161E+03  0.18720777161E+03  0.00000000000E+00 0. -1.
         25    2    1    2    0    0 -0.40778903229E+02  0.45772828795E+02  0.39752825643E+02  0.14478738591E+03  0.12500011667E+03 0.  0.
          2    1    1    2  501    0  0.22471355571E+02 -0.66270573023E+02 -0.12502898338E+03  0.14327943801E+03  0.00000000000E+00 0. -1.
          1    1    1    2  502    0  0.18307547658E+02  0.20497744228E+02  0.35157582051E+03  0.35264838208E+03  0.00000000000E+00 0. -1.
         22    1    3    3    0    0 -0.25057686321E+01  0.16469137906E+02 -0.44613082611E+02  0.47621828187E+02  0.00000000000E+00 0. -1.
         22    1    3    3    0    0 -0.38273134597E+02  0.29303690889E+02  0.84365908254E+02  0.97165557721E+02  0.00000000000E+00 0. -1.
</event>
<event>
 7    1  0.6315518E-006  0.1208907E+03  0.7818608E-02  0.1323466E+00
          2   -1    0    0  502    0  0.00000000000E+00  0.00000000000E+00  0.52525362228E+03  0.52525362228E+03  0.00000000000E+00 0. -1.
          1   -1    0    0  501    0 -0.00000000000E+00 -0.00000000000E+00 -0.28875463207E+03  0.28875463207E+03  0.00000000000E+00 0. -1.
         25    2    1    2    0    0  0.10243184783E+02 -0.12020196261E+03  0.14966775853E+03  0.22930068026E+03  0.12499971750E+03 0.  0.
          2    1    1    2  501    0  0.53770109372E+02  0.14235125283E+02 -0.23415688943E+03  0.24067262479E+03  0.00000000000E+00 0. -1.
          1    1    1    2  502    0 -0.64013294155E+02  0.10596683733E+03  0.32098812111E+03  0.34403494929E+03  0.00000000000E+00 0. -1.
         22    1    3    3    0    0 -0.26588572910E+01 -0.77693153112E+02  0.16492651009E+03  0.18232950747E+03  0.00000000000E+00 0.  1.
         22    1    3    3    0    0  0.12902042074E+02 -0.42508809501E+02 -0.15258751556E+02  0.46971172797E+02  0.00000000000E+00 0.  1.
</event>
<event>
 7    1  0.6315518E-006  0.7837962E+02  0.7818608E-02  0.1467474E+00
          2   -1    0    0  502    0  0.00000000000E+00  0.00000000000E+00  0.10496460798E+03  0.10496460798E+03  0.00000000000E+00 0. -1.
          1   -1    0    0  501    0 -0.00000000000E+00 -0.00000000000E+00 -0.19212944602E+04  0.19212944602E+04  0.00000000000E+00 0. -1.
         25    2    1    2    0    0  0.51878762358E+02 -0.23038524875E+02 -0.91488704048E+02  0.16497586411E+03  0.12499869262E+03 0.  0.
          2    1    1    2  501    0  0.27100080956E+02 -0.14091406187E+01 -0.17678712233E+04  0.17680794841E+04  0.00000000000E+00 0. -1.
          1    1    1    2  502    0 -0.78978843314E+02  0.24447665494E+02  0.43030075141E+02  0.93203719914E+02  0.00000000000E+00 0. -1.
         22    1    3    3    0    0  0.54695075663E+02 -0.18509330716E+02  0.13949255010E+02  0.59403100430E+02  0.00000000000E+00 0. -1.
         22    1    3    3    0    0 -0.28163133059E+01 -0.45291941588E+01 -0.10543795906E+03  0.10557276368E+03  0.00000000000E+00 0. -1.
</event>
<event>
 7    1  0.6315518E-006  0.1281189E+03  0.7818608E-02  0.1309295E+00
          2   -1    0    0  502    0  0.00000000000E+00  0.00000000000E+00  0.29550144056E+03  0.29550144056E+03  0.00000000000E+00 0. -1.
          1   -1    0    0  501    0 -0.00000000000E+00 -0.00000000000E+00 -0.63726552165E+03  0.63726552165E+03  0.00000000000E+00 0. -1.
         25    2    1    2    0    0 -0.34256560805E+02 -0.10815873721E+03  0.62317818752E+02  0.17994411397E+03  0.12499819689E+03 0.  0.
          2    1    1    2  501    0 -0.22004069103E+02  0.12785962256E+03 -0.56579163425E+03  0.58047604216E+03  0.00000000000E+00 0. -1.
          1    1    1    2  502    0  0.56260629909E+02 -0.19700885347E+02  0.16170973441E+03  0.17234680608E+03  0.00000000000E+00 0. -1.
         22    1    3    3    0    0 -0.31621620838E+02 -0.13041969100E+03  0.25142616424E+02  0.13653341667E+03  0.00000000000E+00 0.  1.
         22    1    3    3    0    0 -0.26349399669E+01  0.22260953792E+02  0.37175202328E+02  0.43410697305E+02  0.00000000000E+00 0.  1.
</event>
<event>
 7    1  0.6315518E-006  0.6774908E+02  0.7818608E-02  0.1407075E+00
          2   -1    0    0  502    0  0.00000000000E+00  0.00000000000E+00  0.37914452388E+02  0.37914452388E+02  0.00000000000E+00 0. -1.
          1   -1    0    0  501    0 -0.00000000000E+00 -0.00000000000E+00 -0.98406055777E+03  0.98406055777E+03  0.00000000000E+00 0. -1.
         25    2    1    2    0    0  0.44202991168E+02 -0.22462488694E+02 -0.21270799540E+03  0.25165220028E+03  0.12500268307E+03 0.  0.
          2    1    1    2  501    0 -0.67315711406E+02 -0.21197154645E+02 -0.71361114087E+03  0.71709245202E+03  0.00000000000E+00 0. -1.
          1    1    1    2  502    0  0.23112720238E+02  0.43659643339E+02 -0.19826969116E+02  0.53230357857E+02  0.00000000000E+00 0. -1.
         22    1    3    3    0    0 -0.33150491654E+02 -0.38508753434E+02 -0.11695764538E+03  0.12751850846E+03  0.00000000000E+00 0.  1.
         22    1    3    3    0    0  0.77353482822E+02  0.16046264739E+02 -0.95750350019E+02  0.12413369182E+03  0.00000000000E+00 0.  1.
</event>
<event>
 7    1  0.6315518E-006  0.8437833E+02  0.7818608E-02  0.1344994E+00
          2   -1    0    0  502    0  0.00000000000E+00  0.00000000000E+00  0.18581350474E+04  0.18581350474E+04  0.00000000000E+00 0. -1.
          1   -1    0    0  501    0 -0.00000000000E+00 -0.00000000000E+00 -0.47869302060E+03  0.47869302060E+03  0.00000000000E+00 0. -1.
         25    2    1    2    0    0 -0.22262233706E+02 -0.18466889260E+02  0.31750482019E+03  0.34244672334E+03  0.12499525764E+03 0.  0.
          2    1    1    2  501    0 -0.65978034065E+02 -0.24437115835E+01 -0.46253043897E+03  0.46721887770E+03  0.00000000000E+00 0. -1.
          1    1    1    2  502    0  0.88240267771E+02  0.20910600844E+02  0.15244676456E+04  0.15271624670E+04  0.00000000000E+00 0. -1.
         22    1    3    3    0    0  0.13926347060E+02  0.42746604140E+02  0.58050443695E+02  0.73423901566E+02  0.00000000000E+00 0.  1.
         22    1    3    3    0    0 -0.36188580766E+02 -0.61213493400E+02  0.25945437650E+03  0.26902282177E+03  0.00000000000E+00 0.  1.
</event>
<event>
 7    1  0.6315518E-006  0.1424002E+03  0.7818608E-02  0.1374088E+00
          2   -1    0    0  502    0  0.00000000000E+00  0.00000000000E+00  0.84659812158E+03  0.84659812158E+03  0.00000000000E+00 0. -1.
          1   -1    0    0  501    0 -0.00000000000E+00 -0.00000000000E+00 -0.15121532553E+04  0.15121532553E+04  0.00000000000E+00 0. -1.
         25    2    1    2    0    0 -0.77747433647E+02 -0.84582097452E+02 -0.12356732199E+03  0.20997969184E+03  0.12499517300E+03 0.  0.
          2    1    1    2  501    0 -0.99472863509E+01 -0.28970159376E+02 -0.13387976854E+04  0.13391480356E+04  0.00000000000E+00 0. -1.
          1    1    1    2  502    0  0.87694719998E+02  0.11355225683E+03  0.79680987370E+03  0.80962364947E+03  0.00000000000E+00 0. -1.
         22    1    3    3    0    0 -0.42010831364E+02 -0.11215077773E+03 -0.65721932359E+02  0.13660922110E+03  0.00000000000E+00 0. -1.
         22    1    3    3    0    0 -0.35736602283E+02  0.27568680275E+02 -0.57845389627E+02  0.73370470736E+02  0.00000000000E+00 0. -1.
</event>
<event>
 7    1  0.6315518E-006  0.7448912E+02  0.7818608E-02  0.1384651E+00
          2   -1    0    0  502    0  0.00000000000E+00  0.00000000000E+00  0.33929224467E+03  0.33929224467E+03  0.00000000000E+00 0. -1.
          1   -1    0    0  501    0 -0.00000000000E+00 -0.00000000000E+00 -0.66502836036E+03  0.66502836036E+03  0.00000000000E+00 0. -1.
         25    2    1    2    0    0  0.18638729462E+02 -0.33012616599E+02  0.54505241834E+00  0.13062892898E+03  0.12500553953E+03 0.  0.
          2    1    1    2  501    0  0.15332758586E+02  0.74624843980E+02 -0.59489796416E+03  0.59975624097E+03  0.00000000000E+00 0. -1.
          1    1    1    2  502    0 -0.33971488048E+02 -0.41612227382E+02  0.26861679606E+03  0.27393543508E+03  0.00000000000E+00 0. -1.
         22    1    3    3    0    0 -0.18445843723E+02  0.15445596470E+02 -0.47313853050E+02  0.53079339591E+02  0.00000000000E+00 0. -1.
         22    1    3    3    0    0  0.37084573185E+02 -0.48458213069E+02  0.47858905469E+02  0.77549589392E+02  0.00000000000E+00 0. -1.
</event>
<event>
 7    1  0.6315518E-006  0.4931131E+02  0.7818608E-02  0.1502852E+00
          2   -1    0    0  502    0  0.00000000000E+00  0.00000000000E+00  0.72093560649E+03  0.72093560649E+03  0.00000000000E+00 0. -1.
          1   -1    0    0  501    0 -0.00000000000E+00 -0.00000000000E+00 -0.57979836804E+02  0.57979836804E+02  0.00000000000E+00 0. -1.
         25    2    1    2    0    0  0.50771240478E+02 -0.13078686149E+02  0.25124277024E+03  0.28547541782E+03  0.12499805477E+03 0.  0.
          2    1    1    2  501    0 -0.30081437034E+02  0.39622488086E+02 -0.24831131214E+02  0.55600535011E+02  0.00000000000E+00 0. -1.
          1    1    1    2  502    0 -0.20689803444E+02 -0.26543801937E+02  0.43654413067E+03  0.43783949046E+03  0.00000000000E+00 0. -1.
         22    1    3    3    0    0 -0.71763349352E+01  0.48009633770E+02  0.65390267694E+02  0.81439006790E+02  0.00000000000E+00 0. -1.
         22    1    3    3    0    0  0.57947575414E+02 -0.61088319919E+02  0.18585250254E+03  0.20403641103E+03  0.00000000000E+00 0. -1.
</event>
<event>
 7    1  0.6315518E-006  0.5982565E+02  0.7818608E-02  0.1507829E+00
          2   -1    0    0  502    0  0.00000000000E+00  0.00000000000E+00  0.60190876050E+02  0.60190876050E+02  0.00000000000E+00 0. -1.
          1   -1    0    0  501    0 -0.00000000000E+00 -0.00000000000E+00 -0.18377999343E+04  0.18377999343E+04  0.00000000000E+00 0. -1.
         25    2    1    2    0    0  0.37371043949E+02 -0.12640398031E+02 -0.14458333880E+03  0.19515209439E+03  0.12499449387E+03 0.  0.
          2    1    1    2  501    0 -0.47159750324E+02  0.37603892895E+02 -0.16621537868E+04  0.16632478185E+04  0.00000000000E+00 0. -1.
          1    1    1    2  502    0  0.97887063749E+01 -0.24963494864E+02  0.29128067387E+02  0.39590897414E+02  0.00000000000E+00 0. -1.
         22    1    3    3    0    0 -0.13636665704E+01  0.28516579921E+01  0.22611405600E+02  0.22831276859E+02  0.00000000000E+00 0.  1.
         22    1    3    3    0    0  0.38734710519E+02 -0.15492056023E+02 -0.16719474440E+03  0.17232081753E+03  0.00000000000E+00 0.  1.
</event>
<event>
 7    1  0.6315518E-006  0.1013261E+03  0.7818608E-02  0.1335145E+00
          2   -1    0    0  502    0  0.00000000000E+00  0.00000000000E+00  0.16501928411E+04  0.16501928411E+04  0.00000000000E+00 0. -1.
          1   -1    0    0  501    0 -0.00000000000E+00 -0.00000000000E+00 -0.12609600052E+04  0.12609600052E+04  0.00000000000E+00 0. -1.
         25    2    1    2    0    0  0.10161203416E+03 -0.11565163379E+03  0.76880403899E+02  0.21268030389E+03  0.12498803652E+03 0.  0.
          2    1    1    2  501    0 -0.48398803352E+02  0.88201121881E+02 -0.11903417811E+04  0.11945858855E+04  0.00000000000E+00 0. -1.
          1    1    1    2  502    0 -0.53213230811E+02  0.27450511908E+02  0.15026942131E+04  0.15038866568E+04  0.00000000000E+00 0. -1.
         22    1    3    3    0    0  0.31344590194E+02 -0.27682916930E+01 -0.28934926101E+02  0.42747827101E+02  0.00000000000E+00 0.  1.
         22    1    3    3    0    0  0.70267443968E+02 -0.11288334210E+03  0.10581533000E+03  0.16993247679E+03  0.00000000000E+00 0.  1.
</event>
<event>
 7    1  0.6315518E-006  0.9796052E+02  0.7818608E-02  0.1478489E+00
          2   -1    0    0  502    0  0.00000000000E+00  0.00000000000E+00  0.10396437551E+03  0.10396437551E+03  0.00000000000E+00 0. -1.
          1   -1    0    0  501    0 -0.00000000000E+00 -0.00000000000E+00 -0.31750799769E+03  0.31750799769E+03  0.00000000000E+00 0. -1.
         25    2    1    2    0    0 -0.70459412502E+02  0.59851474446E+02 -0.15304496590E+03  0.21816471451E+03  0.12500541294E+03 0.  0.
          2    1    1    2  501    0  0.88534891665E+01  0.18013737713E+02 -0.95837904458E+02  0.97917224980E+02  0.00000000000E+00 0. -1.
          1    1    1    2  502    0  0.61605923335E+02 -0.77865212160E+02  0.35339248182E+02  0.10539043371E+03  0.00000000000E+00 0. -1.
         22    1    3    3    0    0 -0.61052856141E+01 -0.21919955907E+02  0.99107205634E+01  0.24818971806E+02  0.00000000000E+00 0. -1.
         22    1    3    3    0    0 -0.64354126887E+02  0.81771430354E+02 -0.16295568647E+03  0.19334574270E+03  0.00000000000E+00 0. -1.
</event>
<event>
 7    1  0.6315518E-006  0.3968494E+02  0.7818608E-02  0.1555707E+00
          2   -1    0    0  502    0  0.00000000000E+00  0.00000000000E+00  0.73361624786E+03  0.73361624786E+03  0.00000000000E+00 0. -1.
          1   -1    0    0  501    0 -0.00000000000E+00 -0.00000000000E+00 -0.30156035511E+03  0.30156035511E+03  0.00000000000E+00 0. -1.
         25    2    1    2    0    0  0.10037741583E+02 -0.11969734627E+02  0.46348640521E+02  0.13422959555E+03  0.12500142816E+03 0.  0.
          2    1    1    2  501    0 -0.89884047371E+01 -0.28091718936E+02 -0.25614869006E+03  0.25784120600E+03  0.00000000000E+00 0. -1.
          1    1    1    2  502    0 -0.10493368460E+01  0.40061453563E+02  0.64185594228E+03  0.64310580142E+03  0.00000000000E+00 0. -1.
         22    1    3    3    0    0 -0.10939411113E+02  0.54684462928E+02  0.25399754454E+02  0.61279757894E+02  0.00000000000E+00 0. -1.
         22    1    3    3    0    0  0.20977152697E+02 -0.66654197555E+02  0.20948886067E+02  0.72949837658E+02  0.00000000000E+00 0. -1.
</event>
<event>
 7    1  0.6315518E-006  0.8225758E+02  0.7818608E-02  0.1326893E+00
          2   -1    0    0  502    0  0.00000000000E+00  0.00000000000E+00  0.14674277289E+04  0.14674277289E+04  0.00000000000E+00 0. -1.
          1   -1    0    0  501    0 -0.00000000000E+00 -0.00000000000E+00 -0.17890496842E+04  0.17890496842E+04  0.00000000000E+00 0. -1.
         25    2    1    2    0    0  0.11845675466E+03  0.10162416451E+03 -0.34351859375E+02  0.20288979260E+03  0.12499897664E+03 0.  0.
          2    1    1    2  501    0 -0.72576761733E+02 -0.36943394913E+02 -0.16682981425E+04  0.16702846743E+04  0.00000000000E+00 0. -1.
          1    1    1    2  502    0 -0.45879992928E+02 -0.64680769598E+02  0.13810280466E+04  0.13833029463E+04  0.00000000000E+00 0. -1.
         22    1    3    3    0    0 -0.14291203290E+02  0.36010212273E+02 -0.38683035337E+02  0.54748069394E+02  0.00000000000E+00 0.  1.
         22    1    3    3    0    0  0.13274795795E+03  0.65613952237E+02  0.43311759627E+01  0.14814172320E+03  0.00000000000E+00 0.  1.
</event>
<event>
 7    1  0.6315518E-006  0.4624130E+02  0.7818608E-02  0.1505067E+00
          2   -1    0    0  502    0  0.00000000000E+00  0.00000000000E+00  0.21445463970E+04  0.21445463970E+04  0.00000000000E+00 0. -1.
          1   -1    0    0  501    0 -0.00000000000E+00 -0.00000000000E+00 -0.34191691437E+03  0.34191691437E+03  0.00000000000E+00 0. -1.
         25    2    1    2    0    0 -0.64844749481E+02 -0.45680182652E+02 -0.51002394802E+02  0.15658079498E+03  0.12499912183E+03 0.  0.
          2    1    1    2  501    0  0.39948889993E+02  0.20584045653E+02 -0.23585415560E+03  0.24009747908E+03  0.00000000000E+00 0. -1.
          1    1    1    2  502    0  0.24895859488E+02  0.25096136999E+02  0.20894860330E+04  0.20897850373E+04  0.00000000000E+00 0. -1.
         22    1    3    3    0    0  0.15683948991E+01 -0.70401148406E+02 -0.20434121071E+01  0.70448258265E+02  0.00000000000E+00 0.  1.
         22    1    3    3    0    0 -0.66413144380E+02  0.24720965754E+02 -0.48958982695E+02  0.86132536714E+02  0.00000000000E+00 0.  1.
</event>
<event>
 7    1  0.6315518E-006  0.1040082E+03  0.7818608E-02  0.1289143E+00
          2   -1    0    0  502    0  0.00000000000E+00  0.00000000000E+00  0.25772896937E+04  0.25772896937E+04  0.00000000000E+00 0. -1.
          1   -1    0    0  501    0 -0.00000000000E+00 -0.00000000000E+00 -0.51855782719E+03  0.51855782719E+03  0.00000000000E+00 0. -1.
         25    2    1    2    0    0 -0.14109943155E+02  0.97841298862E+01  0.31706779111E+03  0.34125046450E+03  0.12500030266E+03 0.  0.
          2    1    1    2  501    0  0.78810611909E+02 -0.70078164081E+02 -0.50009507798E+03  0.51109407025E+03  0.00000000000E+00 0. -1.
          1    1    1    2  502    0 -0.64700668754E+02  0.60294034195E+02  0.22417591533E+04  0.22435029861E+04  0.00000000000E+00 0. -1.
         22    1    3    3    0    0  0.13654402754E+02 -0.31622420437E+02  0.19592829415E+02  0.39627000308E+02  0.00000000000E+00 0. -1.
         22    1    3    3    0    0 -0.27764345909E+02  0.41406550324E+02  0.29747496170E+03  0.30162346419E+03  0.00000000000E+00 0. -1.
</event>
<event>
 7    1  0.6315518E-006  0.8526738E+02  0.7818608E-02  0.1350228E+00
          2   -1    0    0  502    0  0.00000000000E+00  0.00000000000E+00  0.14137877176E+04  0.14137877176E+04  0.00000000000E+00 0. -1.
          1   -1    0    0  501    0 -0.00000000000E+00 -0.00000000000E+00 -0.41045135798E+03  0.41045135798E+03  0.00000000000E+00 0. -1.
         25    2    1    2    0    0  0.11055174516E+03 -0.70813057216E+02 -0.17748305134E+02  0.18214726224E+03  0.12500578137E+03 0.  0.
          2    1    1    2  501    0 -0.62463550238E+02  0.98977915766E+00 -0.30599493357E+03  0.31230685894E+03  0.00000000000E+00 0. -1.
          1    1    1    2  502    0 -0.48088194922E+02  0.69823278058E+02  0.13270795983E+04  0.13297849544E+04  0.00000000000E+00 0. -1.
         22    1    3    3    0    0  0.13702619707E+03 -0.46920103829E+02 -0.20941000758E+02  0.14634274953E+03  0.00000000000E+00 0. -1.
         22    1    3    3    0    0 -0.26474451908E+02 -0.23892953386E+02  0.31926956240E+01  0.35804512714E+02  0.00000000000E+00 0. -1.
</event>
<event>
 7    1  0.6315518E-006  0.1107485E+03  0.7818608E-02  0.1315449E+00
          2   -1    0    0  502    0  0.00000000000E+00  0.00000000000E+00  0.10980455401E+04  0.10980455401E+04  0.00000000000E+00 0. -1.
          1   -1    0    0  501    0 -0.00000000000E+00 -0.00000000000E+00 -0.57787390998E+03  0.57787390998E+03  0.00000000000E+00 0. -1.
         25    2    1    2    0    0 -0.84074790654E+02 -0.14738762703E+03  0.20332719041E+03  0.29284726882E+03  0.12500357383E+03 0.  0.
          2    1    1    2  501    0  0.42658417436E+02  0.49345615164E+02 -0.52776638155E+03  0.53178198899E+03  0.00000000000E+00 0. -1.
          1    1    1    2  502    0  0.41416373217E+02  0.98042011868E+02  0.84461082122E+03  0.85129019223E+03  0.00000000000E+00 0. -1.
         22    1    3    3    0    0  0.21076328367E+01 -0.53172670155E+02  0.14110714605E+03  0.15080783015E+03  0.00000000000E+00 0.  1.
         22    1    3    3    0    0 -0.86182423491E+02 -0.94214956877E+02  0.62220044358E+02  0.14203943867E+03  0.00000000000E+00 0.  1.
</event>
<event>
 7    1  0.6315518E-006  0.6599250E+02  0.7818608E-02  0.1492173E+00
          2   -1    0    0  502    0  0.00000000000E+00  0.00000000000E+00  0.27563075352E+03  0.27563075352E+03  0.00000000000E+00 0. -1.
          1   -1    0    0  501    0 -0.00000000000E+00 -0.00000000000E+00 -0.19552781859E+03  0.19552781859E+03  0.00000000000E+00 0. -1.
         25    2    1    2    0    0 -0.86650400759E+02 -0.79173868870E+01  0.16086542272E+02  0.15314546582E+03  0.12499511947E+03 0.  0.
          2    1    1    2  501    0  0.63770185839E+02 -0.65475867231E+01 -0.11784257822E+03  0.13415058977E+03  0.00000000000E+00 0. -1.
          1    1    1    2  502    0  0.22880214920E+02  0.14464973610E+02  0.18185897088E+03  0.18386251653E+03  0.00000000000E+00 0. -1.
         22    1    3    3    0    0 -0.89842209908E+02  0.15106085872E+02 -0.34545475618E+02  0.97433086768E+02  0.00000000000E+00 0. -1.
         22    1    3    3    0    0  0.31918091494E+01 -0.23023472759E+02  0.50632017890E+02  0.55712379048E+02  0.00000000000E+00 0. -1.
</event>
<event>
 7    1  0.6315518E-006  0.4940095E+02  0.7818608E-02  0.1449225E+00
          2   -1    0    0  502    0  0.00000000000E+00  0.00000000000E+00  0.16394956568E+04  0.16394956568E+04  0.00000000000E+00 0. -1.
          1   -1    0    0  501    0 -0.00000000000E+00 -0.00000000000E+00 -0.12556211015E+03  0.12556211015E+03  0.00000000000E+00 0. -1.
         25    2    1    2    0    0 -0.23970155059E+02 -0.89305981452E+01  0.41350390781E+02  0.13411771813E+03  0.12499353416E+03 0.  0.
          2    1    1    2  501    0  0.37009020697E+02 -0.38482921275E+02 -0.69741267097E+02  0.87831925739E+02  0.00000000000E+00 0. -1.
          1    1    1    2  502    0 -0.13038865638E+02  0.47413519420E+02  0.15423244230E+04  0.15431081231E+04  0.00000000000E+00 0. -1.
         22    1    3    3    0    0  0.48187479551E+01  0.52357059622E+02  0.40553078972E+02  0.66400559020E+02  0.00000000000E+00 0. -1.
         22    1    3    3    0    0 -0.28788903015E+02 -0.61287657767E+02  0.79731180859E+00  0.67717159106E+02  0.00000000000E+00 0. -1.
</event>
<event>
 7    1  0.6315518E-006  0.1537244E+03  0.7818608E-02  0.1218281E+00
          2   -1    0    0  502    0  0.00000000000E+00  0.00000000000E+00  0.73425473546E+03  0.73425473546E+03  0.00000000000E+00 0. -1.
          1   -1    0    0  501    0 -0.00000000000E+00 -0.00000000000E+00 -0.15606696140E+04  0.15606696140E+04  0.00000000000E+00 0. -1.
         25    2    1    2    0    0  0.67846269378E+02  0.25502290576E+03 -0.12355674847E+03  0.31706636013E+03  0.12500003161E+03 0.  0.
          2    1    1    2  501    0 -0.15950927300E+01 -0.12098607837E+03 -0.13288046917E+04  0.13343020963E+04  0.00000000000E+00 0. -1.
          1    1    1    2  502    0 -0.66251176648E+02 -0.13403682739E+03  0.62594656161E+03  0.64355589306E+03  0.00000000000E+00 0. -1.
         22    1    3    3    0    0  0.16958888128E+02  0.22516798068E+03 -0.67488675507E+02  0.23567550728E+03  0.00000000000E+00 0.  1.
         22    1    3    3    0    0  0.50887381251E+02  0.29854925084E+02 -0.56068072964E+02  0.81390852854E+02  0.00000000000E+00 0.  1.
</event>
<event>
 7    1  0.6315518E-006  0.5704220E+02  0.7818608E-02  0.1440539E+00
          2   -1    0    0  502    0  0.00000000000E+00  0.00000000000E+00  0.21027421947E+03  0.21027421947E+03  0.00000000000E+00 0. -1.
          1   -1    0    0  501    0 -0.00000000000E+00 -0.00000000000E+00 -0.91166523832E+02  0.91166523832E+02  0.00000000000E+00 0. -1.
         25    2    1    2    0    0 -0.36619756814E+01 -0.84779463011E+01  0.80155373956E+02  0.14877533411E+03  0.12499572163E+03 0.  0.
          2    1    1    2  501    0  0.47734043454E+02 -0.31229369982E+02 -0.27721728789E+02  0.63421657980E+02  0.00000000000E+00 0. -1.
          1    1    1    2  502    0 -0.44072067773E+02  0.39707316283E+02  0.66674050471E+02  0.89243751212E+02  0.00000000000E+00 0. -1.
         22    1    3    3    0    0  0.41739383477E+02  0.30668598374E+02  0.71374880246E+02  0.88187939025E+02  0.00000000000E+00 0.  1.
         22    1    3    3    0    0 -0.45401359158E+02 -0.39146544675E+02  0.87804937097E+01  0.60587395085E+02  0.00000000000E+00 0.  1.
</event>
<event>
 7    1  0.6315518E-006  0.5187930E+02  0.7818608E-02  0.1553957E+00
          2   -1    0    0  502    0  0.00000000000E+00  0.00000000000E+00  0.57288115444E+03  0.57288115444E+03  0.00000000000E+00 0. -1.
          1   -1    0    0  501    0 -0.00000000000E+00 -0.00000000000E+00 -0.50533813433E+03  0.50533813433E+03  0.00000000000E+00 0. -1.
         25    2    1    2    0    0  0.62064290663E+02 -0.19888791502E+02  0.24000595520E+03  0.27834719224E+03  0.12500704256E+03 0.  0.
          2    1    1    2  501    0 -0.11318744403E+02  0.19809596497E+02 -0.48384476507E+03  0.48438238074E+03  0.00000000000E+00 0. -1.
          1    1    1    2  502    0 -0.50745546261E+02  0.79195004721E-01  0.31138182998E+03  0.31548971580E+03  0.00000000000E+00 0. -1.
         22    1    3    3    0    0  0.57928653874E+02  0.45367769392E+02  0.15025002265E+03  0.16729923116E+03  0.00000000000E+00 0.  1.
         22    1    3    3    0    0  0.41356367899E+01 -0.65256560894E+02  0.89755932555E+02  0.11104796108E+03  0.00000000000E+00 0.  1.
</event>
<event>
 7    1  0.6315518E-006  0.7540904E+02  0.7818608E-02  0.1412713E+00
          2   -1    0    0  502    0  0.00000000000E+00  0.00000000000E+00  0.10160579375E+04  0.10160579375E+04  0.00000000000E+00 0. -1.
          1   -1    0    0  501    0 -0.00000000000E+00 -0.00000000000E+00 -0.17736515447E+03  0.17736515447E+03  0.00000000000E+00 0. -1.
         25    2    1    2    0    0 -0.70142461844E+02 -0.77804712357E+02  0.15872897241E+03  0.22758108584E+03  0.12499890291E+03 0.  0.
          2    1    1    2  501    0  0.28717712771E+02  0.68433310634E+02 -0.13271388757E+03  0.15205525635E+03  0.00000000000E+00 0. -1.
          1    1    1    2  502    0  0.41424749073E+02  0.93714017231E+01  0.81267769819E+03  0.81378674979E+03  0.00000000000E+00 0. -1.
         22    1    3    3    0    0 -0.44699050558E+02 -0.63366897113E+02  0.12612575052E+02  0.78564914688E+02  0.00000000000E+00 0. -1.
         22    1    3    3    0    0 -0.25443411287E+02 -0.14437815244E+02  0.14611639736E+03  0.14901617115E+03  0.00000000000E+00 0. -1.
</event>
<event>
 7    1  0.6315518E-006  0.1333785E+03  0.7818608E-02  0.1311647E+00
          2   -1    0    0  502    0  0.00000000000E+00  0.00000000000E+00  0.95177232297E+03  0.95177232297E+03  0.00000000000E+00 0. -1.
          1   -1    0    0  501    0 -0.00000000000E+00 -0.00000000000E+00 -0.20596871813E+04  0.20596871813E+04  0.00000000000E+00 0. -1.
         25    2    1    2    0    0  0.88678577095E+01  0.91128097346E+02 -0.61055980578E+02  0.16654145447E+03  0.12500101706E+03 0.  0.
          2    1    1    2  501    0 -0.54166596742E+02 -0.12414026151E+03 -0.19426545765E+04  0.19473704394E+04  0.00000000000E+00 0. -1.
          1    1    1    2  502    0  0.45298739032E+02  0.33012164159E+02  0.89579569882E+03  0.89754761031E+03  0.00000000000E+00 0. -1.
         22    1    3    3    0    0 -0.35923218367E+02  0.73799946386E+02 -0.80278840016E+02  0.11481115738E+03  0.00000000000E+00 0. -1.
         22    1    3    3    0    0  0.44791076076E+02  0.17328150960E+02  0.19222859438E+02  0.51730297087E+02  0.00000000000E+00 0. -1.
</event>
<event>
 7    1  0.6315518E-006  0.8086511E+02  0.7818608E-02  0.1423326E+00
          2   -1    0    0  502    0  0.00000000000E+00  0.00000000000E+00  0.67312314052E+03  0.67312314052E+03  0.00000000000E+00 0. -1.
          1   -1    0    0  501    0 -0.00000000000E+00 -0.00000000000E+00 -0.61860215731E+03  0.61860215731E+03  0.00000000000E+00 0. -1.
         25    2    1    2    0    0 -0.83052747735E+00  0.11012556154E+03 -0.28844349159E+03  0.33309505021E+03  0.12499734220E+03 0.  0.
          2    1    1    2  501    0 -0.18052826221E+02 -0.31715045951E+02 -0.30423949785E+03  0.30642033341E+03  0.00000000000E+00 0. -1.
          1    1    1    2  502    0  0.18883353698E+02 -0.78410515589E+02  0.64720397264E+03  0.65220991422E+03  0.00000000000E+00 0. -1.
         22    1    3    3    0    0  0.24735618659E+02  0.83797233979E+02 -0.28276945127E+03  0.29596011526E+03  0.00000000000E+00 0.  1.
         22    1    3    3    0    0 -0.25566146136E+02  0.26328327561E+02 -0.56740403150E+01  0.37134934952E+02  0.00000000000E+00 0.  1.
</event>
<event>
 7    1  0.6315518E-006  0.7599856E+02  0.7818608E-02  0.1450675E+00
          2   -1    0    0  502    0  0.00000000000E+00  0.00000000000E+00  0.20446210261E+04  0.20446210261E+04  0.00000000000E+00 0. -1.
          1   -1    0    0  501    0 -0.00000000000E+00 -0.00000000000E+00 -0.16279213157E+02  0.16279213157E+02  0.00000000000E+00 0. -1.
         25    2    1    2    0    0  0.54987441218E+02 -0.32366844400E+02  0.12954707776E+04  0.13030509534E+04  0.12500408159E+03 0.  0.
          2    1    1    2  501    0 -0.45854529732E+02  0.62643858273E+02  0.11257728993E+03  0.13674990707E+03  0.00000000000E+00 0. -1.
          1    1    1    2  502    0 -0.91329114864E+01 -0.30277013873E+02  0.62029374549E+03  0.62109937879E+03  0.00000000000E+00 0. -1.
         22    1    3    3    0    0  0.12791155845E+02 -0.74590891857E+01  0.13176977714E+02  0.19821312293E+02  0.00000000000E+00 0.  1.
         22    1    3    3    0    0  0.42196285373E+02 -0.24907755214E+02  0.12822937998E+04  0.12832296411E+04  0.00000000000E+00 0.  1.
</event>
<event>
 7    1  0.6315518E-006  0.5175520E+02  0.7818608E-02  0.1438481E+00
          2   -1    0    0  502    0  0.00000000000E+00  0.00000000000E+00  0.15443784532E+04  0.15443784532E+04  0.00000000000E+00 0. -1.
          1   -1    0    0  501    0 -0.00000000000E+00 -0.00000000000E+00 -0.58463799217E+03  0.58463799217E+03  0.00000000000E+00 0. -1.
         25    2    1    2    0    0  0.59271634804E+01  0.47846793705E+01  0.39984781521E+03  0.41900030889E+03  0.12499983640E+03 0.  0.
          2    1    1    2  501    0  0.47438419671E+02 -0.18278703843E+02 -0.57326877293E+03  0.57551854939E+03  0.00000000000E+00 0. -1.
          1    1    1    2  502    0 -0.53365583151E+02  0.13494024473E+02  0.11331614188E+04  0.11344975871E+04  0.00000000000E+00 0. -1.
         22    1    3    3    0    0 -0.29547785553E+02  0.55448434721E+02  0.22114664949E+03  0.22989876277E+03  0.00000000000E+00 0. -1.
         22    1    3    3    0    0  0.35474949033E+02 -0.50663755350E+02  0.17870116573E+03  0.18910154613E+03  0.00000000000E+00 0. -1.
</event>
<event>
 7    1  0.6315518E-006  0.4738769E+02  0.7818608E-02  0.1526436E+00
          2   -1    0    0  502    0  0.00000000000E+00  0.00000000000E+00  0.30420723812E+03  0.30420723812E+03  0.00000000000E+00 0. -1.
          1   -1    0    0  501    0 -0.00000000000E+00 -0.00000000000E+00 -0.17715968862E+03  0.17715968862E+03  0.00000000000E+00 0. -1.
         25    2    1    2    0    0 -0.12730144292E+02  0.51199467689E+02  0.45819792632E+02  0.14319905275E+03  0.12499229275E+03 0.  0.
          2    1    1    2  501    0  0.35399013145E+02 -0.31737639668E+02 -0.12294669074E+03  0.13181902999E+03  0.00000000000E+00 0. -1.
          1    1    1    2  502    0 -0.22668868854E+02 -0.19461828021E+02  0.20417444761E+03  0.20634884400E+03  0.00000000000E+00 0. -1.
         22    1    3    3    0    0 -0.49464556555E+02  0.35539231870E+02  0.72865363697E+02  0.94969155960E+02  0.00000000000E+00 0.  1.
         22    1    3    3    0    0  0.36734412263E+02  0.15660235819E+02 -0.27045571065E+02  0.48229896791E+02  0.00000000000E+00 0.  1.
</event>
<event>
 7    1  0.6315518E-006  0.6396839E+02  0.7818608E-02  0.1403001E+00
          2   -1    0    0  502    0  0.00000000000E+00  0.00000000000E+00  0.22120601940E+04  0.22120601940E+04  0.00000000000E+00 0. -1.
          1   -1    0    0  501    0 -0.00000000000E+00 -0.00000000000E+00 -0.16825286204E+03  0.16825286204E+03  0.00000000000E+00 0. -1.
         25    2    1    2    0    0 -0.98781779749E+02 -0.50911826207E+02  0.69752211974E+03  0.71729104199E+03  0.12497790742E+03 0.  0.
          2    1    1    2  501    0  0.39142714783E+02  0.37232293911E+02 -0.15311922488E+03  0.16236961803E+03  0.00000000000E+00 0. -1.
          1    1    1    2  502    0  0.59639064966E+02  0.13679532296E+02  0.14994044371E+04  0.15006523960E+04  0.00000000000E+00 0. -1.
         22    1    3    3    0    0  0.76280506873E+01  0.31642070231E+02  0.13942961027E+03  0.14317829440E+03  0.00000000000E+00 0. -1.
         22    1    3    3    0    0 -0.10640983044E+03 -0.82553896439E+02  0.55809250946E+03  0.57411274759E+03  0.00000000000E+00 0. -1.
</event>
<event>
 7    1  0.6315518E-006  0.1804404E+03  0.7818608E-02  0.1223164E+00
          2   -1    0    0  502    0  0.00000000000E+00  0.00000000000E+00  0.11362517650E+04  0.11362517650E+04  0.00000000000E+00 0. -1.
          1   -1    0    0  501    0 -0.00000000000E+00 -0.00000000000E+00 -0.45952150966E+03  0.45952150966E+03  0.00000000000E+00 0. -1.
         25    2    1    2    0    0 -0.27289235202E+03 -0.22201355190E+02  0.36186424939E+03  0.47067361347E+03  0.12499911786E+03 0.  0.
          2    1    1    2  501    0  0.17590916906E+03  0.85636981097E+01 -0.38239045097E+03  0.42099861007E+03  0.00000000000E+00 0. -1.
          1    1    1    2  502    0  0.96983182962E+02  0.13637657080E+02  0.69725645691E+03  0.70410105111E+03  0.00000000000E+00 0. -1.
         22    1    3    3    0    0 -0.17217156603E+02  0.29985120526E+02  0.76710847749E+02  0.84143283136E+02  0.00000000000E+00 0.  1.
         22    1    3    3    0    0 -0.25567519542E+03 -0.52186475715E+02  0.28515340164E+03  0.38653033034E+03  0.00000000000E+00 0.  1.
</event>
<event>
 7    1  0.6315518E-006  0.1262496E+03  0.7818608E-02  0.1320543E+00
          2   -1    0    0  502    0  0.00000000000E+00  0.00000000000E+00  0.15912917987E+04  0.15912917987E+04  0.00000000000E+00 0. -1.
          1   -1    0    0  501    0 -0.00000000000E+00 -0.00000000000E+00 -0.90276460009E+03  0.90276460009E+03  0.00000000000E+00 0. -1.
         25    2    1    2    0    0  0.15520871667E+03  0.50888594863E+02 -0.73448328871E+03  0.76273864317E+03  0.12500056631E+03 0.  0.
          2    1    1    2  501    0 -0.29148482100E+02 -0.46246392565E+02 -0.14669608489E+03  0.15655064406E+03  0.00000000000E+00 0. -1.
          1    1    1    2  502    0 -0.12606023457E+03 -0.46422022980E+01  0.15697065723E+04  0.15747671116E+04  0.00000000000E+00 0. -1.
         22    1    3    3    0    0 -0.11283429492E+02  0.26498190313E+02 -0.48391163599E+02  0.56313183052E+02  0.00000000000E+00 0.  1.
         22    1    3    3    0    0  0.16649214617E+03  0.24390404549E+02 -0.68609212511E+03  0.70642546012E+03  0.00000000000E+00 0.  1.
</event>
<event>
 7    1  0.6315518E-006  0.9428776E+02  0.7818608E-02  0.1420255E+00
          2   -1    0    0  502    0  0.00000000000E+00  0.00000000000E+00  0.39488214621E+03  0.39488214621E+03  0.00000000000E+00 0. -1.
          1   -1    0    0  501    0 -0.00000000000E+00 -0.00000000000E+00 -0.20403793752E+03  0.20403793752E+03  0.00000000000E+00 0. -1.
         25    2    1    2    0    0  0.37472359550E+02 -0.88702756020E+02  0.40351435244E+02  0.16286723377E+03  0.12500056341E+03 0.  0.
          2    1    1    2  501    0 -0.59599619439E+01  0.94516885075E+02 -0.12604826415E+03  0.15766143348E+03  0.00000000000E+00 0. -1.
          1    1    1    2  502    0 -0.31512397606E+02 -0.58141290548E+01  0.27654103759E+03  0.27839141648E+03  0.00000000000E+00 0. -1.
         22    1    3    3    0    0 -0.58827223190E+01 -0.53516316487E+02  0.78539096138E+02  0.95220754956E+02  0.00000000000E+00 0.  1.
         22    1    3    3    0    0  0.43355081869E+02 -0.35186439533E+02 -0.38187660894E+02  0.67646478810E+02  0.00000000000E+00 0.  1.
</event>
<event>
 7    1  0.6315518E-006  0.6520342E+02  0.7818608E-02  0.1382188E+00
          2   -1    0    0  502    0  0.00000000000E+00  0.00000000000E+00  0.42733476601E+03  0.42733476601E+03  0.00000000000E+00 0. -1.
          1   -1    0    0  501    0 -0.00000000000E+00 -0.00000000000E+00 -0.38626181628E+04  0.38626181628E+04  0.00000000000E+00 0. -1.
         25    2    1    2    0    0 -0.82603521994E+01 -0.37222491206E+01 -0.12586504931E+04  0.12648752051E+04  0.12500452814E+03 0.  0.
          2    1    1    2  501    0  0.11629852200E+02 -0.61517724397E+02 -0.25979609833E+04  0.25987152508E+04  0.00000000000E+00 0. -1.
          1    1    1    2  502    0 -0.33695000008E+01  0.65239973518E+02  0.42132807962E+03  0.42636247296E+03  0.00000000000E+00 0. -1.
         22    1    3    3    0    0  0.38674496558E+02 -0.34361949648E+02 -0.93323153644E+03  0.93466441083E+03  0.00000000000E+00 0. -1.
         22    1    3    3    0    0 -0.46934848757E+02  0.30639700527E+02 -0.32541895668E+03  0.33021079426E+03  0.00000000000E+00 0. -1.
</event>
<event>
 7    1  0.6315518E-006  0.1101166E+03  0.7818608E-02  0.1323534E+00
          2   -1    0    0  502    0  0.00000000000E+00  0.00000000000E+00  0.19262765631E+04  0.19262765631E+04  0.00000000000E+00 0. -1.
          1   -1    0    0  501    0 -0.00000000000E+00 -0.00000000000E+00 -0.38918811783E+03  0.38918811783E+03  0.00000000000E+00 0. -1.
         25    2    1    2    0    0  0.16072023053E+02  0.79348189925E+02  0.12516698579E+03  0.19454113237E+03  0.12500013073E+03 0.  0.
          2    1    1    2  501    0  0.60986780964E+02  0.22399372762E+01 -0.35007605880E+03  0.35535566932E+03  0.00000000000E+00 0. -1.
          1    1    1    2  502    0 -0.77058804018E+02 -0.81588127202E+02  0.17619975183E+04  0.17655678793E+04  0.00000000000E+00 0. -1.
         22    1    3    3    0    0  0.13726786682E+02 -0.18192826538E+02 -0.12354352079E+02  0.25923611348E+02  0.00000000000E+00 0. -1.
         22    1    3    3    0    0  0.23452363716E+01  0.97541016463E+02  0.13752133787E+03  0.16861752102E+03  0.00000000000E+00 0. -1.
</event>
<event>
 7    1  0.6315518E-006  0.8667154E+02  0.7818608E-02  0.1380271E+00
          2   -1    0    0  502    0  0.00000000000E+00  0.00000000000E+00  0.74354226937E+03  0.74354226937E+03  0.00000000000E+00 0. -1.
          1   -1    0    0  501    0 -0.00000000000E+00 -0.00000000000E+00 -0.17523666581E+04  0.17523666581E+04  0.00000000000E+00 0. -1.
         25    2    1    2    0    0 -0.11165356744E+03  0.22977286223E+02  0.34627844469E+02  0.17267890319E+03  0.12499776474E+03 0.  0.
          2    1    1    2  501    0  0.27335403489E+02 -0.39261789364E+02 -0.16801178484E+04  0.16807988270E+04  0.00000000000E+00 0. -1.
          1    1    1    2  502    0  0.84318163948E+02  0.16284503141E+02  0.63666561513E+03  0.64243119733E+03  0.00000000000E+00 0. -1.
         22    1    3    3    0    0 -0.60946847266E+00  0.82159467574E+01 -0.38191491216E+02  0.39069978683E+02  0.00000000000E+00 0. -1.
         22    1    3    3    0    0 -0.11104409896E+03  0.14761339466E+02  0.72819335685E+02  0.13360892451E+03  0.00000000000E+00 0. -1.
</event>
<event>
 7    1  0.6315518E-006  0.1589758E+03  0.7818608E-02  0.1283652E+00
          2   -1    0    0  502    0  0.00000000000E+00  0.00000000000E+00  0.21101020501E+03  0.21101020501E+03  0.00000000000E+00 0. -1.
          1   -1    0    0  501    0 -0.00000000000E+00 -0.00000000000E+00 -0.33514750884E+03  0.33514750884E+03  0.00000000000E+00 0. -1.
         25    2    1    2    0    0 -0.11214233000E+03  0.21283137286E+02 -0.16809435569E+03  0.23855745213E+03  0.12500028576E+03 0.  0.
          2    1    1    2  501    0 -0.56734931190E+02 -0.22222032949E+02 -0.78225585985E+02  0.99156005709E+02  0.00000000000E+00 0. -1.
          1    1    1    2  502    0  0.16887726119E+03  0.93889566273E+00  0.12218263785E+03  0.20844425601E+03  0.00000000000E+00 0. -1.
         22    1    3    3    0    0 -0.49031403456E+02  0.12166085343E+02  0.81144209670E+01  0.51165769662E+02  0.00000000000E+00 0.  1.
         22    1    3    3    0    0 -0.63110926540E+02  0.91170519430E+01 -0.17620877666E+03  0.18739168246E+03  0.00000000000E+00 0.  1.
</event>
<event>
 7    1  0.6315518E-006  0.7443060E+02  0.7818608E-02  0.1516495E+00
          2   -1    0    0  502    0  0.00000000000E+00  0.00000000000E+00  0.24980709686E+04  0.24980709686E+04  0.00000000000E+00 0. -1.
          1   -1    0    0  501    0 -0.00000000000E+00 -0.00000000000E+00 -0.83407848230E+02  0.83407848230E+02  0.00000000000E+00 0. -1.
         25    2    1    2    0    0  0.83584288209E+02  0.94903507625E+01  0.21658149074E+04  0.21710507562E+04  0.12502308866E+03 0.  0.
          2    1    1    2  501    0 -0.73897053091E+02  0.83792215712E+01 -0.63273687837E+02  0.97644996709E+02  0.00000000000E+00 0. -1.
          1    1    1    2  502    0 -0.96872351179E+01 -0.17869572334E+02  0.31212190077E+03  0.31278306393E+03  0.00000000000E+00 0. -1.
         22    1    3    3    0    0  0.65069583120E+02  0.29832113947E+02  0.20732537101E+04  0.20744890822E+04  0.00000000000E+00 0. -1.
         22    1    3    3    0    0  0.18514705089E+02 -0.20341763185E+02  0.92561197289E+02  0.96561673958E+02  0.00000000000E+00 0. -1.
</event>
<event>
 7    1  0.6315518E-006  0.7279295E+02  0.7818608E-02  0.1448564E+00
          2   -1    0    0  502    0  0.00000000000E+00  0.00000000000E+00  0.39908348885E+02  0.39908348885E+02  0.00000000000E+00 0. -1.
          1   -1    0    0  501    0 -0.00000000000E+00 -0.00000000000E+00 -0.14650351821E+04  0.14650351821E+04  0.00000000000E+00 0. -1.
         25    2    1    2    0    0  0.11942329671E+02  0.43939192188E+02 -0.39205120480E+03  0.41400881400E+03  0.12500351612E+03 0.  0.
          2    1    1    2  501    0 -0.87833660794E+01  0.32364054367E+02 -0.10108382783E+04  0.10113943861E+04  0.00000000000E+00 0. -1.
          1    1    1    2  502    0 -0.31589635912E+01 -0.76303246554E+02 -0.22237350143E+02  0.79540330821E+02  0.00000000000E+00 0. -1.
         22    1    3    3    0    0 -0.23426385676E+02  0.71872932042E+02 -0.32167585822E+03  0.33043890761E+03  0.00000000000E+00 0. -1.
         22    1    3    3    0    0  0.35368715346E+02 -0.27933739854E+02 -0.70375346584E+02  0.83569906391E+02  0.00000000000E+00 0. -1.
</event>
<event>
 7    1  0.6315518E-006  0.1645973E+03  0.7818608E-02  0.1246834E+00
          2   -1    0    0  502    0  0.00000000000E+00  0.00000000000E+00  0.13583047705E+04  0.13583047705E+04  0.00000000000E+00 0. -1.
          1   -1    0    0  501    0 -0.00000000000E+00 -0.00000000000E+00 -0.25445235598E+03  0.25445235598E+03  0.00000000000E+00 0. -1.
         25    2    1    2    0    0 -0.17736606060E+02 -0.13244537208E+03  0.26208275768E+03  0.31963802093E+03  0.12499891507E+03 0.  0.
          2    1    1    2  501    0 -0.83517618672E+02 -0.11121363875E+02 -0.21026448864E+03  0.22651717936E+03  0.00000000000E+00 0. -1.
          1    1    1    2  502    0  0.10125422473E+03  0.14356673596E+03  0.10520341455E+04  0.10666019262E+04  0.00000000000E+00 0. -1.
         22    1    3    3    0    0 -0.56801445870E+02 -0.94268857961E+02  0.10038428320E+03  0.14896317044E+03  0.00000000000E+00 0.  1.
         22    1    3    3    0    0  0.39064839809E+02 -0.38176514123E+02  0.16169847448E+03  0.17067485049E+03  0.00000000000E+00 0.  1.
</event>
<event>
 7    1  0.6315518E-006  0.1071511E+03  0.7818608E-02  0.1372864E+00
          2   -1    0    0  502    0  0.00000000000E+00  0.00000000000E+00  0.21956768134E+04  0.21956768134E+04  0.00000000000E+00 0. -1.
          1   -1    0    0  501    0 -0.00000000000E+00 -0.00000000000E+00 -0.13504543669E+04  0.13504543669E+04  0.00000000000E+00 0. -1.
         25    2    1    2    0    0 -0.28631906623E+02  0.14035970299E+03 -0.20003450390E+03  0.27596853645E+03  0.12499679219E+03 0.  0.
          2    1    1    2  501    0  0.84755231124E+01 -0.10451988792E+03 -0.11097851172E+04  0.11147283291E+04  0.00000000000E+00 0. -1.
          1    1    1    2  502    0  0.20156383511E+02 -0.35839815071E+02  0.21550420676E+04  0.21554343148E+04  0.00000000000E+00 0. -1.
         22    1    3    3    0    0 -0.62318919657E+02  0.14182530118E+03 -0.17654300336E+03  0.23487336127E+03  0.00000000000E+00 0. -1.
         22    1    3    3    0    0  0.33687013033E+02 -0.14655981817E+01 -0.23491500548E+02  0.41095175181E+02  0.00000000000E+00 0. -1.
</event>
<event>
 7    1  0.6315518E-006  0.2041008E+03  0.7818608E-02  0.1189209E+00
          2   -1    0    0  502    0  0.00000000000E+00  0.00000000000E+00  0.32135215290E+04  0.32135215290E+04  0.00000000000E+00 0. -1.
          1   -1    0    0  501    0 -0.00000000000E+00 -0.00000000000E+00 -0.26336694367E+04  0.26336694367E+04  0.00000000000E+00 0. -1.
         25    2    1    2    0    0 -0.59264970767E+02  0.70346401575E+02  0.94179622467E+02  0.18156171508E+03  0.12503560341E+03 0.  0.
          2    1    1    2  501    0  0.17901031609E+03 -0.10521882015E+03 -0.25845484905E+04  0.25928761238E+04  0.00000000000E+00 0. -1.
          1    1    1    2  502    0 -0.11974534532E+03  0.34872418574E+02  0.30702209603E+04  0.30727531268E+04  0.00000000000E+00 0. -1.
         22    1    3    3    0    0  0.21912981506E+02  0.69133402608E+02  0.31854415836E+02  0.79210541741E+02  0.00000000000E+00 0. -1.
         22    1    3    3    0    0 -0.81177952273E+02  0.12129989668E+01  0.62325206631E+02  0.10235117334E+03  0.00000000000E+00 0. -1.
</event>
<event>
 7    1  0.6315518E-006  0.4134202E+02  0.7818608E-02  0.1508883E+00
          2   -1    0    0  502    0  0.00000000000E+00  0.00000000000E+00  0.89867206636E+03  0.89867206636E+03  0.00000000000E+00 0. -1.
          1   -1    0    0  501    0 -0.00000000000E+00 -0.00000000000E+00 -0.53815076279E+03  0.53815076279E+03  0.00000000000E+00 0. -1.
         25    2    1    2    0    0  0.19806350499E+02 -0.37752961845E+02  0.35049018529E+02  0.13664021911E+03  0.12499815251E+03 0.  0.
          2    1    1    2  501    0  0.18712708833E+02  0.37054295261E+02 -0.48601339269E+03  0.48778294778E+03  0.00000000000E+00 0. -1.
          1    1    1    2  502    0 -0.38519059332E+02  0.69866658437E+00  0.81148567774E+03  0.81239966226E+03  0.00000000000E+00 0. -1.
         22    1    3    3    0    0  0.15721420038E+02 -0.35072583860E+02  0.81407698897E+02  0.90024788955E+02  0.00000000000E+00 0. -1.
         22    1    3    3    0    0  0.40849304607E+01 -0.26803779851E+01 -0.46358680369E+02  0.46615430155E+02  0.00000000000E+00 0. -1.
</event>
<event>
 7    1  0.6315518E-006  0.2242664E+03  0.7818608E-02  0.1274956E+00
          2   -1    0    0  502    0  0.00000000000E+00  0.00000000000E+00  0.10078511441E+04  0.10078511441E+04  0.00000000000E+00 0. -1.
          1   -1    0    0  501    0 -0.00000000000E+00 -0.00000000000E+00 -0.21128709153E+04  0.21128709153E+04  0.00000000000E+00 0. -1.
         25    2    1    2    0    0  0.62963011760E+01 -0.19400740763E+03 -0.29897075233E+03  0.37773930879E+03  0.12499982811E+03 0.  0.
          2    1    1    2  501    0 -0.39821203255E+02  0.22683826153E+03 -0.17664680351E+04  0.17814181554E+04  0.00000000000E+00 0. -1.
          1    1    1    2  502    0  0.33524902079E+02 -0.32830853900E+02  0.96041901625E+03  0.96156459523E+03  0.00000000000E+00 0. -1.
         22    1    3    3    0    0  0.27334950988E+02 -0.19953475245E+03 -0.23147889169E+03  0.30682860734E+03  0.00000000000E+00 0. -1.
         22    1    3    3    0    0 -0.21038649812E+02  0.55273448264E+01 -0.67491860643E+02  0.70910701448E+02  0.00000000000E+00 0. -1.
</event>
<event>
 7    1  0.6315518E-006  0.5268916E+02  0.7818608E-02  0.1456808E+00
          2   -1    0    0  502    0  0.00000000000E+00  0.00000000000E+00  0.84113941795E+03  0.84113941795E+03  0.00000000000E+00 0. -1.
          1   -1    0    0  501    0 -0.00000000000E+00 -0.00000000000E+00 -0.10339661504E+04  0.10339661504E+04  0.00000000000E+00 0. -1.
         25    2    1    2    0    0  0.69980078651E+02 -0.52594614363E+02  0.16771045568E+03  0.22674921738E+03  0.12500002308E+03 0.  0.
          2    1    1    2  501    0 -0.50853381988E+02  0.13402649829E+02 -0.10030187125E+04  0.10043964532E+04  0.00000000000E+00 0. -1.
          1    1    1    2  502    0 -0.19126696663E+02  0.39191964535E+02  0.64248152446E+03  0.64395989773E+03  0.00000000000E+00 0. -1.
         22    1    3    3    0    0  0.39764672749E+02 -0.34148464341E+02 -0.29090647513E+01  0.52495804341E+02  0.00000000000E+00 0. -1.
         22    1    3    3    0    0  0.30215405902E+02 -0.18446150022E+02  0.17061952043E+03  0.17425341304E+03  0.00000000000E+00 0. -1.
</event>
<event>
 7    1  0.6315518E-006  0.5717358E+02  0.7818608E-02  0.1526457E+00
          2   -1    0    0  502    0  0.00000000000E+00  0.00000000000E+00  0.39824011547E+03  0.39824011547E+03  0.00000000000E+00 0. -1.
          1   -1    0    0  501    0 -0.00000000000E+00 -0.00000000000E+00 -0.39410819468E+03  0.39410819468E+03  0.00000000000E+00 0. -1.
         25    2    1    2    0    0 -0.77204827220E+02  0.11400085109E+02  0.56267808058E+02  0.15773885001E+03  0.12499972517E+03 0.  0.
          2    1    1    2  501    0  0.21107487641E+02 -0.12943162318E+02 -0.34021521999E+03  0.34111500612E+03  0.00000000000E+00 0. -1.
          1    1    1    2  502    0  0.56097339579E+02  0.15430772093E+01  0.28807933273E+03  0.29349445402E+03  0.00000000000E+00 0. -1.
         22    1    3    3    0    0 -0.35854448652E+02  0.42430515332E+02  0.82738793186E+02  0.99657403224E+02  0.00000000000E+00 0. -1.
         22    1    3    3    0    0 -0.41350378568E+02 -0.31030430222E+02 -0.26470985128E+02  0.58081446789E+02  0.00000000000E+00 0. -1.
</event>
<event>
 7    1  0.6315518E-006  0.9510118E+02  0.7818608E-02  0.1359017E+00
          2   -1    0    0  502    0  0.00000000000E+00  0.00000000000E+00  0.29225452646E+04  0.29225452646E+04  0.00000000000E+00 0. -1.
          1   -1    0    0  501    0 -0.00000000000E+00 -0.00000000000E+00 -0.97687856199E+02  0.97687856199E+02  0.00000000000E+00 0. -1.
         25    2    1    2    0    0 -0.28159652418E+02 -0.12661695042E+03  0.20269483395E+04  0.20349367036E+04  0.12499199461E+03 0.  0.
          2    1    1    2  501    0 -0.12311341326E+02  0.93977964995E+02 -0.68743395502E+02  0.11708578673E+03  0.00000000000E+00 0. -1.
          1    1    1    2  502    0  0.40470993744E+02  0.32638985422E+02  0.86665246439E+03  0.86821063040E+03  0.00000000000E+00 0. -1.
         22    1    3    3    0    0 -0.66401703904E+02 -0.99094866887E+02  0.10315667706E+04  0.10384406488E+04  0.00000000000E+00 0.  1.
         22    1    3    3    0    0  0.38242051486E+02 -0.27522083531E+02  0.99538156888E+03  0.99649605481E+03  0.00000000000E+00 0.  1.
</event>
<event>
 7    1  0.6315518E-006  0.1464344E+03  0.7818608E-02  0.1297617E+00
          2   -1    0    0  502    0  0.00000000000E+00  0.00000000000E+00  0.52328686676E+03  0.52328686676E+03  0.00000000000E+00 0. -1.
          1   -1    0    0  501    0 -0.00000000000E+00 -0.00000000000E+00 -0.32572115590E+03  0.32572115590E+03  0.00000000000E+00 0. -1.
         25    2    1    2    0    0  0.23683830093E+02  0.13614940561E+03  0.17049863098E+03  0.25257051984E+03  0.12499799947E+03 0.  0.
          2    1    1    2  501    0  0.33800070941E+02 -0.14422337315E+03 -0.26233666041E+03  0.30126956294E+03  0.00000000000E+00 0. -1.
          1    1    1    2  502    0 -0.57483901034E+02  0.80739675430E+01  0.28940374030E+03  0.29516793987E+03  0.00000000000E+00 0. -1.
         22    1    3    3    0    0  0.47623595609E+02  0.46977418126E+02  0.14029357601E+03  0.15542577695E+03  0.00000000000E+00 0.  1.
         22    1    3    3    0    0 -0.23939765516E+02  0.89171987483E+02  0.30205054970E+02  0.97144742886E+02  0.00000000000E+00 0.  1.
</event>
<event>
 7    1  0.6315518E-006  0.4511055E+02  0.7818608E-02  0.1526847E+00
          2   -1    0    0  502    0  0.00000000000E+00  0.00000000000E+00  0.23251259027E+04  0.23251259027E+04  0.00000000000E+00 0. -1.
          1   -1    0    0  501    0 -0.00000000000E+00 -0.00000000000E+00 -0.81796471065E+01  0.81796471065E+01  0.00000000000E+00 0. -1.
         25    2    1    2    0    0 -0.20185427671E+02  0.32461908649E+02  0.13042022937E+04  0.13107362107E+04  0.12499825645E+03 0.  0.
          2    1    1    2  501    0  0.27564767120E+02  0.14827840035E+02  0.52421113610E+02  0.61054519723E+02  0.00000000000E+00 0. -1.
          1    1    1    2  502    0 -0.73793394490E+01 -0.47289748684E+02  0.96032284829E+03  0.96151481940E+03  0.00000000000E+00 0. -1.
         22    1    3    3    0    0 -0.46897663530E+02 -0.33400423924E+02  0.70120322858E+03  0.70356303693E+03  0.00000000000E+00 0. -1.
         22    1    3    3    0    0  0.26712235860E+02  0.65862332574E+02  0.60299906511E+03  0.60717317375E+03  0.00000000000E+00 0. -1.
</event>
<event>
 7    1  0.6315518E-006  0.5554268E+02  0.7818608E-02  0.1423171E+00
          2   -1    0    0  502    0  0.00000000000E+00  0.00000000000E+00  0.98530852354E+03  0.98530852354E+03  0.00000000000E+00 0. -1.
          1   -1    0    0  501    0 -0.00000000000E+00 -0.00000000000E+00 -0.30240597473E+02  0.30240597473E+02  0.00000000000E+00 0. -1.
         25    2    1    2    0    0 -0.62787806558E+01  0.49803801157E+01  0.29475643869E+03  0.32026565674E+03  0.12499802184E+03 0.  0.
          2    1    1    2  501    0 -0.47929687931E+02  0.23072453637E+02  0.28151938727E+02  0.60184090556E+02  0.00000000000E+00 0. -1.
          1    1    1    2  502    0  0.54208468587E+02 -0.28052833752E+02  0.63215954865E+03  0.63509937372E+03  0.00000000000E+00 0. -1.
         22    1    3    3    0    0 -0.32881501129E+02 -0.44522302760E+02  0.73649219131E+02  0.92128367174E+02  0.00000000000E+00 0. -1.
         22    1    3    3    0    0  0.26602720473E+02  0.49502682876E+02  0.22110721956E+03  0.22813728956E+03  0.00000000000E+00 0. -1.
</event>
<event>
 7    1  0.6315518E-006  0.1345903E+03  0.7818608E-02  0.1315320E+00
          2   -1    0    0  502    0  0.00000000000E+00  0.00000000000E+00  0.71851744702E+03  0.71851744702E+03  0.00000000000E+00 0. -1.
          1   -1    0    0  501    0 -0.00000000000E+00 -0.00000000000E+00 -0.77203883130E+03  0.77203883130E+03  0.00000000000E+00 0. -1.
         25    2    1    2    0    0 -0.77148239332E+02 -0.64258788126E+02 -0.17962528834E+03  0.24077398196E+03  0.12500329393E+03 0.  0.
          2    1    1    2  501    0  0.13088362566E+03  0.64516354908E+02 -0.55128255772E+03  0.57026778093E+03  0.00000000000E+00 0. -1.
          1    1    1    2  502    0 -0.53735386327E+02 -0.25756678153E+00  0.67738646178E+03  0.67951451543E+03  0.00000000000E+00 0. -1.
         22    1    3    3    0    0  0.20638979896E+02 -0.13862946971E+02  0.54677614288E+01  0.25456732016E+02  0.00000000000E+00 0. -1.
         22    1    3    3    0    0 -0.97787219228E+02 -0.50395841155E+02 -0.18509304977E+03  0.21531724994E+03  0.00000000000E+00 0. -1.
</event>
<event>
 7    1  0.6315518E-006  0.5309590E+02  0.7818608E-02  0.1526975E+00
          2   -1    0    0  502    0  0.00000000000E+00  0.00000000000E+00  0.85403404825E+03  0.85403404825E+03  0.00000000000E+00 0. -1.
          1   -1    0    0  501    0 -0.00000000000E+00 -0.00000000000E+00 -0.24568172102E+02  0.24568172102E+02  0.00000000000E+00 0. -1.
         25    2    1    2    0    0 -0.37995179294E+02  0.15405481921E+02  0.62469668301E+03  0.63839671390E+03  0.12499382396E+03 0.  0.
          2    1    1    2  501    0  0.53947396979E+02  0.58427245736E+01  0.27272083623E+02  0.60730763345E+02  0.00000000000E+00 0. -1.
          1    1    1    2  502    0 -0.15952217685E+02 -0.21248206495E+02  0.17749710952E+03  0.17947474311E+03  0.00000000000E+00 0. -1.
         22    1    3    3    0    0 -0.16128858312E+02 -0.11912170114E+01  0.60349332479E+03  0.60370999009E+03  0.00000000000E+00 0.  1.
         22    1    3    3    0    0 -0.21866320982E+02  0.16596698933E+02  0.21203358221E+02  0.34686723809E+02  0.00000000000E+00 0.  1.
</event>
<event>
 7    1  0.6315518E-006  0.1057663E+03  0.7818608E-02  0.1387789E+00
          2   -1    0    0  502    0  0.00000000000E+00  0.00000000000E+00  0.14013325010E+04  0.14013325010E+04  0.00000000000E+00 0. -1.
          1   -1    0    0  501    0 -0.00000000000E+00 -0.00000000000E+00 -0.19772571999E+03  0.19772571999E+03  0.00000000000E+00 0. -1.
         25    2    1    2    0    0 -0.91923392556E+02 -0.40139428637E+02  0.10408256628E+03  0.19109814131E+03  0.12499694068E+03 0.  0.
          2    1    1    2  501    0  0.77435861209E+02  0.74060633843E+02 -0.13529712712E+03  0.17258795639E+03  0.00000000000E+00 0. -1.
          1    1    1    2  502    0  0.14487531348E+02 -0.33921205206E+02  0.12348213418E+04  0.12353721233E+04  0.00000000000E+00 0. -1.
         22    1    3    3    0    0 -0.10683205778E+03 -0.16964078656E+01  0.38381227216E+02  0.11353010602E+03  0.00000000000E+00 0.  1.
         22    1    3    3    0    0  0.14908665224E+02 -0.38443020771E+02  0.65701339067E+02  0.77568035298E+02  0.00000000000E+00 0.  1.
</event>
<event>
 7    1  0.6315518E-006  0.1706686E+03  0.7818608E-02  0.1352855E+00
          2   -1    0    0  502    0  0.00000000000E+00  0.00000000000E+00  0.12747430693E+04  0.12747430693E+04  0.00000000000E+00 0. -1.
          1   -1    0    0  501    0 -0.00000000000E+00 -0.00000000000E+00 -0.85285321756E+02  0.85285321756E+02  0.00000000000E+00 0. -1.
         25    2    1    2    0    0 -0.15097720505E+03  0.35931208636E+02  0.34019488789E+03  0.39426139840E+03  0.12499728126E+03 0.  0.
          2    1    1    2  501    0  0.16510805303E+03 -0.62983974268E+02  0.76765696379E+02  0.19266712831E+03  0.00000000000E+00 0. -1.
          1    1    1    2  502    0 -0.14130847979E+02  0.27052765633E+02  0.77249716328E+03  0.77309986436E+03  0.00000000000E+00 0. -1.
         22    1    3    3    0    0 -0.11472751679E+03  0.59582614581E+02  0.32259976153E+03  0.34753862693E+03  0.00000000000E+00 0.  1.
         22    1    3    3    0    0 -0.36249688263E+02 -0.23651405945E+02  0.17595126362E+02  0.46722771472E+02  0.00000000000E+00 0.  1.
</event>
<event>
 7    1  0.6315518E-006  0.5445854E+02  0.7818608E-02  0.1508084E+00
          2   -1    0    0  502    0  0.00000000000E+00  0.00000000000E+00  0.12196427897E+04  0.12196427897E+04  0.00000000000E+00 0. -1.
          1   -1    0    0  501    0 -0.00000000000E+00 -0.00000000000E+00 -0.63682597611E+03  0.63682597611E+03  0.00000000000E+00 0. -1.
         25    2    1    2    0    0 -0.61879106526E+02 -0.55929003317E+02  0.12025461230E+03  0.19246799006E+03  0.12500271270E+03 0.  0.
          2    1    1    2  501    0  0.42154744481E+02  0.34119982706E+02 -0.59929130165E+03  0.60174019305E+03  0.00000000000E+00 0. -1.
          1    1    1    2  502    0  0.19724362045E+02  0.21809020611E+02  0.10618535029E+04  0.10622605827E+04  0.00000000000E+00 0. -1.
         22    1    3    3    0    0  0.38342578465E+02 -0.22711654680E+02  0.32100369277E+02  0.54921819793E+02  0.00000000000E+00 0.  1.
         22    1    3    3    0    0 -0.10022168499E+03 -0.33217348637E+02  0.88154243025E+02  0.13754617027E+03  0.00000000000E+00 0.  1.
</event>
<event>
 7    1  0.6315518E-006  0.6299878E+02  0.7818608E-02  0.1481447E+00
          2   -1    0    0  502    0  0.00000000000E+00  0.00000000000E+00  0.15140303645E+04  0.15140303645E+04  0.00000000000E+00 0. -1.
          1   -1    0    0  501    0 -0.00000000000E+00 -0.00000000000E+00 -0.14757523290E+03  0.14757523290E+03  0.00000000000E+00 0. -1.
         25    2    1    2    0    0 -0.38327112685E+02 -0.80302969083E+02  0.39866543520E+03  0.42717213314E+03  0.12499747077E+03 0.  0.
          2    1    1    2  501    0  0.37958441902E+02  0.49739667551E+02 -0.12575553918E+03  0.14046114578E+03  0.00000000000E+00 0. -1.
          1    1    1    2  502    0  0.36867078250E+00  0.30563301532E+02  0.10935452355E+04  0.10939723184E+04  0.00000000000E+00 0. -1.
         22    1    3    3    0    0  0.99403387182E+01 -0.22117681353E+00  0.25844064296E+03  0.25863183329E+03  0.00000000000E+00 0. -1.
         22    1    3    3    0    0 -0.48267451403E+02 -0.80081792270E+02  0.14022479224E+03  0.16854029986E+03  0.00000000000E+00 0. -1.
</event>
<event>
 7    1  0.6315518E-006  0.2269638E+03  0.7818608E-02  0.1355139E+00
          2   -1    0    0  502    0  0.00000000000E+00  0.00000000000E+00  0.12495944387E+04  0.12495944387E+04  0.00000000000E+00 0. -1.
          1   -1    0    0  501    0 -0.00000000000E+00 -0.00000000000E+00 -0.51859855564E+03  0.51859855564E+03  0.00000000000E+00 0. -1.
         25    2    1    2    0    0 -0.10162328511E+03  0.22207376308E+03  0.25759724777E+03  0.37633096223E+03  0.12499841098E+03 0.  0.
          2    1    1    2  501    0  0.10459007127E+03 -0.19975959225E+03 -0.43140498898E+03  0.48677843237E+03  0.00000000000E+00 0. -1.
          1    1    1    2  502    0 -0.29667861572E+01 -0.22314170836E+02  0.90480362431E+03  0.90508359979E+03  0.00000000000E+00 0. -1.
         22    1    3    3    0    0 -0.75018706127E+02  0.93200808582E+02  0.48130855928E+02  0.12896036710E+03  0.00000000000E+00 0. -1.
         22    1    3    3    0    0 -0.26604578982E+02  0.12887295450E+03  0.20946639185E+03  0.24737059513E+03  0.00000000000E+00 0. -1.
</event>
<event>
 7    1  0.6315518E-006  0.1330859E+03  0.7818608E-02  0.1427718E+00
          2   -1    0    0  502    0  0.00000000000E+00  0.00000000000E+00  0.13022534908E+04  0.13022534908E+04  0.00000000000E+00 0. -1.
          1   -1    0    0  501    0 -0.00000000000E+00 -0.00000000000E+00 -0.11646251991E+03  0.11646251991E+03  0.00000000000E+00 0. -1.
         25    2    1    2    0    0 -0.43465549885E+02  0.12480064719E+03  0.62449240383E+03  0.65044582488E+03  0.12499821237E+03 0.  0.
          2    1    1    2  501    0  0.23016776267E+02 -0.13125474109E+03 -0.60325586612E+02  0.14627629832E+03  0.00000000000E+00 0. -1.
          1    1    1    2  502    0  0.20448773618E+02  0.64540939022E+01  0.62162415371E+03  0.62199388754E+03  0.00000000000E+00 0. -1.
         22    1    3    3    0    0 -0.66657154270E+02  0.28247081520E+02  0.37489321992E+03  0.38181932923E+03  0.00000000000E+00 0.  1.
         22    1    3    3    0    0  0.23191604384E+02  0.96553565670E+02  0.24959918392E+03  0.26862649566E+03  0.00000000000E+00 0.  1.
</event>
<event>
 7    1  0.6748139E-006  0.7875688E+02  0.7818608E-02  0.1395217E+00
          2   -1    0    0  502    0  0.00000000000E+00  0.00000000000E+00  0.82616097191E+03  0.82616097191E+03  0.00000000000E+00 0. -1.
          1   -1    0    0  501    0 -0.00000000000E+00 -0.00000000000E+00 -0.76299723263E+03  0.76299723263E+03  0.00000000000E+00 0. -1.
         25    2    1    2    0    0 -0.80405187216E+02  0.49406749778E+02 -0.12542655783E+03  0.20065662652E+03  0.12500095721E+03 0.  0.
          2    1    1    2  501    0  0.78419145907E+02 -0.27774261834E+01 -0.59669410858E+03  0.60183148452E+03  0.00000000000E+00 0. -1.
          1    1    1    2  502    0  0.19860413085E+01 -0.46629323594E+02  0.78528440569E+03  0.78667009350E+03  0.00000000000E+00 0. -1.
         22    1    3    3    0    0 -0.52754777180E+02  0.16723016008E+02 -0.14379086456E+03  0.15407315960E+03  0.00000000000E+00 0.  1.
         22    1    3    3    0    0 -0.27650410036E+02  0.32683733770E+02  0.18364306732E+02  0.46583466918E+02  0.00000000000E+00 0.  1.
</event>
<event>
 7    1  0.6315518E-006  0.4109980E+02  0.7818608E-02  0.1612721E+00
          2   -1    0    0  502    0  0.00000000000E+00  0.00000000000E+00  0.30368069142E+03  0.30368069142E+03  0.00000000000E+00 0. -1.
          1   -1    0    0  501    0 -0.00000000000E+00 -0.00000000000E+00 -0.45048695523E+03  0.45048695523E+03  0.00000000000E+00 0. -1.
         25    2    1    2    0    0  0.23131064335E+02  0.41805507230E+02 -0.15376716729E+03  0.20384820472E+03  0.12500800878E+03 0.  0.
          2    1    1    2  501    0 -0.20047059745E+02 -0.84168787550E+00 -0.26979060559E+03  0.27053569803E+03  0.00000000000E+00 0. -1.
          1    1    1    2  502    0 -0.30840045905E+01 -0.40963819355E+02  0.27675150907E+03  0.27978374390E+03  0.00000000000E+00 0. -1.
         22    1    3    3    0    0  0.20192859359E+02  0.81788978237E+02 -0.64861784725E+02  0.10632139788E+03  0.00000000000E+00 0.  1.
         22    1    3    3    0    0  0.29382049760E+01 -0.39983471007E+02 -0.88905382567E+02  0.97526806836E+02  0.00000000000E+00 0.  1.
</event>
<event>
 7    1  0.6315518E-006  0.1796274E+03  0.7818608E-02  0.1240320E+00
          2   -1    0    0  502    0  0.00000000000E+00  0.00000000000E+00  0.63885058701E+03  0.63885058701E+03  0.00000000000E+00 0. -1.
          1   -1    0    0  501    0 -0.00000000000E+00 -0.00000000000E+00 -0.16039431528E+04  0.16039431528E+04  0.00000000000E+00 0. -1.
         25    2    1    2    0    0 -0.22249418501E+03  0.89218430926E+02  0.39978584005E+01  0.27038032293E+03  0.12500378145E+03 0.  0.
          2    1    1    2  501    0  0.17634917190E+03 -0.20888612281E+02 -0.14619544112E+04  0.14727002632E+04  0.00000000000E+00 0. -1.
          1    1    1    2  502    0  0.46145013115E+02 -0.68329818645E+02  0.49286398701E+03  0.49971315376E+03  0.00000000000E+00 0. -1.
         22    1    3    3    0    0  0.14495500384E+02 -0.49369938148E+01 -0.68972496581E+00  0.15328703788E+02  0.00000000000E+00 0. -1.
         22    1    3    3    0    0 -0.23698968539E+03  0.94155424741E+02  0.46875833663E+01  0.25505161915E+03  0.00000000000E+00 0. -1.
</event>
<event>
 7    1  0.6315518E-006  0.4449377E+02  0.7818608E-02  0.1494122E+00
          2   -1    0    0  502    0  0.00000000000E+00  0.00000000000E+00  0.12903269160E+04  0.12903269160E+04  0.00000000000E+00 0. -1.
          1   -1    0    0  501    0 -0.00000000000E+00 -0.00000000000E+00 -0.95602157265E+02  0.95602157265E+02  0.00000000000E+00 0. -1.
         25    2    1    2    0    0  0.43479044910E+02 -0.42008252423E+02  0.79465199847E+02  0.15998265368E+03  0.12499844348E+03 0.  0.
          2    1    1    2  501    0 -0.44247614303E+02  0.24063205829E+01 -0.46081088747E+02  0.63930497342E+02  0.00000000000E+00 0. -1.
          1    1    1    2  502    0  0.76856939318E+00  0.39601931840E+02  0.11613406476E+04  0.11620159223E+04  0.00000000000E+00 0. -1.
         22    1    3    3    0    0  0.73480804921E+02 -0.13462465371E+02  0.51168123274E+01  0.74878891779E+02  0.00000000000E+00 0.  1.
         22    1    3    3    0    0 -0.30001760011E+02 -0.28545787053E+02  0.74348387519E+02  0.85103761897E+02  0.00000000000E+00 0.  1.
</event>
<event>
 7    1  0.6315518E-006  0.1025050E+03  0.7818608E-02  0.1333033E+00
          2   -1    0    0  502    0  0.00000000000E+00  0.00000000000E+00  0.26603430478E+03  0.26603430478E+03  0.00000000000E+00 0. -1.
          1   -1    0    0  501    0 -0.00000000000E+00 -0.00000000000E+00 -0.16903794521E+03  0.16903794521E+03  0.00000000000E+00 0. -1.
         25    2    1    2    0    0  0.61053670130E+02  0.36676477709E+02  0.36988900545E+02  0.14854424747E+03  0.12499800014E+03 0.  0.
          2    1    1    2  501    0 -0.61870233210E+02 -0.96961525865E+02 -0.75929105190E+02  0.13782123302E+03  0.00000000000E+00 0. -1.
          1    1    1    2  502    0  0.81656308037E+00  0.60285048156E+02  0.13593656421E+03  0.14870676950E+03  0.00000000000E+00 0. -1.
         22    1    3    3    0    0  0.25996957906E+02  0.34225326338E+02 -0.43233700430E+02  0.60962017980E+02  0.00000000000E+00 0.  1.
         22    1    3    3    0    0  0.35056712224E+02  0.24511513718E+01  0.80222600975E+02  0.87582229489E+02  0.00000000000E+00 0.  1.
</event>
<event>
 7    1  0.6315518E-006  0.1520316E+03  0.7818608E-02  0.1210419E+00
          2   -1    0    0  502    0  0.00000000000E+00  0.00000000000E+00  0.18357135093E+04  0.18357135093E+04  0.00000000000E+00 0. -1.
          1   -1    0    0  501    0 -0.00000000000E+00 -0.00000000000E+00 -0.61940883399E+03  0.61940883399E+03  0.00000000000E+00 0. -1.
         25    2    1    2    0    0 -0.10701313697E+03  0.23331620385E+03  0.20040519456E+02  0.28619543195E+03  0.12497175835E+03 0.  0.
          2    1    1    2  501    0 -0.42862689985E+01 -0.13290631593E+03 -0.47382167523E+03  0.49212746401E+03  0.00000000000E+00 0. -1.
          1    1    1    2  502    0  0.11129940597E+03 -0.10040988792E+03  0.16700858311E+04  0.16767994473E+04  0.00000000000E+00 0. -1.
         22    1    3    3    0    0 -0.95613654194E+02  0.10058820792E+03  0.53674980707E+02  0.14879839379E+03  0.00000000000E+00 0. -1.
         22    1    3    3    0    0 -0.11399482774E+02  0.13272799593E+03 -0.33634461251E+02  0.13739703816E+03  0.00000000000E+00 0. -1.
</event>
<event>
 7    1  0.6315518E-006  0.1086538E+03  0.7818608E-02  0.1370462E+00
          2   -1    0    0  502    0  0.00000000000E+00  0.00000000000E+00  0.80007017410E+02  0.80007017410E+02  0.00000000000E+00 0. -1.
          1   -1    0    0  501    0 -0.00000000000E+00 -0.00000000000E+00 -0.31481227170E+04  0.31481227170E+04  0.00000000000E+00 0. -1.
         25    2    1    2    0    0 -0.72415133228E+02 -0.37098532715E+02 -0.17738642941E+03  0.23175619619E+03  0.12499894593E+03 0.  0.
          2    1    1    2  501    0 -0.19809583443E+02 -0.36310392849E+02 -0.28774575145E+04  0.28777547867E+04  0.00000000000E+00 0. -1.
          1    1    1    2  502    0  0.92224716671E+02  0.73408925564E+02 -0.13271755621E+02  0.11861875153E+03  0.00000000000E+00 0. -1.
         22    1    3    3    0    0 -0.92753334644E+02 -0.58787464216E+02 -0.98743065071E+02  0.14767985623E+03  0.00000000000E+00 0. -1.
         22    1    3    3    0    0  0.20338201416E+02  0.21688931501E+02 -0.78643364339E+02  0.84076339960E+02  0.00000000000E+00 0. -1.
</event>
<event>
 7    1  0.6315518E-006  0.6748956E+02  0.7818608E-02  0.1387589E+00
          2   -1    0    0  502    0  0.00000000000E+00  0.00000000000E+00  0.13913423496E+04  0.13913423496E+04  0.00000000000E+00 0. -1.
          1   -1    0    0  501    0 -0.00000000000E+00 -0.00000000000E+00 -0.29198677843E+02  0.29198677843E+02  0.00000000000E+00 0. -1.
         25    2    1    2    0    0 -0.40393069748E+02  0.11007866654E+03  0.75982963424E+03  0.77892058432E+03  0.12500916245E+03 0.  0.
          2    1    1    2  501    0  0.17278046068E+02 -0.55260269182E+02  0.28143746275E+02  0.64376227603E+02  0.00000000000E+00 0. -1.
          1    1    1    2  502    0  0.23115023680E+02 -0.54818397356E+02  0.57417029122E+03  0.57724421550E+03  0.00000000000E+00 0. -1.
         22    1    3    3    0    0  0.64099338986E+01 -0.10789372735E+02  0.57878134786E+01  0.13820152006E+02  0.00000000000E+00 0.  1.
         22    1    3    3    0    0 -0.46803003646E+02  0.12086803927E+03  0.75404182076E+03  0.76510043231E+03  0.00000000000E+00 0.  1.
</event>
<event>
 7    1  0.6315518E-006  0.7317741E+02  0.7818608E-02  0.1411312E+00
          2   -1    0    0  502    0  0.00000000000E+00  0.00000000000E+00  0.21517351525E+04  0.21517351525E+04  0.00000000000E+00 0. -1.
          1   -1    0    0  501    0 -0.00000000000E+00 -0.00000000000E+00 -0.45925030190E+03  0.45925030190E+03  0.00000000000E+00 0. -1.
         25    2    1    2    0    0  0.74035633836E+02  0.83244127181E+02  0.15244952542E+04  0.15336626311E+04  0.12499770425E+03 0.  0.
          2    1    1    2  501    0 -0.33804980751E+02 -0.64825407818E+02 -0.45093268810E+03  0.45682097086E+03  0.00000000000E+00 0. -1.
          1    1    1    2  502    0 -0.40230653085E+02 -0.18418719363E+02  0.61892228441E+03  0.62050185238E+03  0.00000000000E+00 0. -1.
         22    1    3    3    0    0  0.25393240801E+02  0.62799416433E+02  0.28103787396E+03  0.28908626737E+03  0.00000000000E+00 0. -1.
         22    1    3    3    0    0  0.48642393034E+02  0.20444710748E+02  0.12434573803E+04  0.12445763637E+04  0.00000000000E+00 0. -1.
</event>
<event>
 7    1  0.6315518E-006  0.4769709E+02  0.7818608E-02  0.1533098E+00
          2   -1    0    0  502    0  0.00000000000E+00  0.00000000000E+00  0.50876640892E+03  0.50876640892E+03  0.00000000000E+00 0. -1.
          1   -1    0    0  501    0 -0.00000000000E+00 -0.00000000000E+00 -0.20761056896E+04  0.20761056896E+04  0.00000000000E+00 0. -1.
         25    2    1    2    0    0  0.38550972560E+02  0.61478618103E+02  0.88000244816E+02  0.16921656637E+03  0.12499762109E+03 0.  0.
          2    1    1    2  501    0 -0.15332463747E+02 -0.45113057338E+02 -0.20346875765E+04  0.20352453922E+04  0.00000000000E+00 0. -1.
          1    1    1    2  502    0 -0.23218508813E+02 -0.16365560765E+02  0.37934805105E+03  0.38041013993E+03  0.00000000000E+00 0. -1.
         22    1    3    3    0    0  0.16556809622E+02  0.89842563459E+02  0.21812588762E+02  0.93923389964E+02  0.00000000000E+00 0.  1.
         22    1    3    3    0    0  0.21994162938E+02 -0.28363945356E+02  0.66187656053E+02  0.75293176406E+02  0.00000000000E+00 0.  1.
</event>
<event>
 7    1  0.6315518E-006  0.4313292E+02  0.7818608E-02  0.1493258E+00
          2   -1    0    0  502    0  0.00000000000E+00  0.00000000000E+00  0.36099954879E+03  0.36099954879E+03  0.00000000000E+00 0. -1.
          1   -1    0    0  501    0 -0.00000000000E+00 -0.00000000000E+00 -0.10115143936E+04  0.10115143936E+04  0.00000000000E+00 0. -1.
         25    2    1    2    0    0 -0.62590886280E+02  0.50453878467E+02 -0.36453498302E+03  0.39366796847E+03  0.12500201063E+03 0.  0.
          2    1    1    2  501    0  0.37375019307E+02 -0.17992490259E+02 -0.63050974682E+03  0.63187274242E+03  0.00000000000E+00 0. -1.
          1    1    1    2  502    0  0.25215866973E+02 -0.32461388208E+02  0.34452988505E+03  0.34697323148E+03  0.00000000000E+00 0. -1.
         22    1    3    3    0    0 -0.89190047384E+02 -0.23607903838E+01 -0.20755384278E+03  0.22591820541E+03  0.00000000000E+00 0. -1.
         22    1    3    3    0    0  0.26599161104E+02  0.52814668851E+02 -0.15698114024E+03  0.16774976307E+03  0.00000000000E+00 0. -1.
</event>
<event>
 7    1  0.6315518E-006  0.2610673E+02  0.7818608E-02  0.1679568E+00
          2   -1    0    0  502    0  0.00000000000E+00  0.00000000000E+00  0.33811885327E+03  0.33811885327E+03  0.00000000000E+00 0. -1.
          1   -1    0    0  501    0 -0.00000000000E+00 -0.00000000000E+00 -0.69162039542E+03  0.69162039542E+03  0.00000000000E+00 0. -1.
         25    2    1    2    0    0 -0.35213267809E+02 -0.26780517210E+02 -0.19306146692E+03  0.23421004135E+03  0.12499777249E+03 0.  0.
          2    1    1    2  501    0  0.24582605525E+02  0.79618679210E+01 -0.47726695729E+03  0.47796594476E+03  0.00000000000E+00 0. -1.
          1    1    1    2  502    0  0.10630662284E+02  0.18818649289E+02  0.31682688206E+03  0.31756326257E+03  0.00000000000E+00 0. -1.
         22    1    3    3    0    0 -0.18541598847E+02 -0.56908775466E+02 -0.19050018969E+03  0.19968155119E+03  0.00000000000E+00 0.  1.
         22    1    3    3    0    0 -0.16671668963E+02  0.30128258256E+02 -0.25612772289E+01  0.34528490158E+02  0.00000000000E+00 0.  1.
</event>
<event>
 7    1  0.6315518E-006  0.1153904E+03  0.7818608E-02  0.1361037E+00
          2   -1    0    0  502    0  0.00000000000E+00  0.00000000000E+00  0.10376709173E+04  0.10376709173E+04  0.00000000000E+00 0. -1.
          1   -1    0    0  501    0 -0.00000000000E+00 -0.00000000000E+00 -0.39555399011E+03  0.39555399011E+03  0.00000000000E+00 0. -1.
         25    2    1    2    0    0  0.14996592302E+03 -0.17260675098E+02  0.50612104673E+03  0.54274398726E+03  0.12499925114E+03 0.  0.
          2    1    1    2  501    0 -0.11037679725E+03  0.31668001106E+02 -0.36760419965E+03  0.38512173046E+03  0.00000000000E+00 0. -1.
          1    1    1    2  502    0 -0.39589125766E+02 -0.14407326008E+02  0.50360008012E+03  0.50535918970E+03  0.00000000000E+00 0. -1.
         22    1    3    3    0    0  0.10564646236E+03 -0.42059001707E+02  0.46097604571E+03  0.47479369136E+03  0.00000000000E+00 0.  1.
         22    1    3    3    0    0  0.44319460653E+02  0.24798326610E+02  0.45145001022E+02  0.67950295897E+02  0.00000000000E+00 0.  1.
</event>
<event>
 7    1  0.6315518E-006  0.2044810E+03  0.7818608E-02  0.1217318E+00
          2   -1    0    0  502    0  0.00000000000E+00  0.00000000000E+00  0.11009256416E+04  0.11009256416E+04  0.00000000000E+00 0. -1.
          1   -1    0    0  501    0 -0.00000000000E+00 -0.00000000000E+00 -0.35193006260E+03  0.35193006260E+03  0.00000000000E+00 0. -1.
         25    2    1    2    0    0  0.11894703095E+03 -0.89341913783E+02  0.38777948204E+03  0.43373756167E+03  0.12499988791E+03 0.  0.
          2    1    1    2  501    0 -0.20321872643E+03  0.52706988821E+02 -0.29190671708E+03  0.35956280247E+03  0.00000000000E+00 0. -1.
          1    1    1    2  502    0  0.84271695483E+02  0.36634924961E+02  0.65312281407E+03  0.65955534009E+03  0.00000000000E+00 0. -1.
         22    1    3    3    0    0  0.12436211737E+03 -0.54955845502E+02  0.37093142311E+03  0.39506480714E+03  0.00000000000E+00 0.  1.
         22    1    3    3    0    0 -0.54150864228E+01 -0.34386068281E+02  0.16848058936E+02  0.38672754527E+02  0.00000000000E+00 0.  1.
</event>
<event>
 7    1  0.6315518E-006  0.1421393E+03  0.7818608E-02  0.1236102E+00
          2   -1    0    0  502    0  0.00000000000E+00  0.00000000000E+00  0.27849543831E+03  0.27849543831E+03  0.00000000000E+00 0. -1.
          1   -1    0    0  501    0 -0.00000000000E+00 -0.00000000000E+00 -0.81662564104E+03  0.81662564104E+03  0.00000000000E+00 0. -1.
         25    2    1    2    0    0  0.20328092195E+02  0.59483847627E+02 -0.13381799367E+03  0.19361995550E+03  0.12501948760E+03 0.  0.
          2    1    1    2  501    0  0.10268162528E+03  0.35888175339E+02 -0.62336255546E+03  0.63278144161E+03  0.00000000000E+00 0. -1.
          1    1    1    2  502    0 -0.12300971747E+03 -0.95372022966E+02  0.21905034640E+03  0.26871968223E+03  0.00000000000E+00 0. -1.
         22    1    3    3    0    0 -0.50837209516E+02  0.14646322077E+02 -0.33132094338E+02  0.62423331352E+02  0.00000000000E+00 0.  1.
         22    1    3    3    0    0  0.71165301711E+02  0.44837525550E+02 -0.10068589933E+03  0.13119662415E+03  0.00000000000E+00 0.  1.
</event>
<event>
 7    1  0.6315518E-006  0.1333927E+03  0.7818608E-02  0.1383071E+00
          2   -1    0    0  502    0  0.00000000000E+00  0.00000000000E+00  0.16275524664E+04  0.16275524664E+04  0.00000000000E+00 0. -1.
          1   -1    0    0  501    0 -0.00000000000E+00 -0.00000000000E+00 -0.32598769451E+03  0.32598769451E+03  0.00000000000E+00 0. -1.
         25    2    1    2    0    0 -0.90117546613E+02  0.12726130275E+03 -0.73126134704E+02  0.21281304850E+03  0.12500140260E+03 0.  0.
          2    1    1    2  501    0  0.67753475771E+02 -0.10669306508E+03 -0.16102972941E+03  0.20470592900E+03  0.00000000000E+00 0. -1.
          1    1    1    2  502    0  0.22364070841E+02 -0.20568237672E+02  0.15357206360E+04  0.15360211834E+04  0.00000000000E+00 0. -1.
         22    1    3    3    0    0 -0.10786932632E+03  0.58335787231E+02 -0.70793455499E+02  0.14160003169E+03  0.00000000000E+00 0. -1.
         22    1    3    3    0    0  0.17751779704E+02  0.68925515518E+02 -0.23326792053E+01  0.71213016818E+02  0.00000000000E+00 0. -1.
</event>
<event>
 7    1  0.1388961E-005  0.6224563E+02  0.7818608E-02  0.1417868E+00
          2   -1    0    0  502    0  0.00000000000E+00  0.00000000000E+00  0.21469469269E+04  0.21469469269E+04  0.00000000000E+00 0. -1.
          1   -1    0    0  501    0 -0.00000000000E+00 -0.00000000000E+00 -0.10512549260E+04  0.10512549260E+04  0.00000000000E+00 0. -1.
         25    2    1    2    0    0 -0.12465217362E+02 -0.80726078223E+01 -0.25998230965E+03  0.28885449713E+03  0.12500228213E+03 0.  0.
          2    1    1    2  501    0 -0.19505989491E+02 -0.45429521118E+02 -0.77559385866E+03  0.77716803756E+03  0.00000000000E+00 0. -1.
          1    1    1    2  502    0  0.31971206853E+02  0.53502128940E+02  0.21312681692E+04  0.21321793182E+04  0.00000000000E+00 0. -1.
         22    1    3    3    0    0  0.41674800285E+02 -0.94644099363E+01 -0.29093670987E+02  0.51699184962E+02  0.00000000000E+00 0. -1.
         22    1    3    3    0    0 -0.54140017646E+02  0.13918021140E+01 -0.23088863866E+03  0.23715531216E+03  0.00000000000E+00 0. -1.
</event>
<event>
 7    1  0.6315518E-006  0.1215801E+03  0.7818608E-02  0.1249167E+00
          2   -1    0    0  502    0  0.00000000000E+00  0.00000000000E+00  0.99964887024E+03  0.99964887024E+03  0.00000000000E+00 0. -1.
          1   -1    0    0  501    0 -0.00000000000E+00 -0.00000000000E+00 -0.56285243731E+03  0.56285243731E+03  0.00000000000E+00 0. -1.
         25    2    1    2    0    0 -0.20702687668E+01  0.45790628797E+02  0.65801622686E+03  0.67135760223E+03  0.12503842439E+03 0.  0.
          2    1    1    2  501    0  0.11349756995E+03 -0.46458524007E+02 -0.53984298525E+03  0.55359781571E+03  0.00000000000E+00 0. -1.
          1    1    1    2  502    0 -0.11142730118E+03  0.66789520979E+00  0.31862319133E+03  0.33754588960E+03  0.00000000000E+00 0. -1.
         22    1    3    3    0    0  0.16893839928E+02 -0.37503306043E+02  0.32356744007E+03  0.32617140902E+03  0.00000000000E+00 0. -1.
         22    1    3    3    0    0 -0.18964108695E+02  0.83293934840E+02  0.33444878679E+03  0.34518619321E+03  0.00000000000E+00 0. -1.
</event>
<event>
 7    1  0.6315518E-006  0.1893026E+03  0.7818608E-02  0.1200822E+00
          2   -1    0    0  502    0  0.00000000000E+00  0.00000000000E+00  0.81533842213E+03  0.81533842213E+03  0.00000000000E+00 0. -1.
          1   -1    0    0  501    0 -0.00000000000E+00 -0.00000000000E+00 -0.13720381779E+04  0.13720381779E+04  0.00000000000E+00 0. -1.
         25    2    1    2    0    0 -0.14574119078E+03 -0.99153465508E+02  0.32375461541E+03  0.38924632945E+03  0.12499499821E+03 0.  0.
          2    1    1    2  501    0 -0.67623614700E+02  0.97198136086E+02 -0.13116741416E+04  0.13170077770E+04  0.00000000000E+00 0. -1.
          1    1    1    2  502    0  0.21336480548E+03  0.19553294218E+01  0.43121977036E+03  0.48112249364E+03  0.00000000000E+00 0. -1.
         22    1    3    3    0    0 -0.70172053635E+02 -0.11606477588E+03  0.23610949254E+03  0.27229183201E+03  0.00000000000E+00 0.  1.
         22    1    3    3    0    0 -0.75569137147E+02  0.16911310377E+02  0.87645122876E+02  0.11695449744E+03  0.00000000000E+00 0.  1.
</event>
<event>
 7    1  0.6315518E-006  0.9918654E+02  0.7818608E-02  0.1321301E+00
          2   -1    0    0  502    0  0.00000000000E+00  0.00000000000E+00  0.95813754954E+03  0.95813754954E+03  0.00000000000E+00 0. -1.
          1   -1    0    0  501    0 -0.00000000000E+00 -0.00000000000E+00 -0.38849249125E+03  0.38849249125E+03  0.00000000000E+00 0. -1.
         25    2    1    2    0    0  0.14834264543E+03  0.73760718973E+02  0.12207935598E+03  0.24077928695E+03  0.12500044700E+03 0.  0.
          2    1    1    2  501    0 -0.85870388884E+02 -0.44201038064E+02 -0.32047264924E+03  0.33470908916E+03  0.00000000000E+00 0. -1.
          1    1    1    2  502    0 -0.62472256541E+02 -0.29559680909E+02  0.76803835154E+03  0.77114166469E+03  0.00000000000E+00 0. -1.
         22    1    3    3    0    0  0.10538827347E+03  0.40189173347E+02  0.64890754641E+01  0.11297772320E+03  0.00000000000E+00 0. -1.
         22    1    3    3    0    0  0.42954371960E+02  0.33571545626E+02  0.11559028052E+03  0.12780156375E+03  0.00000000000E+00 0. -1.
</event>
<event>
 7    1  0.6315518E-006  0.1180119E+03  0.7818608E-02  0.1386317E+00
          2   -1    0    0  502    0  0.00000000000E+00  0.00000000000E+00  0.77874608137E+03  0.77874608137E+03  0.00000000000E+00 0. -1.
          1   -1    0    0  501    0 -0.00000000000E+00 -0.00000000000E+00 -0.18393277103E+03  0.18393277103E+03  0.00000000000E+00 0. -1.
         25    2    1    2    0    0 -0.13970123893E+03 -0.41848702793E+02  0.21764543633E+03  0.29027942278E+03  0.12499942900E+03 0.  0.
          2    1    1    2  501    0  0.29317308031E+02  0.16112552646E+02 -0.13949487814E+03  0.14345013046E+03  0.00000000000E+00 0. -1.
          1    1    1    2  502    0  0.11038393090E+03  0.25736150147E+02  0.51666275214E+03  0.52894929916E+03  0.00000000000E+00 0. -1.
         22    1    3    3    0    0 -0.83923785721E+02 -0.64823040347E+02  0.20171029010E+03  0.22788652769E+03  0.00000000000E+00 0. -1.
         22    1    3    3    0    0 -0.55777453208E+02  0.22974337554E+02  0.15935146232E+02  0.62392895091E+02  0.00000000000E+00 0. -1.
</event>
<event>
 7    1  0.7212081E-006  0.8704825E+02  0.7818608E-02  0.1345514E+00
          2   -1    0    0  502    0  0.00000000000E+00  0.00000000000E+00  0.86406164275E+03  0.86406164275E+03  0.00000000000E+00 0. -1.
          1   -1    0    0  501    0 -0.00000000000E+00 -0.00000000000E+00 -0.28018507554E+04  0.28018507554E+04  0.00000000000E+00 0. -1.
         25    2    1    2    0    0 -0.26649974759E+02 -0.17089878625E+02 -0.20819649705E+03  0.24489312465E+03  0.12499830404E+03 0.  0.
          2    1    1    2  501    0  0.89371155948E+02  0.58931514402E+01 -0.25733257716E+04  0.25748839701E+04  0.00000000000E+00 0. -1.
          1    1    1    2  502    0 -0.62721181189E+02  0.11196727185E+02  0.84373315595E+03  0.84613530343E+03  0.00000000000E+00 0. -1.
         22    1    3    3    0    0 -0.18680571227E+02 -0.66749692054E+02 -0.16358343144E+03  0.17766266961E+03  0.00000000000E+00 0.  1.
         22    1    3    3    0    0 -0.79694035321E+01  0.49659813429E+02 -0.44613065602E+02  0.67230455040E+02  0.00000000000E+00 0.  1.
</event>
<event>
 7    1  0.6315518E-006  0.2029974E+03  0.7818608E-02  0.1182947E+00
          2   -1    0    0  502    0  0.00000000000E+00  0.00000000000E+00  0.13827456458E+04  0.13827456458E+04  0.00000000000E+00 0. -1.
          1   -1    0    0  501    0 -0.00000000000E+00 -0.00000000000E+00 -0.13818939946E+04  0.13818939946E+04  0.00000000000E+00 0. -1.
         25    2    1    2    0    0  0.21418930242E+02 -0.17816566522E+03  0.13181727247E+02  0.21909025562E+03  0.12500002935E+03 0.  0.
          2    1    1    2  501    0  0.11296254750E+03  0.17414879933E+03 -0.12669018943E+04  0.12837946686E+04  0.00000000000E+00 0. -1.
          1    1    1    2  502    0 -0.13438147774E+03  0.40168658880E+01  0.12545718182E+04  0.12617547162E+04  0.00000000000E+00 0. -1.
         22    1    3    3    0    0  0.33685396824E+02 -0.81086768407E+02 -0.51499619290E+02  0.10179381492E+03  0.00000000000E+00 0. -1.
         22    1    3    3    0    0 -0.12266466582E+02 -0.97078896815E+02  0.64681346537E+02  0.11729644069E+03  0.00000000000E+00 0. -1.
</event>
<event>
 7    1  0.6315518E-006  0.2232433E+03  0.7818608E-02  0.1218323E+00
          2   -1    0    0  502    0  0.00000000000E+00  0.00000000000E+00  0.15047887308E+04  0.15047887308E+04  0.00000000000E+00 0. -1.
          1   -1    0    0  501    0 -0.00000000000E+00 -0.00000000000E+00 -0.79283315307E+03  0.79283315307E+03  0.00000000000E+00 0. -1.
         25    2    1    2    0    0 -0.25709468903E+03  0.12070806513E+03  0.66707459738E+03  0.73571814122E+03  0.12499819488E+03 0.  0.
          2    1    1    2  501    0  0.73151280047E+02 -0.39807114901E+02 -0.74358482312E+03  0.74823399103E+03  0.00000000000E+00 0. -1.
          1    1    1    2  502    0  0.18394340899E+03 -0.80900950232E+02  0.78846580343E+03  0.81366975158E+03  0.00000000000E+00 0. -1.
         22    1    3    3    0    0 -0.62402566365E+02  0.63194868414E+02  0.10180499838E+03  0.13509970162E+03  0.00000000000E+00 0.  1.
         22    1    3    3    0    0 -0.19469212267E+03  0.57513196718E+02  0.56526959900E+03  0.60061843960E+03  0.00000000000E+00 0.  1.
</event>
<event>
 7    1  0.6315518E-006  0.8984039E+02  0.7818608E-02  0.1379256E+00
          2   -1    0    0  502    0  0.00000000000E+00  0.00000000000E+00  0.10604823789E+04  0.10604823789E+04  0.00000000000E+00 0. -1.
          1   -1    0    0  501    0 -0.00000000000E+00 -0.00000000000E+00 -0.53771238974E+03  0.53771238974E+03  0.00000000000E+00 0. -1.
         25    2    1    2    0    0 -0.11459717394E+03  0.27428430059E+02  0.63294006122E+03  0.65583596105E+03  0.12499142235E+03 0.  0.
          2    1    1    2  501    0  0.88988230569E+02  0.11428590263E+02 -0.52111768114E+03  0.52878460213E+03  0.00000000000E+00 0. -1.
          1    1    1    2  502    0  0.25608943369E+02 -0.38857020322E+02  0.41094760913E+03  0.41357420550E+03  0.00000000000E+00 0. -1.
         22    1    3    3    0    0 -0.95869221001E+02  0.73854760898E+02  0.41976352720E+03  0.43686022022E+03  0.00000000000E+00 0. -1.
         22    1    3    3    0    0 -0.18727952937E+02 -0.46426330838E+02  0.21317653402E+03  0.21897574083E+03  0.00000000000E+00 0. -1.
</event>
<event>
 7    1  0.6315518E-006  0.8070516E+02  0.7818608E-02  0.1350399E+00
          2   -1    0    0  502    0  0.00000000000E+00  0.00000000000E+00  0.15275622328E+04  0.15275622328E+04  0.00000000000E+00 0. -1.
          1   -1    0    0  501    0 -0.00000000000E+00 -0.00000000000E+00 -0.86614826801E+02  0.86614826801E+02  0.00000000000E+00 0. -1.
         25    2    1    2    0    0 -0.50961722281E+02 -0.68864537413E+01  0.35678046882E+02  0.13979570470E+03  0.12500158255E+03 0.  0.
          2    1    1    2  501    0  0.10548801964E+03  0.43907034317E+02  0.62967465057E+02  0.13046245286E+03  0.00000000000E+00 0. -1.
          1    1    1    2  502    0 -0.54526297356E+02 -0.37020580575E+02  0.13423018941E+04  0.13439189020E+04  0.00000000000E+00 0. -1.
         22    1    3    3    0    0 -0.39808153280E+02  0.37269233767E+02 -0.28163331781E+02  0.61374735113E+02  0.00000000000E+00 0.  1.
         22    1    3    3    0    0 -0.11153569001E+02 -0.44155687509E+02  0.63841378663E+02  0.78420969584E+02  0.00000000000E+00 0.  1.
</event>
<event>
 7    1  0.6315518E-006  0.6142273E+02  0.7818608E-02  0.1401430E+00
          2   -1    0    0  502    0  0.00000000000E+00  0.00000000000E+00  0.25827540387E+03  0.25827540387E+03  0.00000000000E+00 0. -1.
          1   -1    0    0  501    0 -0.00000000000E+00 -0.00000000000E+00 -0.20031197120E+04  0.20031197120E+04  0.00000000000E+00 0. -1.
         25    2    1    2    0    0 -0.98718261956E+02  0.60835937223E+02 -0.12722319428E+03  0.21273712109E+03  0.12500014010E+03 0.  0.
          2    1    1    2  501    0  0.56398095035E+02 -0.22707018237E+02 -0.18288616105E+04  0.18298718928E+04  0.00000000000E+00 0. -1.
          1    1    1    2  502    0  0.42320166921E+02 -0.38128918986E+02  0.21124049664E+03  0.21878610196E+03  0.00000000000E+00 0. -1.
         22    1    3    3    0    0 -0.11319583982E+03  0.84613147756E+02 -0.95684003563E+02  0.17066959736E+03  0.00000000000E+00 0. -1.
         22    1    3    3    0    0  0.14477577863E+02 -0.23777210533E+02 -0.31539190718E+02  0.42067523728E+02  0.00000000000E+00 0. -1.
</event>
<event>
 7    1  0.6315518E-006  0.5190443E+02  0.7818608E-02  0.1484178E+00
          2   -1    0    0  502    0  0.00000000000E+00  0.00000000000E+00  0.33720756228E+03  0.33720756228E+03  0.00000000000E+00 0. -1.
          1   -1    0    0  501    0 -0.00000000000E+00 -0.00000000000E+00 -0.30878040570E+03  0.30878040570E+03  0.00000000000E+00 0. -1.
         25    2    1    2    0    0 -0.15709947630E+02 -0.11389957951E+02 -0.59758918402E+02  0.13990194864E+03  0.12499957323E+03 0.  0.
          2    1    1    2  501    0  0.50977566097E+02  0.20369172324E+02 -0.20419663970E+03  0.21144711653E+03  0.00000000000E+00 0. -1.
          1    1    1    2  502    0 -0.35267618467E+02 -0.89792143728E+01  0.29238271468E+03  0.29463890281E+03  0.00000000000E+00 0. -1.
         22    1    3    3    0    0 -0.57338250548E+02  0.28950788008E+02 -0.49362243387E+02  0.81008975888E+02  0.00000000000E+00 0.  1.
         22    1    3    3    0    0  0.41628302919E+02 -0.40340745959E+02 -0.10396675015E+02  0.58892972754E+02  0.00000000000E+00 0.  1.
</event>
<event>
 7    1  0.6315518E-006  0.4876224E+02  0.7818608E-02  0.1501497E+00
          2   -1    0    0  502    0  0.00000000000E+00  0.00000000000E+00  0.15376132434E+04  0.15376132434E+04  0.00000000000E+00 0. -1.
          1   -1    0    0  501    0 -0.00000000000E+00 -0.00000000000E+00 -0.23556546486E+04  0.23556546486E+04  0.00000000000E+00 0. -1.
         25    2    1    2    0    0  0.24486181669E+02  0.19182258925E+02  0.14184832545E+03  0.19160671654E+03  0.12499861695E+03 0.  0.
          2    1    1    2  501    0 -0.17515623400E+02  0.29549831471E+02 -0.23302068805E+04  0.23304600609E+04  0.00000000000E+00 0. -1.
          1    1    1    2  502    0 -0.69705582685E+01 -0.48732090396E+02  0.13703171499E+04  0.13712011145E+04  0.00000000000E+00 0. -1.
         22    1    3    3    0    0  0.63879788876E+02  0.42523123591E+02  0.11582321259E+03  0.13893833180E+03  0.00000000000E+00 0. -1.
         22    1    3    3    0    0 -0.39393607207E+02 -0.23340864667E+02  0.26025112854E+02  0.52668384742E+02  0.00000000000E+00 0. -1.
</event>
<event>
 7    1  0.6315518E-006  0.2273228E+03  0.7818608E-02  0.1343720E+00
          2   -1    0    0  502    0  0.00000000000E+00  0.00000000000E+00  0.52087544155E+03  0.52087544155E+03  0.00000000000E+00 0. -1.
          1   -1    0    0  501    0 -0.00000000000E+00 -0.00000000000E+00 -0.15840441773E+03  0.15840441773E+03  0.00000000000E+00 0. -1.
         25    2    1    2    0    0  0.23292276695E+03  0.17265821703E+02  0.42718091882E+02  0.26833014217E+03  0.12500042343E+03 0.  0.
          2    1    1    2  501    0 -0.21705830505E+03  0.17659036517E+01  0.22350425494E+03  0.31156312070E+03  0.00000000000E+00 0. -1.
          1    1    1    2  502    0 -0.15864461899E+02 -0.19031725355E+02  0.96248677003E+02  0.99386596411E+02  0.00000000000E+00 0. -1.
         22    1    3    3    0    0  0.97165500749E+02  0.57517891431E+02 -0.17860100578E+02  0.11431721464E+03  0.00000000000E+00 0. -1.
         22    1    3    3    0    0  0.13575726620E+03 -0.40252069728E+02  0.60578192459E+02  0.15401292753E+03  0.00000000000E+00 0. -1.
</event>
<event>
 7    1  0.6315518E-006  0.7829825E+02  0.7818608E-02  0.1465335E+00
          2   -1    0    0  502    0  0.00000000000E+00  0.00000000000E+00  0.10946657390E+04  0.10946657390E+04  0.00000000000E+00 0. -1.
          1   -1    0    0  501    0 -0.00000000000E+00 -0.00000000000E+00 -0.39406096317E+03  0.39406096317E+03  0.00000000000E+00 0. -1.
         25    2    1    2    0    0 -0.40461318185E+02 -0.31278702652E+02  0.62242214354E+03  0.63690632741E+03  0.12499947843E+03 0.  0.
          2    1    1    2  501    0  0.59125157639E+02  0.51593183115E+02 -0.38242227089E+03  0.39039010500E+03  0.00000000000E+00 0. -1.
          1    1    1    2  502    0 -0.18663839454E+02 -0.20314480464E+02  0.46060490313E+03  0.46143026971E+03  0.00000000000E+00 0. -1.
         22    1    3    3    0    0 -0.77181690955E+02  0.11311397694E+02  0.32657374657E+03  0.33576088677E+03  0.00000000000E+00 0. -1.
         22    1    3    3    0    0  0.36720372771E+02 -0.42590100346E+02  0.29584839698E+03  0.30114544064E+03  0.00000000000E+00 0. -1.
</event>
<event>
 7    1  0.6315518E-006  0.2824616E+02  0.7818608E-02  0.1650718E+00
          2   -1    0    0  502    0  0.00000000000E+00  0.00000000000E+00  0.46817278883E+03  0.46817278883E+03  0.00000000000E+00 0. -1.
          1   -1    0    0  501    0 -0.00000000000E+00 -0.00000000000E+00 -0.43628861689E+03  0.43628861689E+03  0.00000000000E+00 0. -1.
         25    2    1    2    0    0 -0.14690647340E+02 -0.22511653422E+02  0.97870161262E+02  0.16101773884E+03  0.12500221636E+03 0.  0.
          2    1    1    2  501    0  0.28096983157E+02  0.32840568552E+01 -0.40381391499E+03  0.40480353684E+03  0.00000000000E+00 0. -1.
          1    1    1    2  502    0 -0.13406335818E+02  0.19227596567E+02  0.33782792568E+03  0.33864013005E+03  0.00000000000E+00 0. -1.
         22    1    3    3    0    0 -0.36912652898E+02 -0.67664818588E+02  0.65782899548E+02  0.10133341745E+03  0.00000000000E+00 0.  1.
         22    1    3    3    0    0  0.22222005558E+02  0.45153165166E+02  0.32087261714E+02  0.59684321391E+02  0.00000000000E+00 0.  1.
</event>
<event>
 7    1  0.6315518E-006  0.1231475E+03  0.7818608E-02  0.1343828E+00
          2   -1    0    0  502    0  0.00000000000E+00  0.00000000000E+00  0.34150316364E+03  0.34150316364E+03  0.00000000000E+00 0. -1.
          1   -1    0    0  501    0 -0.00000000000E+00 -0.00000000000E+00 -0.98231947895E+03  0.98231947895E+03  0.00000000000E+00 0. -1.
         25    2    1    2    0    0 -0.89604883731E+02 -0.92298160344E+02 -0.27560102377E+03  0.32882880687E+03  0.12499789731E+03 0.  0.
          2    1    1    2  501    0 -0.22016770043E+02  0.40040101790E+02 -0.66723312987E+03  0.66879593114E+03  0.00000000000E+00 0. -1.
          1    1    1    2  502    0  0.11162165377E+03  0.52258058554E+02  0.30201783834E+03  0.32619790457E+03  0.00000000000E+00 0. -1.
         22    1    3    3    0    0 -0.10717090403E+03 -0.75476034229E+02 -0.27483626852E+03  0.30449500637E+03  0.00000000000E+00 0. -1.
         22    1    3    3    0    0  0.17566020296E+02 -0.16822126116E+02 -0.76475525336E+00  0.24333800498E+02  0.00000000000E+00 0. -1.
</event>
<event>
 7    1  0.6315518E-006  0.4761909E+02  0.7818608E-02  0.1489656E+00
          2   -1    0    0  502    0  0.00000000000E+00  0.00000000000E+00  0.25868898151E+04  0.25868898151E+04  0.00000000000E+00 0. -1.
          1   -1    0    0  501    0 -0.00000000000E+00 -0.00000000000E+00 -0.36240133358E+02  0.36240133358E+02  0.00000000000E+00 0. -1.
         25    2    1    2    0    0 -0.67881087678E+02 -0.33132014364E+02  0.16483272333E+04  0.16547848834E+04  0.12499907872E+03 0.  0.
          2    1    1    2  501    0  0.29881000291E+02  0.36795287723E+02 -0.15392278706E+02  0.49836629308E+02  0.00000000000E+00 0. -1.
          1    1    1    2  502    0  0.38000087387E+02 -0.36632733590E+01  0.91771472715E+03  0.91850843580E+03  0.00000000000E+00 0. -1.
         22    1    3    3    0    0 -0.62911869837E+02  0.38812985316E+02  0.82398725945E+03  0.82729641298E+03  0.00000000000E+00 0.  1.
         22    1    3    3    0    0 -0.49692178406E+01 -0.71944999679E+02  0.82433997386E+03  0.82748847038E+03  0.00000000000E+00 0.  1.
</event>
<event>
 7    1  0.6315518E-006  0.9528927E+02  0.7818608E-02  0.1395888E+00
          2   -1    0    0  502    0  0.00000000000E+00  0.00000000000E+00  0.13897702810E+04  0.13897702810E+04  0.00000000000E+00 0. -1.
          1   -1    0    0  501    0 -0.00000000000E+00 -0.00000000000E+00 -0.65642721695E+03  0.65642721695E+03  0.00000000000E+00 0. -1.
         25    2    1    2    0    0 -0.33947152180E+02  0.58911439128E+02 -0.42992202598E+03  0.45285816284E+03  0.12499840171E+03 0.  0.
          2    1    1    2  501    0  0.16126247894E+02  0.34815000146E+02 -0.21165931406E+03  0.21510882208E+03  0.00000000000E+00 0. -1.
          1    1    1    2  502    0  0.17820904285E+02 -0.93726439273E+02  0.13749244041E+04  0.13782305131E+04  0.00000000000E+00 0. -1.
         22    1    3    3    0    0 -0.57844868128E+02  0.60556776607E+01 -0.34591183728E+03  0.35076730060E+03  0.00000000000E+00 0. -1.
         22    1    3    3    0    0  0.23897715948E+02  0.52855761467E+02 -0.84010188700E+02  0.10209086224E+03  0.00000000000E+00 0. -1.
</event>
<event>
 7    1  0.6315518E-006  0.5394519E+02  0.7818608E-02  0.1475882E+00
          2   -1    0    0  502    0  0.00000000000E+00  0.00000000000E+00  0.26853550601E+04  0.26853550601E+04  0.00000000000E+00 0. -1.
          1   -1    0    0  501    0 -0.00000000000E+00 -0.00000000000E+00 -0.10393266230E+03  0.10393266230E+03  0.00000000000E+00 0. -1.
         25    2    1    2    0    0  0.40988583265E+02 -0.16813830508E+02  0.18680625765E+04  0.18727641508E+04  0.12500002312E+03 0.  0.
          2    1    1    2  501    0 -0.50553700644E+02 -0.19061947936E+02 -0.93940948088E+02  0.10836944327E+03  0.00000000000E+00 0. -1.
          1    1    1    2  502    0  0.95651173795E+01  0.35875778444E+02  0.80730076931E+03  0.80815412829E+03  0.00000000000E+00 0. -1.
         22    1    3    3    0    0  0.13358571406E+02 -0.64723103945E+02  0.13793291476E+04  0.13809114487E+04  0.00000000000E+00 0.  1.
         22    1    3    3    0    0  0.27630011858E+02  0.47909273437E+02  0.48873342894E+03  0.49185270213E+03  0.00000000000E+00 0.  1.
</event>
<event>
 7    1  0.6315518E-006  0.1008705E+03  0.7818608E-02  0.1395082E+00
          2   -1    0    0  502    0  0.00000000000E+00  0.00000000000E+00  0.25333193832E+04  0.25333193832E+04  0.00000000000E+00 0. -1.
          1   -1    0    0  501    0 -0.00000000000E+00 -0.00000000000E+00 -0.71833317823E+03  0.71833317823E+03  0.00000000000E+00 0. -1.
         25    2    1    2    0    0  0.85148080326E+02  0.35574418491E+00  0.47193327463E+03  0.49557673119E+03  0.12499983462E+03 0.  0.
          2    1    1    2  501    0  0.12158576140E+02 -0.34393149580E+02 -0.70474314193E+03  0.70568662720E+03  0.00000000000E+00 0. -1.
          1    1    1    2  502    0 -0.97306656466E+02  0.34037405395E+02  0.20477960723E+04  0.20503892030E+04  0.00000000000E+00 0. -1.
         22    1    3    3    0    0  0.14792073355E+02 -0.45565092589E+02  0.69142363852E+02  0.84116880445E+02  0.00000000000E+00 0.  1.
         22    1    3    3    0    0  0.70356006971E+02  0.45920836774E+02  0.40279091078E+03  0.41145985074E+03  0.00000000000E+00 0.  1.
</event>
<event>
 7    1  0.6315518E-006  0.1316286E+03  0.7818608E-02  0.1262292E+00
          2   -1    0    0  502    0  0.00000000000E+00  0.00000000000E+00  0.10725627343E+04  0.10725627343E+04  0.00000000000E+00 0. -1.
          1   -1    0    0  501    0 -0.00000000000E+00 -0.00000000000E+00 -0.75468170061E+03  0.75468170061E+03  0.00000000000E+00 0. -1.
         25    2    1    2    0    0 -0.57734604296E+02  0.29825249776E+02 -0.47406536404E+02  0.14864197053E+03  0.12499690257E+03 0.  0.
          2    1    1    2  501    0 -0.43790969228E+01  0.90279863457E+02 -0.64903930876E+03  0.65530271978E+03  0.00000000000E+00 0. -1.
          1    1    1    2  502    0  0.62113701219E+02 -0.12010511323E+03  0.10143268789E+04  0.10232997446E+04  0.00000000000E+00 0. -1.
         22    1    3    3    0    0 -0.10692387838E+02  0.25980895086E+02 -0.84220903170E+02  0.88783413980E+02  0.00000000000E+00 0.  1.
         22    1    3    3    0    0 -0.47042216458E+02  0.38443546900E+01  0.36814366766E+02  0.59858556554E+02  0.00000000000E+00 0.  1.
</event>
<event>
 7    1  0.6315518E-006  0.9408304E+02  0.7818608E-02  0.1455708E+00
          2   -1    0    0  502    0  0.00000000000E+00  0.00000000000E+00  0.24619752608E+03  0.24619752608E+03  0.00000000000E+00 0. -1.
          1   -1    0    0  501    0 -0.00000000000E+00 -0.00000000000E+00 -0.27596735428E+04  0.27596735428E+04  0.00000000000E+00 0. -1.
         25    2    1    2    0    0 -0.30852220536E+02  0.89090524889E+02 -0.40514276311E+03  0.43434071625E+03  0.12498887213E+03 0.  0.
          2    1    1    2  501    0  0.52858792835E+02 -0.78052273303E+02 -0.23383251415E+04  0.23402244928E+04  0.00000000000E+00 0. -1.
          1    1    1    2  502    0 -0.22006572298E+02 -0.11038251586E+02  0.22999188797E+03  0.23130585975E+03  0.00000000000E+00 0. -1.
         22    1    3    3    0    0  0.37744987971E+01  0.11374907150E+03 -0.30537508504E+03  0.32589421700E+03  0.00000000000E+00 0. -1.
         22    1    3    3    0    0 -0.34626719333E+02 -0.24658546614E+02 -0.99767678070E+02  0.10844649925E+03  0.00000000000E+00 0. -1.
</event>
<event>
 7    1  0.6315518E-006  0.1324536E+03  0.7818608E-02  0.1266817E+00
          2   -1    0    0  502    0  0.00000000000E+00  0.00000000000E+00  0.73916592249E+03  0.73916592249E+03  0.00000000000E+00 0. -1.
          1   -1    0    0  501    0 -0.00000000000E+00 -0.00000000000E+00 -0.25493343726E+03  0.25493343726E+03  0.00000000000E+00 0. -1.
         25    2    1    2    0    0  0.25124741563E+01 -0.91734323017E+02  0.45024121211E+01  0.15512935528E+03  0.12499338626E+03 0.  0.
          2    1    1    2  501    0  0.84518857282E+02 -0.15589253205E+02 -0.16154120626E+03  0.18298093718E+03  0.00000000000E+00 0. -1.
          1    1    1    2  502    0 -0.87031331438E+02  0.10732357622E+03  0.64127127936E+03  0.65598906729E+03  0.00000000000E+00 0. -1.
         22    1    3    3    0    0  0.25285296821E+02 -0.11149634303E+03 -0.20264584518E+02  0.11610957812E+03  0.00000000000E+00 0.  1.
         22    1    3    3    0    0 -0.22772822665E+02  0.19762020017E+02  0.24766996640E+02  0.39019777163E+02  0.00000000000E+00 0.  1.
</event>
<event>
 7    1  0.6315518E-006  0.7741415E+02  0.7818608E-02  0.1377878E+00
          2   -1    0    0  502    0  0.00000000000E+00  0.00000000000E+00  0.24481512349E+03  0.24481512349E+03  0.00000000000E+00 0. -1.
          1   -1    0    0  501    0 -0.00000000000E+00 -0.00000000000E+00 -0.26292784608E+03  0.26292784608E+03  0.00000000000E+00 0. -1.
         25    2    1    2    0    0 -0.71722507443E+02 -0.34710518752E+02  0.17609244313E+03  0.23017913837E+03  0.12499979612E+03 0.  0.
          2    1    1    2  501    0  0.31289034749E+02  0.71429501539E+02 -0.20722756359E+03  0.22141463478E+03  0.00000000000E+00 0. -1.
          1    1    1    2  502    0  0.40433472695E+02 -0.36718982787E+02  0.13022397874E+02  0.56149196410E+02  0.00000000000E+00 0. -1.
         22    1    3    3    0    0 -0.57052461634E+02 -0.80877664687E+02  0.10654214476E+03  0.14542148615E+03  0.00000000000E+00 0. -1.
         22    1    3    3    0    0 -0.14670045810E+02  0.46167145935E+02  0.69550298361E+02  0.84757652220E+02  0.00000000000E+00 0. -1.
</event>
<event>
 7    1  0.6315518E-006  0.6139449E+02  0.7818608E-02  0.1466969E+00
          2   -1    0    0  502    0  0.00000000000E+00  0.00000000000E+00  0.18876210329E+02  0.18876210329E+02  0.00000000000E+00 0. -1.
          1   -1    0    0  501    0 -0.00000000000E+00 -0.00000000000E+00 -0.93920244491E+03  0.93920244491E+03  0.00000000000E+00 0. -1.
         25    2    1    2    0    0 -0.29936330357E+02 -0.21622191898E+02 -0.43186204530E+03  0.45110268630E+03  0.12500041743E+03 0.  0.
          2    1    1    2  501    0 -0.15708884895E+02 -0.31019345357E+02 -0.35238638134E+03  0.35409762863E+03  0.00000000000E+00 0. -1.
          1    1    1    2  502    0  0.45645215252E+02  0.52641537256E+02 -0.13607780794E+03  0.15287834030E+03  0.00000000000E+00 0. -1.
         22    1    3    3    0    0  0.40703405184E+02 -0.19086052726E+02 -0.76103895192E+02  0.88390313189E+02  0.00000000000E+00 0. -1.
         22    1    3    3    0    0 -0.70639735541E+02 -0.25361391724E+01 -0.35575815011E+03  0.36271237311E+03  0.00000000000E+00 0. -1.
</event>
<event>
 7    1  0.6315518E-006  0.6126070E+02  0.7818608E-02  0.1445306E+00
          2   -1    0    0  502    0  0.00000000000E+00  0.00000000000E+00  0.36477975278E+03  0.36477975278E+03  0.00000000000E+00 0. -1.
          1   -1    0    0  501    0 -0.00000000000E+00 -0.00000000000E+00 -0.20465817545E+03  0.20465817545E+03  0.00000000000E+00 0. -1.
         25    2    1    2    0    0  0.26943067552E+02  0.18454471689E+02  0.29628306948E+03  0.32322579628E+03  0.12499904681E+03 0.  0.
          2    1    1    2  501    0 -0.19711996704E+02 -0.58629000873E+02 -0.17758906788E+03  0.18805265111E+03  0.00000000000E+00 0. -1.
          1    1    1    2  502    0 -0.72310708476E+01  0.40174529184E+02  0.41427575735E+02  0.58159480844E+02  0.00000000000E+00 0. -1.
         22    1    3    3    0    0  0.42965720768E+02  0.60402307331E+02  0.24022202150E+03  0.25139831246E+03  0.00000000000E+00 0. -1.
         22    1    3    3    0    0 -0.16022653216E+02 -0.41947835643E+02  0.56061047981E+02  0.71827483820E+02  0.00000000000E+00 0. -1.
</event>
<event>
 7    1  0.6315518E-006  0.5491454E+02  0.7818608E-02  0.1548332E+00
          2   -1    0    0  502    0  0.00000000000E+00  0.00000000000E+00  0.54037678797E+03  0.54037678797E+03  0.00000000000E+00 0. -1.
          1   -1    0    0  501    0 -0.00000000000E+00 -0.00000000000E+00 -0.57655123878E+03  0.57655123878E+03  0.00000000000E+00 0. -1.
         25    2    1    2    0    0 -0.23353928976E+02  0.48172617561E+02 -0.13453234617E+03  0.19128491956E+03  0.12499984481E+03 0.  0.
          2    1    1    2  501    0 -0.18497690294E+02 -0.12537126363E+02 -0.41186354084E+03  0.41246929626E+03  0.00000000000E+00 0. -1.
          1    1    1    2  502    0  0.41851619269E+02 -0.35635491199E+02  0.51022143620E+03  0.51317381093E+03  0.00000000000E+00 0. -1.
         22    1    3    3    0    0  0.34676563997E+01  0.28076946441E+02  0.19038268273E+02  0.34099783301E+02  0.00000000000E+00 0.  1.
         22    1    3    3    0    0 -0.26821585375E+02  0.20095671121E+02 -0.15357061444E+03  0.15718513626E+03  0.00000000000E+00 0.  1.
</event>
<event>
 7    1  0.6315518E-006  0.6077785E+02  0.7818608E-02  0.1432181E+00
          2   -1    0    0  502    0  0.00000000000E+00  0.00000000000E+00  0.14309335448E+03  0.14309335448E+03  0.00000000000E+00 0. -1.
          1   -1    0    0  501    0 -0.00000000000E+00 -0.00000000000E+00 -0.19873277103E+04  0.19873277103E+04  0.00000000000E+00 0. -1.
         25    2    1    2    0    0  0.95048191165E+01  0.36469407712E+02  0.60390698773E+02  0.14385047873E+03  0.12500225777E+03 0.  0.
          2    1    1    2  501    0 -0.54108562049E+02 -0.28045563687E+02 -0.19323961515E+04  0.19333569708E+04  0.00000000000E+00 0. -1.
          1    1    1    2  502    0  0.44603742932E+02 -0.84238440253E+01  0.27771096877E+02  0.53213615301E+02  0.00000000000E+00 0. -1.
         22    1    3    3    0    0  0.55512354222E+02 -0.73914302078E+00 -0.49043026019E+01  0.55733472776E+02  0.00000000000E+00 0.  1.
         22    1    3    3    0    0 -0.46007535106E+02  0.37208550733E+02  0.65295001375E+02  0.88117005956E+02  0.00000000000E+00 0.  1.
</event>
<event>
 7    1  0.6315518E-006  0.5913467E+02  0.7818608E-02  0.1484716E+00
          2   -1    0    0  502    0  0.00000000000E+00  0.00000000000E+00  0.39258425288E+04  0.39258425288E+04  0.00000000000E+00 0. -1.
          1   -1    0    0  501    0 -0.00000000000E+00 -0.00000000000E+00 -0.37486943609E+03  0.37486943609E+03  0.00000000000E+00 0. -1.
         25    2    1    2    0    0 -0.90042652574E+01 -0.71940112455E+02  0.79531042833E+03  0.80832731487E+03  0.12497165270E+03 0.  0.
          2    1    1    2  501    0 -0.22665163298E+02  0.22337866453E+02 -0.36739596626E+03  0.36877159046E+03  0.00000000000E+00 0. -1.
          1    1    1    2  502    0  0.31669428555E+02  0.49602246002E+02  0.31230586306E+04  0.31236130596E+04  0.00000000000E+00 0. -1.
         22    1    3    3    0    0  0.33841825431E+02  0.61338725920E+01  0.46346221362E+03  0.46473661034E+03  0.00000000000E+00 0. -1.
         22    1    3    3    0    0 -0.42846090689E+02 -0.78073985047E+02  0.33184821471E+03  0.34359070452E+03  0.00000000000E+00 0. -1.
</event>
<event>
 7    1  0.6315518E-006  0.1395310E+03  0.7818608E-02  0.1407459E+00
          2   -1    0    0  502    0  0.00000000000E+00  0.00000000000E+00  0.11804765805E+04  0.11804765805E+04  0.00000000000E+00 0. -1.
          1   -1    0    0  501    0 -0.00000000000E+00 -0.00000000000E+00 -0.15393843644E+04  0.15393843644E+04  0.00000000000E+00 0. -1.
         25    2    1    2    0    0 -0.11201425734E+02  0.12651125481E+03  0.71316405407E+02  0.19194009437E+03  0.12499760244E+03 0.  0.
          2    1    1    2  501    0 -0.21623048012E+02  0.10213957387E+02 -0.14742625085E+04  0.14744564507E+04  0.00000000000E+00 0. -1.
          1    1    1    2  502    0  0.32824473745E+02 -0.13672521219E+03  0.10440383192E+04  0.10534643998E+04  0.00000000000E+00 0. -1.
         22    1    3    3    0    0 -0.39185888467E+02  0.12435962592E+03  0.89813023655E+02  0.15832633904E+03  0.00000000000E+00 0.  1.
         22    1    3    3    0    0  0.27984462734E+02  0.21516288860E+01 -0.18496618249E+02  0.33613755339E+02  0.00000000000E+00 0.  1.
</event>
<event>
 7    1  0.6315518E-006  0.8903528E+02  0.7818608E-02  0.1346587E+00
          2   -1    0    0  502    0  0.00000000000E+00  0.00000000000E+00  0.14872864358E+04  0.14872864358E+04  0.00000000000E+00 0. -1.
          1   -1    0    0  501    0 -0.00000000000E+00 -0.00000000000E+00 -0.39590308067E+03  0.39590308067E+03  0.00000000000E+00 0. -1.
         25    2    1    2    0    0 -0.13827767311E+03  0.56024837297E+02  0.19501591729E+03  0.27552693792E+03  0.12499755295E+03 0.  0.
          2    1    1    2  501    0  0.79825789675E+02 -0.36208703485E+02 -0.34947113627E+03  0.36029613097E+03  0.00000000000E+00 0. -1.
          1    1    1    2  502    0  0.58451883438E+02 -0.19816133812E+02  0.12458385741E+04  0.12473664476E+04  0.00000000000E+00 0. -1.
         22    1    3    3    0    0 -0.24755463169E+02 -0.39199431910E+02  0.42695992943E+02  0.63026789797E+02  0.00000000000E+00 0. -1.
         22    1    3    3    0    0 -0.11352220994E+03  0.95224269207E+02  0.15231992435E+03  0.21250014812E+03  0.00000000000E+00 0. -1.
</event>
<event>
 7    1  0.6315518E-006  0.2798476E+03  0.7818608E-02  0.1256531E+00
          2   -1    0    0  502    0  0.00000000000E+00  0.00000000000E+00  0.16984688893E+04  0.16984688893E+04  0.00000000000E+00 0. -1.
          1   -1    0    0  501    0 -0.00000000000E+00 -0.00000000000E+00 -0.18019277198E+03  0.18019277198E+03  0.00000000000E+00 0. -1.
         25    2    1    2    0    0  0.24450592682E+03 -0.12382590705E+03  0.50185225480E+03  0.58531747559E+03  0.12499943230E+03 0.  0.
          2    1    1    2  501    0 -0.22826187343E+03  0.16578397660E+03  0.62638196017E+01  0.28218264510E+03  0.00000000000E+00 0. -1.
          1    1    1    2  502    0 -0.16244053398E+02 -0.41958069554E+02  0.10101600429E+04  0.10111615406E+04  0.00000000000E+00 0. -1.
         22    1    3    3    0    0  0.25881817385E+03 -0.11024274453E+03  0.47373489667E+03  0.55096738757E+03  0.00000000000E+00 0.  1.
         22    1    3    3    0    0 -0.14312247030E+02 -0.13583162520E+02  0.28117358127E+02  0.34350088022E+02  0.00000000000E+00 0.  1.
</event>
<event>
 7    1  0.6315518E-006  0.1319112E+03  0.7818608E-02  0.1393860E+00
          2   -1    0    0  502    0  0.00000000000E+00  0.00000000000E+00  0.38237681723E+03  0.38237681723E+03  0.00000000000E+00 0. -1.
          1   -1    0    0  501    0 -0.00000000000E+00 -0.00000000000E+00 -0.36438211822E+03  0.36438211822E+03  0.00000000000E+00 0. -1.
         25    2    1    2    0    0  0.11421569568E+03  0.30523634283E+02  0.17898759263E+03  0.24826935067E+03  0.12499677906E+03 0.  0.
          2    1    1    2  501    0  0.21795454484E+02  0.17844187271E+02 -0.29808317389E+03  0.29941114778E+03  0.00000000000E+00 0. -1.
          1    1    1    2  502    0 -0.13601115017E+03 -0.48367821554E+02  0.13709028028E+03  0.19907843700E+03  0.00000000000E+00 0. -1.
         22    1    3    3    0    0 -0.75656670367E+01 -0.26501297247E+02  0.44169281587E+01  0.27911777583E+02  0.00000000000E+00 0.  1.
         22    1    3    3    0    0  0.12178136272E+03  0.57024931529E+02  0.17457066447E+03  0.22035757309E+03  0.00000000000E+00 0.  1.
</event>
<event>
 7    1  0.6315518E-006  0.9464360E+02  0.7818608E-02  0.1330246E+00
          2   -1    0    0  502    0  0.00000000000E+00  0.00000000000E+00  0.43193055562E+03  0.43193055562E+03  0.00000000000E+00 0. -1.
          1   -1    0    0  501    0 -0.00000000000E+00 -0.00000000000E+00 -0.96057655901E+03  0.96057655901E+03  0.00000000000E+00 0. -1.
         25    2    1    2    0    0 -0.91179121101E+02 -0.84474428233E+02 -0.36151567340E+02  0.17995715998E+03  0.12501232922E+03 0.  0.
          2    1    1    2  501    0  0.24579644310E+02  0.90963339754E+02 -0.84677706610E+03  0.85200345525E+03  0.00000000000E+00 0. -1.
          1    1    1    2  502    0  0.66599476791E+02 -0.64889115214E+01  0.35428263004E+03  0.36054649940E+03  0.00000000000E+00 0. -1.
         22    1    3    3    0    0  0.24400185554E+02 -0.27160562572E+02 -0.35530902662E+02  0.50946150574E+02  0.00000000000E+00 0.  1.
         22    1    3    3    0    0 -0.11557930665E+03 -0.57313865661E+02 -0.62066467803E+00  0.12901100941E+03  0.00000000000E+00 0.  1.
</event>
<event>
 7    1  0.6315518E-006  0.6955735E+02  0.7818608E-02  0.1405410E+00
          2   -1    0    0  502    0  0.00000000000E+00  0.00000000000E+00  0.53450425742E+03  0.53450425742E+03  0.00000000000E+00 0. -1.
          1   -1    0    0  501    0 -0.00000000000E+00 -0.00000000000E+00 -0.13609615498E+03  0.13609615498E+03  0.00000000000E+00 0. -1.
         25    2    1    2    0    0  0.59179643044E+02 -0.54392900892E+02  0.18725812688E+03  0.23906495647E+03  0.12500251803E+03 0.  0.
          2    1    1    2  501    0 -0.12564870937E+02  0.68657421438E+02 -0.97028572731E+02  0.11952514977E+03  0.00000000000E+00 0. -1.
          1    1    1    2  502    0 -0.46614772107E+02 -0.14264520546E+02  0.30817854829E+03  0.31201030616E+03  0.00000000000E+00 0. -1.
         22    1    3    3    0    0  0.81660111874E+02 -0.46653953562E+02  0.64535403746E+02  0.11406043832E+03  0.00000000000E+00 0.  1.
         22    1    3    3    0    0 -0.22480468830E+02 -0.77389473305E+01  0.12272272313E+03  0.12500451815E+03  0.00000000000E+00 0.  1.
</event>
<event>
 7    1  0.6315518E-006  0.4033768E+02  0.7818608E-02  0.1561982E+00
          2   -1    0    0  502    0  0.00000000000E+00  0.00000000000E+00  0.16362490325E+04  0.16362490325E+04  0.00000000000E+00 0. -1.
          1   -1    0    0  501    0 -0.00000000000E+00 -0.00000000000E+00 -0.19574075818E+03  0.19574075818E+03  0.00000000000E+00 0. -1.
         25    2    1    2    0    0  0.19029732178E+02 -0.16685630214E+02  0.19744383557E+03  0.23505418904E+03  0.12500345043E+03 0.  0.
          2    1    1    2  501    0 -0.40558025073E+02 -0.10360807277E+01 -0.17447092141E+03  0.17912601508E+03  0.00000000000E+00 0. -1.
          1    1    1    2  502    0  0.21528292895E+02  0.17721710942E+02  0.14175353602E+04  0.14178095866E+04  0.00000000000E+00 0. -1.
         22    1    3    3    0    0 -0.38560868914E+01  0.45787361501E+02  0.13934193745E+03  0.14672262065E+03  0.00000000000E+00 0.  1.
         22    1    3    3    0    0  0.22885819070E+02 -0.62472991715E+02  0.58101898117E+02  0.88331568383E+02  0.00000000000E+00 0.  1.
</event>
<event>
 7    1  0.6315518E-006  0.6340924E+02  0.7818608E-02  0.1419110E+00
          2   -1    0    0  502    0  0.00000000000E+00  0.00000000000E+00  0.77115055134E+03  0.77115055134E+03  0.00000000000E+00 0. -1.
          1   -1    0    0  501    0 -0.00000000000E+00 -0.00000000000E+00 -0.36190434572E+03  0.36190434572E+03  0.00000000000E+00 0. -1.
         25    2    1    2    0    0  0.41818855803E+02  0.77957245545E+02  0.95369925875E+02  0.18040701004E+03  0.12500047071E+03 0.  0.
          2    1    1    2  501    0  0.12636628443E+02 -0.46379599654E+02 -0.31599928617E+03  0.31963463596E+03  0.00000000000E+00 0. -1.
          1    1    1    2  502    0 -0.54455484245E+02 -0.31577645891E+02  0.62987556592E+03  0.63301325106E+03  0.00000000000E+00 0. -1.
         22    1    3    3    0    0 -0.42158936099E+02  0.47312869648E+02  0.45799599362E+02  0.78188789663E+02  0.00000000000E+00 0.  1.
         22    1    3    3    0    0  0.83977791901E+02  0.30644375897E+02  0.49570326514E+02  0.10221822038E+03  0.00000000000E+00 0.  1.
</event>
<event>
 7    1  0.6315518E-006  0.7669464E+02  0.7818608E-02  0.1491983E+00
          2   -1    0    0  502    0  0.00000000000E+00  0.00000000000E+00  0.15382731732E+04  0.15382731732E+04  0.00000000000E+00 0. -1.
          1   -1    0    0  501    0 -0.00000000000E+00 -0.00000000000E+00 -0.60016809086E+03  0.60016809086E+03  0.00000000000E+00 0. -1.
         25    2    1    2    0    0  0.13160931518E+02 -0.53932304120E+02  0.11459012594E+01  0.13678082881E+03  0.12500311394E+03 0.  0.
          2    1    1    2  501    0 -0.53869286269E+01 -0.22692039008E+02 -0.53108524917E+03  0.53159711203E+03  0.00000000000E+00 0. -1.
          1    1    1    2  502    0 -0.77740028913E+01  0.76624343128E+02  0.14680444302E+04  0.14700633232E+04  0.00000000000E+00 0. -1.
         22    1    3    3    0    0 -0.51639049148E+02 -0.46061095560E+02 -0.11902553877E+02  0.70213151972E+02  0.00000000000E+00 0.  1.
         22    1    3    3    0    0  0.64799980666E+02 -0.78712085600E+01  0.13048455136E+02  0.66567676840E+02  0.00000000000E+00 0.  1.
</event>
<event>
 7    1  0.6315518E-006  0.6412821E+02  0.7818608E-02  0.1392426E+00
          2   -1    0    0  502    0  0.00000000000E+00  0.00000000000E+00  0.46513452779E+03  0.46513452779E+03  0.00000000000E+00 0. -1.
          1   -1    0    0  501    0 -0.00000000000E+00 -0.00000000000E+00 -0.35516734052E+03  0.35516734052E+03  0.00000000000E+00 0. -1.
         25    2    1    2    0    0  0.11670332283E+03 -0.48255701525E+01 -0.38670271024E+01  0.17112326359E+03  0.12500106302E+03 0.  0.
          2    1    1    2  501    0 -0.55566686130E+02  0.18642970586E+02 -0.26183589514E+03  0.26831558461E+03  0.00000000000E+00 0. -1.
          1    1    1    2  502    0 -0.61136636704E+02 -0.13817400433E+02  0.37567010951E+03  0.38086302011E+03  0.00000000000E+00 0. -1.
         22    1    3    3    0    0  0.11812237445E+03 -0.10947504440E+02 -0.46952102932E+02  0.12758229959E+03  0.00000000000E+00 0.  1.
         22    1    3    3    0    0 -0.14190516133E+01  0.61219342871E+01  0.43085075830E+02  0.43540964001E+02  0.00000000000E+00 0.  1.
</event>
<event>
 7    1  0.6315518E-006  0.7490303E+02  0.7818608E-02  0.1410490E+00
          2   -1    0    0  502    0  0.00000000000E+00  0.00000000000E+00  0.54048946303E+03  0.54048946303E+03  0.00000000000E+00 0. -1.
          1   -1    0    0  501    0 -0.00000000000E+00 -0.00000000000E+00 -0.42802683897E+03  0.42802683897E+03  0.00000000000E+00 0. -1.
         25    2    1    2    0    0 -0.43339339092E+02  0.53895116829E+02  0.83546920812E+02  0.16549492804E+03  0.12500200518E+03 0.  0.
          2    1    1    2  501    0  0.37394367044E+02  0.22233980033E+02 -0.38230424614E+03  0.38477165328E+03  0.00000000000E+00 0. -1.
          1    1    1    2  502    0  0.59449720473E+01 -0.76129096862E+02  0.41121994938E+03  0.41824972068E+03  0.00000000000E+00 0. -1.
         22    1    3    3    0    0 -0.30802791411E+02 -0.32429867999E+02  0.26190546977E-01  0.44727049792E+02  0.00000000000E+00 0. -1.
         22    1    3    3    0    0 -0.12536547681E+02  0.86324984828E+02  0.83520730265E+02  0.12076787825E+03  0.00000000000E+00 0. -1.
</event>
<event>
 7    1  0.6315518E-006  0.1367582E+03  0.7818608E-02  0.1305553E+00
          2   -1    0    0  502    0  0.00000000000E+00  0.00000000000E+00  0.43701142124E+03  0.43701142124E+03  0.00000000000E+00 0. -1.
          1   -1    0    0  501    0 -0.00000000000E+00 -0.00000000000E+00 -0.77240690699E+03  0.77240690699E+03  0.00000000000E+00 0. -1.
         25    2    1    2    0    0 -0.80366791864E+02 -0.57821370300E+02 -0.21746538454E+03  0.26966387051E+03  0.12500110996E+03 0.  0.
          2    1    1    2  501    0  0.10858416969E+03  0.10824468794E+03 -0.51559755982E+03  0.53791103174E+03  0.00000000000E+00 0. -1.
          1    1    1    2  502    0 -0.28217377827E+02 -0.50423317643E+02  0.39766745861E+03  0.40184342599E+03  0.00000000000E+00 0. -1.
         22    1    3    3    0    0 -0.99545277756E+02 -0.80731805678E+02 -0.18926880374E+03  0.22858164152E+03  0.00000000000E+00 0.  1.
         22    1    3    3    0    0  0.19178485892E+02  0.22910435378E+02 -0.28196580796E+02  0.41082228992E+02  0.00000000000E+00 0.  1.
</event>
<event>
 7    1  0.6315518E-006  0.1980866E+03  0.7818608E-02  0.1292996E+00
          2   -1    0    0  502    0  0.00000000000E+00  0.00000000000E+00  0.14300454662E+04  0.14300454662E+04  0.00000000000E+00 0. -1.
          1   -1    0    0  501    0 -0.00000000000E+00 -0.00000000000E+00 -0.16206867211E+03  0.16206867211E+03  0.00000000000E+00 0. -1.
         25    2    1    2    0    0  0.14222504640E+03  0.17720301270E+03  0.30444873483E+03  0.39992941647E+03  0.12500253791E+03 0.  0.
          2    1    1    2  501    0 -0.16845143113E+01 -0.44761739029E+02 -0.10089210229E+03  0.11038870945E+03  0.00000000000E+00 0. -1.
          1    1    1    2  502    0 -0.14054053209E+03 -0.13244127367E+03  0.10644201615E+04  0.10817960124E+04  0.00000000000E+00 0. -1.
         22    1    3    3    0    0  0.16469973982E+03  0.16282791074E+03  0.26097607675E+03  0.34892326585E+03  0.00000000000E+00 0. -1.
         22    1    3    3    0    0 -0.22474693423E+02  0.14375101961E+02  0.43472658077E+02  0.51006150620E+02  0.00000000000E+00 0. -1.
</event>
<event>
 7    1  0.6315518E-006  0.7045917E+02  0.7818608E-02  0.1361845E+00
          2   -1    0    0  502    0  0.00000000000E+00  0.00000000000E+00  0.63074245754E+03  0.63074245754E+03  0.00000000000E+00 0. -1.
          1   -1    0    0  501    0 -0.00000000000E+00 -0.00000000000E+00 -0.38012597966E+02  0.38012597966E+02  0.00000000000E+00 0. -1.
         25    2    1    2    0    0 -0.19358114228E+02 -0.64607463874E+02  0.35212357781E+03  0.37968899504E+03  0.12499543161E+03 0.  0.
          2    1    1    2  501    0 -0.59739774582E+02  0.33576675488E+02  0.67288120050E+02  0.96041266671E+02  0.00000000000E+00 0. -1.
          1    1    1    2  502    0  0.79097888810E+02  0.31030788386E+02  0.17331816171E+03  0.19302479380E+03  0.00000000000E+00 0. -1.
         22    1    3    3    0    0  0.56248847375E+01  0.36981037517E+02  0.94633735138E+02  0.10175844088E+03  0.00000000000E+00 0.  1.
         22    1    3    3    0    0 -0.24982998965E+02 -0.10158850139E+03  0.25748984268E+03  0.27793055416E+03  0.00000000000E+00 0.  1.
</event>
<event>
 7    1  0.6315518E-006  0.7616306E+02  0.7818608E-02  0.1373398E+00
          2   -1    0    0  502    0  0.00000000000E+00  0.00000000000E+00  0.21301876835E+03  0.21301876835E+03  0.00000000000E+00 0. -1.
          1   -1    0    0  501    0 -0.00000000000E+00 -0.00000000000E+00 -0.13197586809E+04  0.13197586809E+04  0.00000000000E+00 0. -1.
         25    2    1    2    0    0 -0.16525118895E+02 -0.20906056993E+02 -0.12454334712E+02  0.12842309786E+03  0.12500895503E+03 0.  0.
          2    1    1    2  501    0 -0.35231568464E+02 -0.45562347541E+02 -0.12371564151E+04  0.12384963409E+04  0.00000000000E+00 0. -1.
          1    1    1    2  502    0  0.51756687359E+02  0.66468404534E+02  0.14287083730E+03  0.16585801048E+03  0.00000000000E+00 0. -1.
         22    1    3    3    0    0  0.23110029138E+01 -0.59013601485E+02  0.31786631330E+02  0.67069634158E+02  0.00000000000E+00 0. -1.
         22    1    3    3    0    0 -0.18836121809E+02  0.38107544492E+02 -0.44240966042E+02  0.61353463703E+02  0.00000000000E+00 0. -1.
</event>
<event>
 7    1  0.6315518E-006  0.9510393E+02  0.7818608E-02  0.1332099E+00
          2   -1    0    0  502    0  0.00000000000E+00  0.00000000000E+00  0.45451594556E+03  0.45451594556E+03  0.00000000000E+00 0. -1.
          1   -1    0    0  501    0 -0.00000000000E+00 -0.00000000000E+00 -0.11827280316E+03  0.11827280316E+03  0.00000000000E+00 0. -1.
         25    2    1    2    0    0  0.10512987574E+03 -0.58276522983E+02  0.73873846863E+02  0.18849947394E+03  0.12500504999E+03 0.  0.
          2    1    1    2  501    0 -0.91818878069E+02 -0.58733250113E+01 -0.20222068891E+02  0.94202624097E+02  0.00000000000E+00 0. -1.
          1    1    1    2  502    0 -0.13310997671E+02  0.64149847994E+02  0.28259136443E+03  0.29008665069E+03  0.00000000000E+00 0. -1.
         22    1    3    3    0    0  0.16360058997E+02 -0.47553525788E+02  0.84625610079E+02  0.98440252064E+02  0.00000000000E+00 0.  1.
         22    1    3    3    0    0  0.88769816743E+02 -0.10722997195E+02 -0.10751763216E+02  0.90059221880E+02  0.00000000000E+00 0.  1.
</event>
<event>
 7    1  0.6315518E-006  0.1049609E+03  0.7818608E-02  0.1313953E+00
          2   -1    0    0  502    0  0.00000000000E+00  0.00000000000E+00  0.22662335793E+04  0.22662335793E+04  0.00000000000E+00 0. -1.
          1   -1    0    0  501    0 -0.00000000000E+00 -0.00000000000E+00 -0.31416193504E+02  0.31416193504E+02  0.00000000000E+00 0. -1.
         25    2    1    2    0    0  0.15278120601E+03 -0.14385283064E+02  0.11355922753E+04  0.11527119269E+04  0.12500374922E+03 0.  0.
          2    1    1    2  501    0 -0.65975711597E+02 -0.22659926360E+02  0.37832226482E+02  0.79357067385E+02  0.00000000000E+00 0. -1.
          1    1    1    2  502    0 -0.86805494416E+02  0.37045209424E+02  0.10613928840E+04  0.10655807785E+04  0.00000000000E+00 0. -1.
         22    1    3    3    0    0  0.87033731826E+02  0.54477334163E+02  0.60080572786E+03  0.60951634354E+03  0.00000000000E+00 0. -1.
         22    1    3    3    0    0  0.65747474188E+02 -0.68862617227E+02  0.53478654746E+03  0.54319558334E+03  0.00000000000E+00 0. -1.
</event>
<event>
 7    1  0.6315518E-006  0.1138134E+03  0.7818608E-02  0.1426466E+00
          2   -1    0    0  502    0  0.00000000000E+00  0.00000000000E+00  0.33016036383E+03  0.33016036383E+03  0.00000000000E+00 0. -1.
          1   -1    0    0  501    0 -0.00000000000E+00 -0.00000000000E+00 -0.46017505781E+03  0.46017505781E+03  0.00000000000E+00 0. -1.
         25    2    1    2    0    0 -0.69785258466E+02  0.90343709059E+02 -0.82242877320E+02  0.18820465164E+03  0.12500052784E+03 0.  0.
          2    1    1    2  501    0 -0.18089548250E+02 -0.17708359639E+02 -0.31269478251E+03  0.31371777885E+03  0.00000000000E+00 0. -1.
          1    1    1    2  502    0  0.87874806716E+02 -0.72635349421E+02  0.26492296584E+03  0.28841299116E+03  0.00000000000E+00 0. -1.
         22    1    3    3    0    0 -0.34381282675E+02 -0.27722057715E+02 -0.34415178382E+02  0.55990977715E+02  0.00000000000E+00 0. -1.
         22    1    3    3    0    0 -0.35403975791E+02  0.11806576677E+03 -0.47827698938E+02  0.13221367392E+03  0.00000000000E+00 0. -1.
</event>
<event>
 7    1  0.6315518E-006  0.2983440E+02  0.7818608E-02  0.1624056E+00
          2   -1    0    0  502    0  0.00000000000E+00  0.00000000000E+00  0.79740012941E+02  0.79740012941E+02  0.00000000000E+00 0. -1.
          1   -1    0    0  501    0 -0.00000000000E+00 -0.00000000000E+00 -0.37580935919E+03  0.37580935919E+03  0.00000000000E+00 0. -1.
         25    2    1    2    0    0 -0.54552092761E+01  0.92666063474E+01 -0.27543440799E+03  0.30267363295E+03  0.12502633993E+03 0.  0.
          2    1    1    2  501    0 -0.21768154254E+02 -0.21472340719E+02 -0.80432801364E+02  0.86048529859E+02  0.00000000000E+00 0. -1.
          1    1    1    2  502    0  0.27223363531E+02  0.12205734372E+02  0.59797863108E+02  0.66827209322E+02  0.00000000000E+00 0. -1.
         22    1    3    3    0    0 -0.39280845977E+02 -0.20035749292E+02 -0.30335463833E+02  0.53522485708E+02  0.00000000000E+00 0.  1.
         22    1    3    3    0    0  0.33825636701E+02  0.29302355639E+02 -0.24509894416E+03  0.24915114724E+03  0.00000000000E+00 0.  1.
</event>
<event>
 7    1  0.6315518E-006  0.9784087E+02  0.7818608E-02  0.1293245E+00
          2   -1    0    0  502    0  0.00000000000E+00  0.00000000000E+00  0.63860349795E+02  0.63860349795E+02  0.00000000000E+00 0. -1.
          1   -1    0    0  501    0 -0.00000000000E+00 -0.00000000000E+00 -0.79458683847E+03  0.79458683847E+03  0.00000000000E+00 0. -1.
         25    2    1    2    0    0 -0.61886786735E+01  0.31329757374E+02 -0.19618639708E+03  0.23480518569E+03  0.12499807754E+03 0.  0.
          2    1    1    2  501    0  0.35731258862E+02 -0.11684847907E+03 -0.51730167076E+03  0.53153674237E+03  0.00000000000E+00 0. -1.
          1    1    1    2  502    0 -0.29542580188E+02  0.85518721692E+02 -0.17238420836E+02  0.92105260203E+02  0.00000000000E+00 0. -1.
         22    1    3    3    0    0 -0.29019794782E+02  0.74525886792E+02 -0.11574023142E+03  0.14068424738E+03  0.00000000000E+00 0.  1.
         22    1    3    3    0    0  0.22831116108E+02 -0.43196129418E+02 -0.80446165657E+02  0.94120938310E+02  0.00000000000E+00 0.  1.
</event>
<event>
 7    1  0.6315518E-006  0.8164332E+02  0.7818608E-02  0.1329868E+00
          2   -1    0    0  502    0  0.00000000000E+00  0.00000000000E+00  0.42025759185E+03  0.42025759185E+03  0.00000000000E+00 0. -1.
          1   -1    0    0  501    0 -0.00000000000E+00 -0.00000000000E+00 -0.11632832892E+04  0.11632832892E+04  0.00000000000E+00 0. -1.
         25    2    1    2    0    0 -0.60766009608E+02 -0.49021947664E+01  0.15584329589E+03  0.20887466269E+03  0.12499980961E+03 0.  0.
          2    1    1    2  501    0 -0.34303806079E+01  0.77752543600E+02 -0.11254594721E+04  0.11281472638E+04  0.00000000000E+00 0. -1.
          1    1    1    2  502    0  0.64196390216E+02 -0.72850348834E+02  0.22659047885E+03  0.24651895454E+03  0.00000000000E+00 0. -1.
         22    1    3    3    0    0  0.38603279029E+02  0.44625412696E+01  0.51019373876E+02  0.64133485303E+02  0.00000000000E+00 0.  1.
         22    1    3    3    0    0 -0.99369288638E+02 -0.93647360359E+01  0.10482392202E+03  0.14474117739E+03  0.00000000000E+00 0.  1.
</event>
<event>
 7    1  0.6315518E-006  0.1144540E+03  0.7818608E-02  0.1284775E+00
          2   -1    0    0  502    0  0.00000000000E+00  0.00000000000E+00  0.12726599160E+04  0.12726599160E+04  0.00000000000E+00 0. -1.
          1   -1    0    0  501    0 -0.00000000000E+00 -0.00000000000E+00 -0.13173567301E+04  0.13173567301E+04  0.00000000000E+00 0. -1.
         25    2    1    2    0    0  0.92721069285E+02 -0.53174285650E+02  0.43728715171E+03  0.46719417733E+03  0.12500257969E+03 0.  0.
          2    1    1    2  501    0 -0.11105802335E+03 -0.28533703314E+02 -0.12977317990E+04  0.13027877337E+04  0.00000000000E+00 0. -1.
          1    1    1    2  502    0  0.18336954062E+02  0.81707988965E+02  0.81574783327E+03  0.82003473514E+03  0.00000000000E+00 0. -1.
         22    1    3    3    0    0  0.48091691942E+02 -0.23007093166E+02  0.39534357276E+03  0.39892189422E+03  0.00000000000E+00 0.  1.
         22    1    3    3    0    0  0.44629377343E+02 -0.30167192485E+02  0.41943578955E+02  0.68272283102E+02  0.00000000000E+00 0.  1.
</event>
<event>
 7    1  0.6315518E-006  0.8983871E+02  0.7818608E-02  0.1391215E+00
          2   -1    0    0  502    0  0.00000000000E+00  0.00000000000E+00  0.15964465748E+03  0.15964465748E+03  0.00000000000E+00 0. -1.
          1   -1    0    0  501    0 -0.00000000000E+00 -0.00000000000E+00 -0.54758890416E+03  0.54758890416E+03  0.00000000000E+00 0. -1.
         25    2    1    2    0    0 -0.12988024053E+02  0.81247760965E+02 -0.95899373143E+02  0.17774017539E+03  0.12499997099E+03 0.  0.
          2    1    1    2  501    0 -0.28834572153E+02 -0.87207045736E+02 -0.40165541745E+03  0.41202375628E+03  0.00000000000E+00 0. -1.
          1    1    1    2  502    0  0.41822596206E+02  0.59592847715E+01  0.10961054391E+03  0.11746962997E+03  0.00000000000E+00 0. -1.
         22    1    3    3    0    0 -0.74304073821E+01  0.72056848064E+02  0.83683618938E+01  0.72920708908E+02  0.00000000000E+00 0.  1.
         22    1    3    3    0    0 -0.55576166707E+01  0.91909129002E+01 -0.10426773504E+03  0.10481946648E+03  0.00000000000E+00 0.  1.
</event>
<event>
 7    1  0.6315518E-006  0.6257384E+02  0.7818608E-02  0.1488957E+00
          2   -1    0    0  502    0  0.00000000000E+00  0.00000000000E+00  0.62154423871E+03  0.62154423871E+03  0.00000000000E+00 0. -1.
          1   -1    0    0  501    0 -0.00000000000E+00 -0.00000000000E+00 -0.12363434637E+04  0.12363434637E+04  0.00000000000E+00 0. -1.
         25    2    1    2    0    0  0.75052066407E+02 -0.87451841444E+01  0.24141459481E+03  0.28216184359E+03  0.12500003389E+03 0.  0.
          2    1    1    2  501    0 -0.20897165116E+02 -0.20386743440E+02 -0.12131651748E+04  0.12135163996E+04  0.00000000000E+00 0. -1.
          1    1    1    2  502    0 -0.54154901290E+02  0.29131927584E+02  0.35695135497E+03  0.36220945923E+03  0.00000000000E+00 0. -1.
         22    1    3    3    0    0  0.38903859232E+02 -0.52594568989E+02  0.20372552698E+03  0.21397146841E+03  0.00000000000E+00 0.  1.
         22    1    3    3    0    0  0.36148207175E+02  0.43849384844E+02  0.37689067832E+02  0.68190375180E+02  0.00000000000E+00 0.  1.
</event>
<event>
 7    1  0.6315518E-006  0.9773667E+02  0.7818608E-02  0.1473389E+00
          2   -1    0    0  502    0  0.00000000000E+00  0.00000000000E+00  0.87051627273E+03  0.87051627273E+03  0.00000000000E+00 0. -1.
          1   -1    0    0  501    0 -0.00000000000E+00 -0.00000000000E+00 -0.33564051770E+03  0.33564051770E+03  0.00000000000E+00 0. -1.
         25    2    1    2    0    0 -0.51236849517E+02  0.93526789094E+02  0.37128525473E+02  0.16845392050E+03  0.12500288358E+03 0.  0.
          2    1    1    2  501    0  0.20836323082E+02 -0.99485647572E+00 -0.26647945971E+03  0.26729467737E+03  0.00000000000E+00 0. -1.
          1    1    1    2  502    0  0.30400526436E+02 -0.92531932618E+02  0.76422668927E+03  0.77040819255E+03  0.00000000000E+00 0. -1.
         22    1    3    3    0    0  0.12342954203E+02 -0.19609926149E+02 -0.16067204323E+02  0.28196680244E+02  0.00000000000E+00 0.  1.
         22    1    3    3    0    0 -0.63579803721E+02  0.11313671524E+03  0.53195729797E+02  0.14025724026E+03  0.00000000000E+00 0.  1.
</event>
<event>
 7    1  0.6315518E-006  0.1620795E+03  0.7818608E-02  0.1252375E+00
          2   -1    0    0  502    0  0.00000000000E+00  0.00000000000E+00  0.54710561250E+02  0.54710561250E+02  0.00000000000E+00 0. -1.
          1   -1    0    0  501    0 -0.00000000000E+00 -0.00000000000E+00 -0.12094811260E+04  0.12094811260E+04  0.00000000000E+00 0. -1.
         25    2    1    2    0    0  0.59741358403E+01  0.11362556938E+03 -0.65309783575E+03  0.67461717755E+03  0.12500037150E+03 0.  0.
          2    1    1    2  501    0  0.62667771572E+02  0.51246264427E+02 -0.33721977026E+03  0.34680052287E+03  0.00000000000E+00 0. -1.
          1    1    1    2  502    0 -0.68641907413E+02 -0.16487183381E+03 -0.16445295872E+03  0.24277398680E+03  0.00000000000E+00 0. -1.
         22    1    3    3    0    0  0.51153330821E+02  0.11276788406E+03 -0.48261050150E+03  0.49824306828E+03  0.00000000000E+00 0.  1.
         22    1    3    3    0    0 -0.45179194981E+02  0.85768531631E+00 -0.17048733424E+03  0.17637410927E+03  0.00000000000E+00 0.  1.
</event>
<event>
 7    1  0.6315518E-006  0.8032425E+02  0.7818608E-02  0.1425565E+00
          2   -1    0    0  502    0  0.00000000000E+00  0.00000000000E+00  0.52635065357E+03  0.52635065357E+03  0.00000000000E+00 0. -1.
          1   -1    0    0  501    0 -0.00000000000E+00 -0.00000000000E+00 -0.12640392263E+04  0.12640392263E+04  0.00000000000E+00 0. -1.
         25    2    1    2    0    0  0.17240139461E+02  0.10840885112E+03 -0.11211495913E+03  0.20060797782E+03  0.12499638112E+03 0.  0.
          2    1    1    2  501    0 -0.28597057438E+02 -0.74125276618E+02 -0.11055738178E+04  0.11084249253E+04  0.00000000000E+00 0. -1.
          1    1    1    2  502    0  0.11356917977E+02 -0.34283574503E+02  0.48000020421E+03  0.48135697679E+03  0.00000000000E+00 0. -1.
         22    1    3    3    0    0  0.43865201648E+02  0.84930942785E+02 -0.12959864144E+03  0.16103797323E+03  0.00000000000E+00 0.  1.
         22    1    3    3    0    0 -0.26625062187E+02  0.23477908336E+02  0.17483682310E+02  0.39570004592E+02  0.00000000000E+00 0.  1.
</event>
<event>
 7    1  0.6315518E-006  0.4913949E+02  0.7818608E-02  0.1562549E+00
          2   -1    0    0  502    0  0.00000000000E+00  0.00000000000E+00  0.58602425623E+03  0.58602425623E+03  0.00000000000E+00 0. -1.
          1   -1    0    0  501    0 -0.00000000000E+00 -0.00000000000E+00 -0.52421163189E+03  0.52421163189E+03  0.00000000000E+00 0. -1.
         25    2    1    2    0    0  0.57563472278E+02  0.25447042293E+01  0.49251154575E+03  0.51138247569E+03  0.12499753948E+03 0.  0.
          2    1    1    2  501    0 -0.44351470418E+02 -0.21136025632E+02 -0.51203162079E+03  0.51438328628E+03  0.00000000000E+00 0. -1.
          1    1    1    2  502    0 -0.13212001860E+02  0.18591321402E+02  0.81332699384E+02  0.84470126161E+02  0.00000000000E+00 0. -1.
         22    1    3    3    0    0  0.68937125005E+02  0.52343186145E+02  0.31055588974E+03  0.32239276820E+03  0.00000000000E+00 0. -1.
         22    1    3    3    0    0 -0.11373652726E+02 -0.49798481915E+02  0.18195565602E+03  0.18898970748E+03  0.00000000000E+00 0. -1.
</event>
<event>
 7    1  0.6315518E-006  0.9379050E+02  0.7818608E-02  0.1344925E+00
          2   -1    0    0  502    0  0.00000000000E+00  0.00000000000E+00  0.11579105969E+04  0.11579105969E+04  0.00000000000E+00 0. -1.
          1   -1    0    0  501    0 -0.00000000000E+00 -0.00000000000E+00 -0.11045791833E+04  0.11045791833E+04  0.00000000000E+00 0. -1.
         25    2    1    2    0    0  0.37779591213E+01  0.13815872424E+03  0.48571535870E+03  0.52023691945E+03  0.12499974647E+03 0.  0.
          2    1    1    2  501    0 -0.34275079854E+02 -0.87147202189E+02 -0.10839471066E+04  0.10879847176E+04  0.00000000000E+00 0. -1.
          1    1    1    2  502    0  0.30497120733E+02 -0.51011522055E+02  0.65156316147E+03  0.65426814315E+03  0.00000000000E+00 0. -1.
         22    1    3    3    0    0  0.23269454988E+02  0.11842695317E+03  0.20302839513E+03  0.23619259092E+03  0.00000000000E+00 0. -1.
         22    1    3    3    0    0 -0.19491495867E+02  0.19731771075E+02  0.28268696357E+03  0.28404432853E+03  0.00000000000E+00 0. -1.
</event>
<event>
 7    1  0.6315518E-006  0.5714419E+02  0.7818608E-02  0.1440382E+00
          2   -1    0    0  502    0  0.00000000000E+00  0.00000000000E+00  0.83718327845E+03  0.83718327845E+03  0.00000000000E+00 0. -1.
          1   -1    0    0  501    0 -0.00000000000E+00 -0.00000000000E+00 -0.45289576643E+02  0.45289576643E+02  0.00000000000E+00 0. -1.
         25    2    1    2    0    0  0.71305055610E+02 -0.66710235377E+01  0.32754979446E+03  0.35783047747E+03  0.12499947700E+03 0.  0.
          2    1    1    2  501    0 -0.40677963513E+02  0.40176005926E+02 -0.90850633493E+00  0.57180709610E+02  0.00000000000E+00 0. -1.
          1    1    1    2  502    0 -0.30627092097E+02 -0.33504982388E+02  0.46525241369E+03  0.46746166801E+03  0.00000000000E+00 0. -1.
         22    1    3    3    0    0  0.65252385385E+02 -0.19687276450E+02  0.62758502880E+02  0.92650376881E+02  0.00000000000E+00 0.  1.
         22    1    3    3    0    0  0.60526702248E+01  0.13016252912E+02  0.26479129157E+03  0.26518010059E+03  0.00000000000E+00 0.  1.
</event>
<event>
 7    1  0.6315518E-006  0.8346096E+02  0.7818608E-02  0.1354155E+00
          2   -1    0    0  502    0  0.00000000000E+00  0.00000000000E+00  0.26111402084E+03  0.26111402084E+03  0.00000000000E+00 0. -1.
          1   -1    0    0  501    0 -0.00000000000E+00 -0.00000000000E+00 -0.12298137957E+03  0.12298137957E+03  0.00000000000E+00 0. -1.
         25    2    1    2    0    0  0.57279828241E+02 -0.61656479016E+01  0.16034124933E+03  0.21131174827E+03  0.12499737911E+03 0.  0.
          2    1    1    2  501    0 -0.70634133088E+02 -0.54099784881E+02 -0.53251219759E+02  0.10369021114E+03  0.00000000000E+00 0. -1.
          1    1    1    2  502    0  0.13354304847E+02  0.60265432783E+02  0.31042611699E+02  0.69093440988E+02  0.00000000000E+00 0. -1.
         22    1    3    3    0    0  0.84472248820E+02  0.31770392887E+02  0.95251198327E+02  0.13121626983E+03  0.00000000000E+00 0.  1.
         22    1    3    3    0    0 -0.27192420579E+02 -0.37936040789E+02  0.65090051003E+02  0.80095478444E+02  0.00000000000E+00 0.  1.
</event>
<event>
 7    1  0.6315518E-006  0.8387918E+02  0.7818608E-02  0.1366306E+00
          2   -1    0    0  502    0  0.00000000000E+00  0.00000000000E+00  0.16826473031E+04  0.16826473031E+04  0.00000000000E+00 0. -1.
          1   -1    0    0  501    0 -0.00000000000E+00 -0.00000000000E+00 -0.44247853954E+03  0.44247853954E+03  0.00000000000E+00 0. -1.
         25    2    1    2    0    0 -0.25502632078E+02  0.25622870687E+02  0.21653176484E+03  0.25261562684E+03  0.12498693529E+03 0.  0.
          2    1    1    2  501    0 -0.94935641065E+01  0.54640989572E+02 -0.42129393635E+03  0.42492863672E+03  0.00000000000E+00 0. -1.
          1    1    1    2  502    0  0.34996196185E+02 -0.80263860259E+02  0.14449309351E+04  0.14475815791E+04  0.00000000000E+00 0. -1.
         22    1    3    3    0    0  0.23941688339E+02 -0.28672434376E+02  0.19068629423E+02  0.41939546512E+02  0.00000000000E+00 0. -1.
         22    1    3    3    0    0 -0.49444320417E+02  0.54295305063E+02  0.19746313542E+03  0.21067608033E+03  0.00000000000E+00 0. -1.
</event>
<event>
 7    1  0.6315518E-006  0.8012366E+02  0.7818608E-02  0.1459060E+00
          2   -1    0    0  502    0  0.00000000000E+00  0.00000000000E+00  0.19366004097E+04  0.19366004097E+04  0.00000000000E+00 0. -1.
          1   -1    0    0  501    0 -0.00000000000E+00 -0.00000000000E+00 -0.18793900845E+03  0.18793900845E+03  0.00000000000E+00 0. -1.
         25    2    1    2    0    0 -0.19120641415E+02 -0.81377644403E+02  0.30147682707E+03  0.33689893507E+03  0.12499878101E+03 0.  0.
          2    1    1    2  501    0  0.43563322761E+02  0.67291151897E+02 -0.16066020751E+03  0.17954822330E+03  0.00000000000E+00 0. -1.
          1    1    1    2  502    0 -0.24442681345E+02  0.14086492506E+02  0.16078447817E+04  0.16080922598E+04  0.00000000000E+00 0. -1.
         22    1    3    3    0    0 -0.12946518548E+01  0.26687623663E+02  0.16024868115E+02  0.31156087340E+02  0.00000000000E+00 0.  1.
         22    1    3    3    0    0 -0.17825989561E+02 -0.10806526807E+03  0.28545195896E+03  0.30574284773E+03  0.00000000000E+00 0.  1.
</event>
<event>
 7    1  0.6315518E-006  0.1069460E+03  0.7818608E-02  0.1444983E+00
          2   -1    0    0  502    0  0.00000000000E+00  0.00000000000E+00  0.12668959489E+04  0.12668959489E+04  0.00000000000E+00 0. -1.
          1   -1    0    0  501    0 -0.00000000000E+00 -0.00000000000E+00 -0.77094990237E+03  0.77094990237E+03  0.00000000000E+00 0. -1.
         25    2    1    2    0    0  0.53762583711E+02  0.68127368447E+02 -0.38501124361E+03  0.41399236175E+03  0.12499705655E+03 0.  0.
          2    1    1    2  501    0  0.22297580681E+02  0.72238734366E+01 -0.36878719234E+03  0.36953127024E+03  0.00000000000E+00 0. -1.
          1    1    1    2  502    0 -0.76060164393E+02 -0.75351241883E+02  0.12497444825E+04  0.12543222193E+04  0.00000000000E+00 0. -1.
         22    1    3    3    0    0  0.41983282975E+02  0.10131509796E+03 -0.22699331488E+03  0.25209781856E+03  0.00000000000E+00 0.  1.
         22    1    3    3    0    0  0.11779300737E+02 -0.33187729511E+02 -0.15801792873E+03  0.16189454319E+03  0.00000000000E+00 0.  1.
</event>
<event>
 7    1  0.6315518E-006  0.9665035E+02  0.7818608E-02  0.1318771E+00
          2   -1    0    0  502    0  0.00000000000E+00  0.00000000000E+00  0.59151761536E+03  0.59151761536E+03  0.00000000000E+00 0. -1.
          1   -1    0    0  501    0 -0.00000000000E+00 -0.00000000000E+00 -0.51011833670E+03  0.51011833670E+03  0.00000000000E+00 0. -1.
         25    2    1    2    0    0  0.96340474697E+02  0.10639659632E+03  0.52563311862E+02  0.19745910380E+03  0.12500189257E+03 0.  0.
          2    1    1    2  501    0 -0.70885894495E+02 -0.15439327340E+02 -0.42981846499E+03  0.43589803362E+03  0.00000000000E+00 0. -1.
          1    1    1    2  502    0 -0.25454580201E+02 -0.90957268984E+02  0.45865443179E+03  0.46827881464E+03  0.00000000000E+00 0. -1.
         22    1    3    3    0    0  0.61959612081E+02  0.20735153301E+02  0.77966576875E+02  0.10172377904E+03  0.00000000000E+00 0. -1.
         22    1    3    3    0    0  0.34380862615E+02  0.85661443023E+02 -0.25403265013E+02  0.95735324767E+02  0.00000000000E+00 0. -1.
</event>
<event>
 7    1  0.6315518E-006  0.5766498E+02  0.7818608E-02  0.1440530E+00
          2   -1    0    0  502    0  0.00000000000E+00  0.00000000000E+00  0.86775639847E+03  0.86775639847E+03  0.00000000000E+00 0. -1.
          1   -1    0    0  501    0 -0.00000000000E+00 -0.00000000000E+00 -0.28655755359E+03  0.28655755359E+03  0.00000000000E+00 0. -1.
         25    2    1    2    0    0  0.66569033315E+02 -0.40186398368E+02 -0.99319752578E+02  0.17758383312E+03  0.12500088689E+03 0.  0.
          2    1    1    2  501    0 -0.23103115320E+02  0.51579178466E+02 -0.14207847560E+03  0.15290669971E+03  0.00000000000E+00 0. -1.
          1    1    1    2  502    0 -0.43465917995E+02 -0.11392780098E+02  0.82259707306E+03  0.82382341923E+03  0.00000000000E+00 0. -1.
         22    1    3    3    0    0 -0.74555836033E+01  0.20861886945E+02  0.16176067617E+02  0.27431172365E+02  0.00000000000E+00 0. -1.
         22    1    3    3    0    0  0.74024616919E+02 -0.61048285313E+02 -0.11549582020E+03  0.15015266076E+03  0.00000000000E+00 0. -1.
</event>
<event>
 7    1  0.6315518E-006  0.6297368E+02  0.7818608E-02  0.1472953E+00
          2   -1    0    0  502    0  0.00000000000E+00  0.00000000000E+00  0.20124038719E+03  0.20124038719E+03  0.00000000000E+00 0. -1.
          1   -1    0    0  501    0 -0.00000000000E+00 -0.00000000000E+00 -0.23757943464E+04  0.23757943464E+04  0.00000000000E+00 0. -1.
         25    2    1    2    0    0 -0.63865247162E+02 -0.44076674612E+02 -0.62767408704E+03  0.64468692637E+03  0.12499980180E+03 0.  0.
          2    1    1    2  501    0  0.61306850886E+02  0.11701475255E+02 -0.17376815173E+04  0.17388020330E+04  0.00000000000E+00 0. -1.
          1    1    1    2  502    0  0.25583962757E+01  0.32375199357E+02  0.19080164513E+03  0.19354577419E+03  0.00000000000E+00 0. -1.
         22    1    3    3    0    0  0.36488650262E+02 -0.71989868533E+01 -0.11094608966E+03  0.11701402403E+03  0.00000000000E+00 0. -1.
         22    1    3    3    0    0 -0.10035389742E+03 -0.36877687759E+02 -0.51672799738E+03  0.52767290234E+03  0.00000000000E+00 0. -1.
</event>
<event>
 7    1  0.6315518E-006  0.1282190E+03  0.7818608E-02  0.1271601E+00
          2   -1    0    0  502    0  0.00000000000E+00  0.00000000000E+00  0.73636326154E+03  0.73636326154E+03  0.00000000000E+00 0. -1.
          1   -1    0    0  501    0 -0.00000000000E+00 -0.00000000000E+00 -0.46659670270E+03  0.46659670270E+03  0.00000000000E+00 0. -1.
         25    2    1    2    0    0  0.61842298793E+02 -0.16882004548E+03 -0.98735287615E+02  0.24020398838E+03  0.12499848533E+03 0.  0.
          2    1    1    2  501    0 -0.73401864324E+02  0.42392901744E+02 -0.28484462670E+03  0.29718925479E+03  0.00000000000E+00 0. -1.
          1    1    1    2  502    0  0.11559565531E+02  0.12642714374E+03  0.65334647315E+03  0.66556672108E+03  0.00000000000E+00 0. -1.
         22    1    3    3    0    0  0.25986013284E+01 -0.11683506031E+03 -0.11011449062E+03  0.16056894186E+03  0.00000000000E+00 0.  1.
         22    1    3    3    0    0  0.59243697465E+02 -0.51984985165E+02  0.11379203002E+02  0.79635046511E+02  0.00000000000E+00 0.  1.
</event>
<event>
 7    1  0.6315518E-006  0.8586832E+02  0.7818608E-02  0.1315609E+00
          2   -1    0    0  502    0  0.00000000000E+00  0.00000000000E+00  0.18830070704E+04  0.18830070704E+04  0.00000000000E+00 0. -1.
          1   -1    0    0  501    0 -0.00000000000E+00 -0.00000000000E+00 -0.67746346930E+03  0.67746346930E+03  0.00000000000E+00 0. -1.
         25    2    1    2    0    0  0.54301052994E+02  0.87352064904E+02  0.53040198484E+02  0.17034001327E+03  0.12499387932E+03 0.  0.
          2    1    1    2  501    0 -0.83771335817E+02 -0.62859667088E+01 -0.61490583521E+03  0.62061770540E+03  0.00000000000E+00 0. -1.
          1    1    1    2  502    0  0.29470282823E+02 -0.81066098196E+02  0.17674092378E+04  0.17695128210E+04  0.00000000000E+00 0. -1.
         22    1    3    3    0    0  0.61235703873E+02  0.95172313955E+02 -0.31218668321E+01  0.11321363356E+03  0.00000000000E+00 0. -1.
         22    1    3    3    0    0 -0.69346508783E+01 -0.78202490511E+01  0.56162065317E+02  0.57126379709E+02  0.00000000000E+00 0. -1.
</event>
<event>
 7    1  0.6315518E-006  0.1593168E+03  0.7818608E-02  0.1268000E+00
          2   -1    0    0  502    0  0.00000000000E+00  0.00000000000E+00  0.11629787779E+04  0.11629787779E+04  0.00000000000E+00 0. -1.
          1   -1    0    0  501    0 -0.00000000000E+00 -0.00000000000E+00 -0.21114421532E+04  0.21114421532E+04  0.00000000000E+00 0. -1.
         25    2    1    2    0    0  0.32053192742E+02  0.95162337578E+02 -0.11077236751E+03  0.19487069721E+03  0.12498317314E+03 0.  0.
          2    1    1    2  501    0 -0.14906451466E+02 -0.16368653588E+03 -0.19540541181E+04  0.19609546096E+04  0.00000000000E+00 0. -1.
          1    1    1    2  502    0 -0.17146741276E+02  0.68524198307E+02  0.11163631104E+04  0.11185956243E+04  0.00000000000E+00 0. -1.
         22    1    3    3    0    0 -0.18719128637E+02  0.10487492494E+03 -0.59314293501E+02  0.12193170659E+03  0.00000000000E+00 0.  1.
         22    1    3    3    0    0  0.50772321379E+02 -0.97125873651E+01 -0.51458074014E+02  0.72938990621E+02  0.00000000000E+00 0.  1.
</event>
<event>
 7    1  0.6315518E-006  0.3184038E+03  0.7818608E-02  0.1258845E+00
          2   -1    0    0  502    0  0.00000000000E+00  0.00000000000E+00  0.37571184962E+03  0.37571184962E+03  0.00000000000E+00 0. -1.
          1   -1    0    0  501    0 -0.00000000000E+00 -0.00000000000E+00 -0.48746524720E+03  0.48746524720E+03  0.00000000000E+00 0. -1.
         25    2    1    2    0    0  0.26877372172E+03 -0.20391799535E+03 -0.16250019559E+03  0.39478170540E+03  0.12499767612E+03 0.  0.
          2    1    1    2  501    0 -0.39445462186E+01  0.38450129981E+02 -0.11041720128E+03  0.11698688079E+03  0.00000000000E+00 0. -1.
          1    1    1    2  502    0 -0.26482917550E+03  0.16546786537E+03  0.16116399929E+03  0.35140851062E+03  0.00000000000E+00 0. -1.
         22    1    3    3    0    0  0.11591680591E+03 -0.90690404736E+02 -0.14017649354E+03  0.20325084193E+03  0.00000000000E+00 0.  1.
         22    1    3    3    0    0  0.15285691582E+03 -0.11322759062E+03 -0.22323702048E+02  0.19153086347E+03  0.00000000000E+00 0.  1.
</event>
<event>
 7    1  0.6315518E-006  0.4845483E+02  0.7818608E-02  0.1481767E+00
          2   -1    0    0  502    0  0.00000000000E+00  0.00000000000E+00  0.10477570536E+04  0.10477570536E+04  0.00000000000E+00 0. -1.
          1   -1    0    0  501    0 -0.00000000000E+00 -0.00000000000E+00 -0.36067067392E+03  0.36067067392E+03  0.00000000000E+00 0. -1.
         25    2    1    2    0    0 -0.11312497401E+02  0.62593235609E+02  0.28838147383E+03  0.32067568385E+03  0.12499253586E+03 0.  0.
          2    1    1    2  501    0  0.36442200972E+02 -0.31923075328E+02 -0.34228773863E+03  0.34569930976E+03  0.00000000000E+00 0. -1.
          1    1    1    2  502    0 -0.25129703571E+02 -0.30670160282E+02  0.74099264446E+03  0.74205273389E+03  0.00000000000E+00 0. -1.
         22    1    3    3    0    0  0.53068255919E+02  0.51410322089E+01  0.95558438823E+02  0.10942616336E+03  0.00000000000E+00 0. -1.
         22    1    3    3    0    0 -0.64380753321E+02  0.57452203400E+02  0.19282303501E+03  0.21124952048E+03  0.00000000000E+00 0. -1.
</event>
<event>
 7    1  0.6315518E-006  0.1720245E+03  0.7818608E-02  0.1198647E+00
          2   -1    0    0  502    0  0.00000000000E+00  0.00000000000E+00  0.19300903842E+04  0.19300903842E+04  0.00000000000E+00 0. -1.
          1   -1    0    0  501    0 -0.00000000000E+00 -0.00000000000E+00 -0.31771204212E+03  0.31771204212E+03  0.00000000000E+00 0. -1.
         25    2    1    2    0    0  0.42396235353E+02  0.26292496871E+02  0.71344125691E+03  0.72602533536E+03  0.12500249744E+03 0.  0.
          2    1    1    2  501    0 -0.17556252755E+03 -0.18115630484E+02 -0.28235290530E+03  0.33297678640E+03  0.00000000000E+00 0. -1.
          1    1    1    2  502    0  0.13316629220E+03 -0.81768663871E+01  0.11812899904E+04  0.11888003045E+04  0.00000000000E+00 0. -1.
         22    1    3    3    0    0 -0.44757801302E+02  0.10595729980E+02  0.25217562830E+03  0.25633586909E+03  0.00000000000E+00 0. -1.
         22    1    3    3    0    0  0.87154036655E+02  0.15696766891E+02  0.46126562860E+03  0.46968946627E+03  0.00000000000E+00 0. -1.
</event>
<event>
 7    1  0.6315518E-006  0.3691159E+02  0.7818608E-02  0.1570917E+00
          2   -1    0    0  502    0  0.00000000000E+00  0.00000000000E+00  0.60326533786E+03  0.60326533786E+03  0.00000000000E+00 0. -1.
          1   -1    0    0  501    0 -0.00000000000E+00 -0.00000000000E+00 -0.13175287481E+03  0.13175287481E+03  0.00000000000E+00 0. -1.
         25    2    1    2    0    0 -0.59447064816E+02 -0.23303337963E+02  0.28512524044E+03  0.31780257678E+03  0.12500030398E+03 0.  0.
          2    1    1    2  501    0  0.27585550606E+02  0.83041181564E+01 -0.11256677541E+03  0.11619466384E+03  0.00000000000E+00 0. -1.
          1    1    1    2  502    0  0.31861514210E+02  0.14999219807E+02  0.29895399802E+03  0.30102097205E+03  0.00000000000E+00 0. -1.
         22    1    3    3    0    0 -0.82109562841E+02 -0.37116295776E+02  0.11742038352E+03  0.14801062863E+03  0.00000000000E+00 0.  1.
         22    1    3    3    0    0  0.22662498025E+02  0.13812957813E+02  0.16770485692E+03  0.16979194815E+03  0.00000000000E+00 0.  1.
</event>
<event>
 7    1  0.6315518E-006  0.7523435E+02  0.7818608E-02  0.1405484E+00
          2   -1    0    0  502    0  0.00000000000E+00  0.00000000000E+00  0.10041777677E+04  0.10041777677E+04  0.00000000000E+00 0. -1.
          1   -1    0    0  501    0 -0.00000000000E+00 -0.00000000000E+00 -0.19003519561E+03  0.19003519561E+03  0.00000000000E+00 0. -1.
         25    2    1    2    0    0  0.20811980011E+02 -0.30025580799E+02  0.37063028530E+02  0.13539925775E+03  0.12499846759E+03 0.  0.
          2    1    1    2  501    0 -0.45493591854E+01 -0.44813699001E+02 -0.13562097885E+03  0.14290561287E+03  0.00000000000E+00 0. -1.
          1    1    1    2  502    0 -0.16262620826E+02  0.74839279800E+02  0.91270052240E+03  0.91590809267E+03  0.00000000000E+00 0. -1.
         22    1    3    3    0    0 -0.38932193597E+02  0.15832034211E+01  0.53167477052E+02  0.65916635589E+02  0.00000000000E+00 0.  1.
         22    1    3    3    0    0  0.59744173608E+02 -0.31608784220E+02 -0.16104448522E+02  0.69482622160E+02  0.00000000000E+00 0.  1.
</event>
<event>
 7    1  0.6315518E-006  0.1022833E+03  0.7818608E-02  0.1341852E+00
          2   -1    0    0  502    0  0.00000000000E+00  0.00000000000E+00  0.12208722774E+03  0.12208722774E+03  0.00000000000E+00 0. -1.
          1   -1    0    0  501    0 -0.00000000000E+00 -0.00000000000E+00 -0.12456825231E+04  0.12456825231E+04  0.00000000000E+00 0. -1.
         25    2    1    2    0    0  0.76520397449E+02 -0.80652341735E+02 -0.59846469319E+03  0.62140597069E+03  0.12500087981E+03 0.  0.
          2    1    1    2  501    0  0.21760701178E+02  0.51555874193E+02 -0.61044579503E+03  0.61300538738E+03  0.00000000000E+00 0. -1.
          1    1    1    2  502    0 -0.98281098627E+02  0.29096467542E+02  0.85315192910E+02  0.13335839273E+03  0.00000000000E+00 0. -1.
         22    1    3    3    0    0  0.10117585918E+03 -0.30026501631E+02 -0.45953567961E+03  0.47149887180E+03  0.00000000000E+00 0.  1.
         22    1    3    3    0    0 -0.24655461730E+02 -0.50625840104E+02 -0.13892901359E+03  0.14990709888E+03  0.00000000000E+00 0.  1.
</event>
<event>
 7    1  0.6315518E-006  0.1056052E+03  0.7818608E-02  0.1323090E+00
          2   -1    0    0  502    0  0.00000000000E+00  0.00000000000E+00  0.11760067618E+04  0.11760067618E+04  0.00000000000E+00 0. -1.
          1   -1    0    0  501    0 -0.00000000000E+00 -0.00000000000E+00 -0.60907183899E+03  0.60907183899E+03  0.00000000000E+00 0. -1.
         25    2    1    2    0    0  0.15973046798E+03 -0.48367702025E+02  0.71101201883E+03  0.74095628026E+03  0.12499944531E+03 0.  0.
          2    1    1    2  501    0 -0.10373429532E+03  0.17612094963E+02 -0.58713176162E+03  0.59648528516E+03  0.00000000000E+00 0. -1.
          1    1    1    2  502    0 -0.55996172658E+02  0.30755607062E+02  0.44305466558E+03  0.44763703535E+03  0.00000000000E+00 0. -1.
         22    1    3    3    0    0  0.44342794165E+02  0.41650804766E+02  0.24874538951E+03  0.25607682780E+03  0.00000000000E+00 0.  1.
         22    1    3    3    0    0  0.11538767381E+03 -0.90018506791E+02  0.46226662932E+03  0.48487945246E+03  0.00000000000E+00 0.  1.
</event>
<event>
 7    1  0.6315518E-006  0.4357910E+02  0.7818608E-02  0.1510881E+00
          2   -1    0    0  502    0  0.00000000000E+00  0.00000000000E+00  0.18383707162E+03  0.18383707162E+03  0.00000000000E+00 0. -1.
          1   -1    0    0  501    0 -0.00000000000E+00 -0.00000000000E+00 -0.34473090533E+03  0.34473090533E+03  0.00000000000E+00 0. -1.
         25    2    1    2    0    0 -0.82357939102E+01 -0.75252555019E+02 -0.90507272607E+01  0.14641723024E+03  0.12500125723E+03 0.  0.
          2    1    1    2  501    0 -0.57799457166E+01  0.35589803459E+02 -0.26187825805E+03  0.26434875435E+03  0.00000000000E+00 0. -1.
          1    1    1    2  502    0  0.14015739627E+02  0.39662751560E+02  0.11003515160E+03  0.11780199237E+03  0.00000000000E+00 0. -1.
         22    1    3    3    0    0  0.24276484424E+02  0.28102927834E+02  0.37028267494E+01  0.37320680256E+02  0.00000000000E+00 0. -1.
         22    1    3    3    0    0 -0.32512278334E+02 -0.10335548285E+03 -0.12753554010E+02  0.10909654998E+03  0.00000000000E+00 0. -1.
</event>
<event>
 7    1  0.1517547E-005  0.5869700E+02  0.7818608E-02  0.1463989E+00
          2   -1    0    0  502    0  0.00000000000E+00  0.00000000000E+00  0.17428715479E+04  0.17428715479E+04  0.00000000000E+00 0. -1.
          1   -1    0    0  501    0 -0.00000000000E+00 -0.00000000000E+00 -0.16150911926E+04  0.16150911926E+04  0.00000000000E+00 0. -1.
         25    2    1    2    0    0  0.35431066546E+02  0.59881343974E+02 -0.19892830949E+03  0.24502754758E+03  0.12499956369E+03 0.  0.
          2    1    1    2  501    0 -0.37138314717E+02 -0.12095272466E+01 -0.13923645055E+04  0.13928602347E+04  0.00000000000E+00 0. -1.
          1    1    1    2  502    0  0.17072481713E+01 -0.58671816727E+02  0.17190731703E+04  0.17200749581E+04  0.00000000000E+00 0. -1.
         22    1    3    3    0    0  0.81583132552E+02  0.26150893200E+02 -0.12595905068E+03  0.15233305347E+03  0.00000000000E+00 0. -1.
         22    1    3    3    0    0 -0.46152066006E+02  0.33730450774E+02 -0.72969258814E+02  0.92694494107E+02  0.00000000000E+00 0. -1.
</event>
<event>
 7    1  0.6315518E-006  0.1798580E+03  0.7818608E-02  0.1242037E+00
          2   -1    0    0  502    0  0.00000000000E+00  0.00000000000E+00  0.11814728907E+04  0.11814728907E+04  0.00000000000E+00 0. -1.
          1   -1    0    0  501    0 -0.00000000000E+00 -0.00000000000E+00 -0.11526436256E+04  0.11526436256E+04  0.00000000000E+00 0. -1.
         25    2    1    2    0    0  0.83408567187E+02  0.12432237887E+03  0.32189759178E+02  0.19765698083E+03  0.12497623177E+03 0.  0.
          2    1    1    2  501    0 -0.56657127878E+02  0.57783755780E+02 -0.10604156975E+04  0.10634991510E+04  0.00000000000E+00 0. -1.
          1    1    1    2  502    0 -0.26751439309E+02 -0.18210613464E+03  0.10570552034E+04  0.10729603845E+04  0.00000000000E+00 0. -1.
         22    1    3    3    0    0  0.10602664106E+03  0.85380261224E+02  0.55426519930E+02  0.14698141628E+03  0.00000000000E+00 0.  1.
         22    1    3    3    0    0 -0.22618073869E+02  0.38942117641E+02 -0.23236760751E+02  0.50675564547E+02  0.00000000000E+00 0.  1.
</event>
<event>
 7    1  0.6315518E-006  0.4799924E+02  0.7818608E-02  0.1552777E+00
          2   -1    0    0  502    0  0.00000000000E+00  0.00000000000E+00  0.16624516542E+04  0.16624516542E+04  0.00000000000E+00 0. -1.
          1   -1    0    0  501    0 -0.00000000000E+00 -0.00000000000E+00 -0.56413038032E+03  0.56413038032E+03  0.00000000000E+00 0. -1.
         25    2    1    2    0    0 -0.15337444928E+02  0.21996045532E+02  0.24732821028E+03  0.27841684908E+03  0.12500254004E+03 0.  0.
          2    1    1    2  501    0  0.11879874011E+02 -0.46600606737E+02 -0.54742153485E+03  0.54952987615E+03  0.00000000000E+00 0. -1.
          1    1    1    2  502    0  0.34575709176E+01  0.24604561205E+02  0.13984145985E+04  0.13986353093E+04  0.00000000000E+00 0. -1.
         22    1    3    3    0    0  0.16981332353E+02 -0.14164986140E+02 -0.39823535494E+01  0.22469348470E+02  0.00000000000E+00 0. -1.
         22    1    3    3    0    0 -0.32318777282E+02  0.36161031673E+02  0.25131056383E+03  0.25594750061E+03  0.00000000000E+00 0. -1.
</event>
<event>
 7    1  0.6315518E-006  0.5537412E+02  0.7818608E-02  0.1551895E+00
          2   -1    0    0  502    0  0.00000000000E+00  0.00000000000E+00  0.13367395420E+04  0.13367395420E+04  0.00000000000E+00 0. -1.
          1   -1    0    0  501    0 -0.00000000000E+00 -0.00000000000E+00 -0.36398931681E+02  0.36398931681E+02  0.00000000000E+00 0. -1.
         25    2    1    2    0    0  0.28353935973E+02  0.38753248336E+02  0.81615401898E+03  0.82707309490E+03  0.12504703781E+03 0.  0.
          2    1    1    2  501    0 -0.13115350204E+02 -0.54144961938E+02 -0.54256107725E+01  0.55974338464E+02  0.00000000000E+00 0. -1.
          1    1    1    2  502    0 -0.15238585768E+02  0.15391713602E+02  0.48961220208E+03  0.49009104028E+03  0.00000000000E+00 0. -1.
         22    1    3    3    0    0  0.84946375700E+01  0.21984241293E+02  0.21218102023E+02  0.31712356994E+02  0.00000000000E+00 0.  1.
         22    1    3    3    0    0  0.19859298403E+02  0.16769007043E+02  0.79493591696E+03  0.79536073790E+03  0.00000000000E+00 0.  1.
</event>
<event>
 7    1  0.6315518E-006  0.3172728E+02  0.7818608E-02  0.1613499E+00
          2   -1    0    0  502    0  0.00000000000E+00  0.00000000000E+00  0.19026128698E+03  0.19026128698E+03  0.00000000000E+00 0. -1.
          1   -1    0    0  501    0 -0.00000000000E+00 -0.00000000000E+00 -0.17746145456E+03  0.17746145456E+03  0.00000000000E+00 0. -1.
         25    2    1    2    0    0 -0.23831690018E+01  0.23454871499E+02  0.12822200597E+03  0.18061616418E+03  0.12500202182E+03 0.  0.
          2    1    1    2  501    0  0.25306148509E+02  0.53845614399E+01 -0.14029208855E+03  0.14265785910E+03  0.00000000000E+00 0. -1.
          1    1    1    2  502    0 -0.22922979507E+02 -0.28839432939E+02  0.24869915005E+02  0.44448718250E+02  0.00000000000E+00 0. -1.
         22    1    3    3    0    0  0.11359657065E+02  0.57512596373E+02  0.13498713749E+02  0.60157757796E+02  0.00000000000E+00 0. -1.
         22    1    3    3    0    0 -0.13742826066E+02 -0.34057724874E+02  0.11472329222E+03  0.12045840638E+03  0.00000000000E+00 0. -1.
</event>
<event>
 7    1  0.6315518E-006  0.1130668E+03  0.7818608E-02  0.1312717E+00
          2   -1    0    0  502    0  0.00000000000E+00  0.00000000000E+00  0.58708931519E+03  0.58708931519E+03  0.00000000000E+00 0. -1.
          1   -1    0    0  501    0 -0.00000000000E+00 -0.00000000000E+00 -0.52903799293E+03  0.52903799293E+03  0.00000000000E+00 0. -1.
         25    2    1    2    0    0 -0.43620106979E+01  0.49945813997E+02 -0.14582577308E+03  0.19850483617E+03  0.12500160966E+03 0.  0.
          2    1    1    2  501    0 -0.16107952796E+02  0.63472137284E+02 -0.34786345511E+03  0.35397339132E+03  0.00000000000E+00 0. -1.
          1    1    1    2  502    0  0.20469963494E+02 -0.11341795128E+03  0.55174055045E+03  0.56364908063E+03  0.00000000000E+00 0. -1.
         22    1    3    3    0    0  0.28092485811E+02  0.56191301933E+02 -0.15237032223E+03  0.16481312225E+03  0.00000000000E+00 0.  1.
         22    1    3    3    0    0 -0.32454496509E+02 -0.62454879361E+01  0.65445491461E+01  0.33691713918E+02  0.00000000000E+00 0.  1.
</event>
<event>
 7    1  0.6315518E-006  0.1653749E+03  0.7818608E-02  0.1359054E+00
          2   -1    0    0  502    0  0.00000000000E+00  0.00000000000E+00  0.86334256129E+02  0.86334256129E+02  0.00000000000E+00 0. -1.
          1   -1    0    0  501    0 -0.00000000000E+00 -0.00000000000E+00 -0.18007479063E+04  0.18007479063E+04  0.00000000000E+00 0. -1.
         25    2    1    2    0    0 -0.83971256987E+02 -0.13442796427E+03 -0.54549231413E+03  0.58164364367E+03  0.12500165546E+03 0.  0.
          2    1    1    2  501    0  0.63116357693E+02  0.15583959305E+03 -0.12278790176E+04  0.12393371354E+04  0.00000000000E+00 0. -1.
          1    1    1    2  502    0  0.20854899294E+02 -0.21411628771E+02  0.58957681532E+02  0.66101383366E+02  0.00000000000E+00 0. -1.
         22    1    3    3    0    0 -0.12599145711E+02 -0.48666714078E+02 -0.40739694032E+02  0.64706338188E+02  0.00000000000E+00 0.  1.
         22    1    3    3    0    0 -0.71372111276E+02 -0.85761250196E+02 -0.50475262010E+03  0.51693730548E+03  0.00000000000E+00 0.  1.
</event>
<event>
 7    1  0.6315518E-006  0.1417231E+03  0.7818608E-02  0.1332060E+00
          2   -1    0    0  502    0  0.00000000000E+00  0.00000000000E+00  0.91031414911E+03  0.91031414911E+03  0.00000000000E+00 0. -1.
          1   -1    0    0  501    0 -0.00000000000E+00 -0.00000000000E+00 -0.36830112730E+03  0.36830112730E+03  0.00000000000E+00 0. -1.
         25    2    1    2    0    0 -0.27449716190E+02 -0.14236834895E+03 -0.14075609946E+03  0.23761051581E+03  0.12499697592E+03 0.  0.
          2    1    1    2  501    0  0.67885430868E+02  0.12507119706E+03 -0.15018059597E+03  0.20689477390E+03  0.00000000000E+00 0. -1.
          1    1    1    2  502    0 -0.40435714678E+02  0.17297151886E+02  0.83294971723E+03  0.83410998671E+03  0.00000000000E+00 0. -1.
         22    1    3    3    0    0 -0.75727996812E+02 -0.10465039925E+03 -0.83925143267E+02  0.15404501042E+03  0.00000000000E+00 0.  1.
         22    1    3    3    0    0  0.48278280622E+02 -0.37717949704E+02 -0.56830956188E+02  0.83565505389E+02  0.00000000000E+00 0.  1.
</event>
<event>
 7    1  0.6315518E-006  0.6768019E+02  0.7818608E-02  0.1451122E+00
          2   -1    0    0  502    0  0.00000000000E+00  0.00000000000E+00  0.45294285969E+03  0.45294285969E+03  0.00000000000E+00 0. -1.
          1   -1    0    0  501    0 -0.00000000000E+00 -0.00000000000E+00 -0.84848906056E+03  0.84848906056E+03  0.00000000000E+00 0. -1.
         25    2    1    2    0    0 -0.35150877901E+02 -0.27377802619E+02  0.12337734744E+03  0.18119550637E+03  0.12499885349E+03 0.  0.
          2    1    1    2  501    0  0.66915786325E+02  0.11764617780E+02 -0.81712349044E+03  0.81994324641E+03  0.00000000000E+00 0. -1.
          1    1    1    2  502    0 -0.31764908424E+02  0.15613184838E+02  0.29819994213E+03  0.30029316748E+03  0.00000000000E+00 0. -1.
         22    1    3    3    0    0  0.34063620856E+02 -0.10049810824E+02 -0.34428694839E+01  0.35681680366E+02  0.00000000000E+00 0. -1.
         22    1    3    3    0    0 -0.69214498757E+02 -0.17327991795E+02  0.12682021693E+03  0.14551382601E+03  0.00000000000E+00 0. -1.
</event>
<event>
 7    1  0.1440407E-005  0.8068655E+02  0.7818608E-02  0.1392856E+00
          2   -1    0    0  502    0  0.00000000000E+00  0.00000000000E+00  0.17220030519E+04  0.17220030519E+04  0.00000000000E+00 0. -1.
          1   -1    0    0  501    0 -0.00000000000E+00 -0.00000000000E+00 -0.14826644452E+04  0.14826644452E+04  0.00000000000E+00 0. -1.
         25    2    1    2    0    0 -0.57798353752E+02  0.48573737852E+02 -0.49680426894E+03  0.51782198210E+03  0.12500026322E+03 0.  0.
          2    1    1    2  501    0 -0.22526905825E+02 -0.40590703044E+02 -0.97384630841E+03  0.97495215219E+03  0.00000000000E+00 0. -1.
          1    1    1    2  502    0  0.80325259576E+02 -0.79830348075E+01  0.17099891841E+04  0.17118933628E+04  0.00000000000E+00 0. -1.
         22    1    3    3    0    0 -0.11190141429E+02  0.61862434756E+02 -0.43380838989E+03  0.43833993571E+03  0.00000000000E+00 0. -1.
         22    1    3    3    0    0 -0.46608212323E+02 -0.13288696904E+02 -0.62995879050E+02  0.79482046392E+02  0.00000000000E+00 0. -1.
</event>
<event>
 7    1  0.6315518E-006  0.1858362E+03  0.7818608E-02  0.1243854E+00
          2   -1    0    0  502    0  0.00000000000E+00  0.00000000000E+00  0.16211501558E+04  0.16211501558E+04  0.00000000000E+00 0. -1.
          1   -1    0    0  501    0 -0.00000000000E+00 -0.00000000000E+00 -0.23828295397E+04  0.23828295397E+04  0.00000000000E+00 0. -1.
         25    2    1    2    0    0 -0.69291556976E+02  0.95153060468E+02  0.26198077255E+02  0.17368589607E+03  0.12500010583E+03 0.  0.
          2    1    1    2  501    0 -0.64514511246E+02  0.41846143000E+02 -0.23024142700E+04  0.23036980472E+04  0.00000000000E+00 0. -1.
          1    1    1    2  502    0  0.13380606822E+03 -0.13699920347E+03  0.15145368089E+04  0.15265957523E+04  0.00000000000E+00 0. -1.
         22    1    3    3    0    0  0.20264547271E+02 -0.54470293612E+01  0.32686518629E+02  0.38842380270E+02  0.00000000000E+00 0.  1.
         22    1    3    3    0    0 -0.89556104246E+02  0.10060008983E+03 -0.64884413740E+01  0.13484351580E+03  0.00000000000E+00 0.  1.
</event>
<event>
 7    1  0.6315518E-006  0.6710987E+02  0.7818608E-02  0.1419743E+00
          2   -1    0    0  502    0  0.00000000000E+00  0.00000000000E+00  0.29519148745E+04  0.29519148745E+04  0.00000000000E+00 0. -1.
          1   -1    0    0  501    0 -0.00000000000E+00 -0.00000000000E+00 -0.41278543969E+03  0.41278543969E+03  0.00000000000E+00 0. -1.
         25    2    1    2    0    0 -0.37612090950E+02  0.29832372055E+02  0.20581496672E+03  0.24553850802E+03  0.12499887434E+03 0.  0.
          2    1    1    2  501    0  0.26041302598E+02  0.36942965804E+02 -0.39120107578E+03  0.39380352189E+03  0.00000000000E+00 0. -1.
          1    1    1    2  502    0  0.11570788351E+02 -0.66775337858E+02  0.27245155438E+04  0.27253582842E+04  0.00000000000E+00 0. -1.
         22    1    3    3    0    0  0.31239047982E+02  0.47090383801E+02  0.55009466706E+02  0.78863323495E+02  0.00000000000E+00 0. -1.
         22    1    3    3    0    0 -0.68851138932E+02 -0.17258011747E+02  0.15080550002E+03  0.16667518453E+03  0.00000000000E+00 0. -1.
</event>
<event>
 7    1  0.6315518E-006  0.1060600E+03  0.7818608E-02  0.1361886E+00
          2   -1    0    0  502    0  0.00000000000E+00  0.00000000000E+00  0.13172208632E+04  0.13172208632E+04  0.00000000000E+00 0. -1.
          1   -1    0    0  501    0 -0.00000000000E+00 -0.00000000000E+00 -0.20618336502E+04  0.20618336502E+04  0.00000000000E+00 0. -1.
         25    2    1    2    0    0 -0.13850650270E+03 -0.59827274029E+02 -0.17153165175E+03  0.26039764210E+03  0.12498188049E+03 0.  0.
          2    1    1    2  501    0  0.40070984545E+02  0.21575986654E+02 -0.18433970601E+04  0.18439587653E+04  0.00000000000E+00 0. -1.
          1    1    1    2  502    0  0.98435518152E+02  0.38251287375E+02  0.12703159249E+04  0.12746981060E+04  0.00000000000E+00 0. -1.
         22    1    3    3    0    0 -0.88603521304E+02 -0.84680027472E+01 -0.16626895601E+03  0.18859389383E+03  0.00000000000E+00 0.  1.
         22    1    3    3    0    0 -0.49902981393E+02 -0.51359271281E+02 -0.52626957409E+01  0.71803748265E+02  0.00000000000E+00 0.  1.
</event>
<event>
 7    1  0.6315518E-006  0.5280031E+02  0.7818608E-02  0.1544077E+00
          2   -1    0    0  502    0  0.00000000000E+00  0.00000000000E+00  0.67941786346E+03  0.67941786346E+03  0.00000000000E+00 0. -1.
          1   -1    0    0  501    0 -0.00000000000E+00 -0.00000000000E+00 -0.15474295661E+03  0.15474295661E+03  0.00000000000E+00 0. -1.
         25    2    1    2    0    0 -0.29872577082E+02 -0.22799552934E+02  0.31448397035E+03  0.34049824544E+03  0.12500678809E+03 0.  0.
          2    1    1    2  501    0  0.25867042894E+02  0.46349309243E+02 -0.13634078205E+03  0.14630847967E+03  0.00000000000E+00 0. -1.
          1    1    1    2  502    0  0.40055341888E+01 -0.23549756309E+02  0.34653171855E+03  0.34735409496E+03  0.00000000000E+00 0. -1.
         22    1    3    3    0    0 -0.48497802132E+02 -0.33508139490E+02  0.31349745893E+03  0.31899136192E+03  0.00000000000E+00 0. -1.
         22    1    3    3    0    0  0.18625225050E+02  0.10708586556E+02  0.98651141879E+00  0.21506883525E+02  0.00000000000E+00 0. -1.
</event>
<event>
 7    1  0.6315518E-006  0.1179847E+03  0.7818608E-02  0.1363467E+00
          2   -1    0    0  502    0  0.00000000000E+00  0.00000000000E+00  0.10007205299E+04  0.10007205299E+04  0.00000000000E+00 0. -1.
          1   -1    0    0  501    0 -0.00000000000E+00 -0.00000000000E+00 -0.18234541381E+04  0.18234541381E+04  0.00000000000E+00 0. -1.
         25    2    1    2    0    0 -0.88315550892E+02  0.11339056403E+03  0.14601166736E+02  0.19103542092E+03  0.12499712571E+03 0.  0.
          2    1    1    2  501    0 -0.30529453979E+01 -0.40257514665E+02 -0.17311871449E+04  0.17316578527E+04  0.00000000000E+00 0. -1.
          1    1    1    2  502    0  0.91368496290E+02 -0.73133049362E+02  0.89385236998E+03  0.90148139434E+03  0.00000000000E+00 0. -1.
         22    1    3    3    0    0  0.21805364893E+02  0.67178792532E+02  0.11586803482E+02  0.71573166195E+02  0.00000000000E+00 0.  1.
         22    1    3    3    0    0 -0.11012091578E+03  0.46211771494E+02  0.30143632540E+01  0.11946225472E+03  0.00000000000E+00 0.  1.
</event>
<event>
 7    1  0.6315518E-006  0.1254144E+03  0.7818608E-02  0.1303323E+00
          2   -1    0    0  502    0  0.00000000000E+00  0.00000000000E+00  0.46492325237E+03  0.46492325237E+03  0.00000000000E+00 0. -1.
          1   -1    0    0  501    0 -0.00000000000E+00 -0.00000000000E+00 -0.13941329724E+04  0.13941329724E+04  0.00000000000E+00 0. -1.
         25    2    1    2    0    0 -0.95386541097E+02  0.13198205425E+03  0.11067150758E+03  0.23323301595E+03  0.12502640630E+03 0.  0.
          2    1    1    2  501    0  0.10461181825E+03 -0.68339775812E+02 -0.13263510754E+04  0.13322241301E+04  0.00000000000E+00 0. -1.
          1    1    1    2  502    0 -0.92252771557E+01 -0.63642278441E+02  0.28646984780E+03  0.29359907875E+03  0.00000000000E+00 0. -1.
         22    1    3    3    0    0 -0.38840087874E+02 -0.13747343181E+02 -0.85533385990E+00  0.41210113645E+02  0.00000000000E+00 0.  1.
         22    1    3    3    0    0 -0.56546453223E+02  0.14572939743E+03  0.11152684144E+03  0.19202290231E+03  0.00000000000E+00 0.  1.
</event>
<event>
 7    1  0.6315518E-006  0.7040330E+02  0.7818608E-02  0.1437852E+00
          2   -1    0    0  502    0  0.00000000000E+00  0.00000000000E+00  0.15662656202E+03  0.15662656202E+03  0.00000000000E+00 0. -1.
          1   -1    0    0  501    0 -0.00000000000E+00 -0.00000000000E+00 -0.52991797015E+03  0.52991797015E+03  0.00000000000E+00 0. -1.
         25    2    1    2    0    0  0.43717381989E+02 -0.57594772091E+02 -0.34604306363E+02  0.14849648741E+03  0.12500152597E+03 0.  0.
          2    1    1    2  501    0 -0.65446844962E+02  0.26972071471E+02 -0.43184463764E+03  0.43760778469E+03  0.00000000000E+00 0. -1.
          1    1    1    2  502    0  0.21729462972E+02  0.30622700620E+02  0.93157535876E+02  0.10044026008E+03  0.00000000000E+00 0. -1.
         22    1    3    3    0    0 -0.57011553790E+00 -0.87881735031E+02 -0.35634525343E+02  0.94833241958E+02  0.00000000000E+00 0. -1.
         22    1    3    3    0    0  0.44287497527E+02  0.30286962941E+02  0.10302189801E+01  0.53663245453E+02  0.00000000000E+00 0. -1.
</event>
<event>
 7    1  0.6315518E-006  0.5783265E+02  0.7818608E-02  0.1483560E+00
          2   -1    0    0  502    0  0.00000000000E+00  0.00000000000E+00  0.12591108568E+04  0.12591108568E+04  0.00000000000E+00 0. -1.
          1   -1    0    0  501    0 -0.00000000000E+00 -0.00000000000E+00 -0.43960825266E+02  0.43960825266E+02  0.00000000000E+00 0. -1.
         25    2    1    2    0    0  0.60102319976E+02 -0.36442589368E+02  0.39107443013E+03  0.41653815548E+03  0.12499789551E+03 0.  0.
          2    1    1    2  501    0 -0.27884518507E+01  0.32685708963E+02 -0.21362252325E+02  0.39146862691E+02  0.00000000000E+00 0. -1.
          1    1    1    2  502    0 -0.57313868126E+02  0.37568804050E+01  0.84543785373E+03  0.84738666390E+03  0.00000000000E+00 0. -1.
         22    1    3    3    0    0  0.74616215558E+02  0.16416566890E+02  0.13940268488E+03  0.15896600845E+03  0.00000000000E+00 0.  1.
         22    1    3    3    0    0 -0.14513895582E+02 -0.52859156258E+02  0.25167174525E+03  0.25757214702E+03  0.00000000000E+00 0.  1.
</event>
<event>
 7    1  0.6315518E-006  0.3471370E+03  0.7818608E-02  0.1271861E+00
          2   -1    0    0  502    0  0.00000000000E+00  0.00000000000E+00  0.36378721878E+04  0.36378721878E+04  0.00000000000E+00 0. -1.
          1   -1    0    0  501    0 -0.00000000000E+00 -0.00000000000E+00 -0.64932636820E+03  0.64932636820E+03  0.00000000000E+00 0. -1.
         25    2    1    2    0    0  0.55972764943E+01 -0.34993496095E+03  0.63914143677E+02  0.37708810735E+03  0.12499846618E+03 0.  0.
          2    1    1    2  501    0 -0.30996525156E+02  0.38143968977E+01 -0.48342302207E+03  0.48443075095E+03  0.00000000000E+00 0. -1.
          1    1    1    2  502    0  0.25399248661E+02  0.34612056405E+03  0.34080546980E+04  0.34256796977E+04  0.00000000000E+00 0. -1.
         22    1    3    3    0    0  0.63915492811E+02 -0.22223817895E+03  0.40392000324E+02  0.23474776271E+03  0.00000000000E+00 0. -1.
         22    1    3    3    0    0 -0.58318216317E+02 -0.12769678200E+03  0.23522143353E+02  0.14234034465E+03  0.00000000000E+00 0. -1.
</event>
<event>
 7    1  0.6315518E-006  0.9254330E+02  0.7818608E-02  0.1411492E+00
          2   -1    0    0  502    0  0.00000000000E+00  0.00000000000E+00  0.59896830391E+03  0.59896830391E+03  0.00000000000E+00 0. -1.
          1   -1    0    0  501    0 -0.00000000000E+00 -0.00000000000E+00 -0.65411304119E+02  0.65411304119E+02  0.00000000000E+00 0. -1.
         25    2    1    2    0    0 -0.15177038260E+02  0.88771497885E+02  0.32244908895E+03  0.35736587424E+03  0.12500492700E+03 0.  0.
          2    1    1    2  501    0 -0.34332546091E+02 -0.64781412648E+01 -0.30902511553E+02  0.46643919814E+02  0.00000000000E+00 0. -1.
          1    1    1    2  502    0  0.49509584350E+02 -0.82293356620E+02  0.24201042239E+03  0.26036981398E+03  0.00000000000E+00 0. -1.
         22    1    3    3    0    0 -0.23274756960E+02  0.99964602899E+02  0.32707151231E+03  0.34279791468E+03  0.00000000000E+00 0. -1.
         22    1    3    3    0    0  0.80977187004E+01 -0.11193105014E+02 -0.46224233547E+01  0.14567959558E+02  0.00000000000E+00 0. -1.
</event>
<event>
 7    1  0.6315518E-006  0.1761816E+03  0.7818608E-02  0.1301647E+00
          2   -1    0    0  502    0  0.00000000000E+00  0.00000000000E+00  0.18811607240E+04  0.18811607240E+04  0.00000000000E+00 0. -1.
          1   -1    0    0  501    0 -0.00000000000E+00 -0.00000000000E+00 -0.95254546619E+03  0.95254546619E+03  0.00000000000E+00 0. -1.
         25    2    1    2    0    0 -0.15605430195E+03  0.32580371798E+01  0.76918165345E+02  0.21427489777E+03  0.12503506585E+03 0.  0.
          2    1    1    2  501    0 -0.17218586670E+02 -0.43180309657E+02 -0.87869675708E+03  0.87992557058E+03  0.00000000000E+00 0. -1.
          1    1    1    2  502    0  0.17327288862E+03  0.39922272478E+02  0.17303938495E+04  0.17395057218E+04  0.00000000000E+00 0. -1.
         22    1    3    3    0    0 -0.16153649764E+03 -0.17688071222E+02  0.93065778903E+02  0.18726491165E+03  0.00000000000E+00 0. -1.
         22    1    3    3    0    0  0.54821956874E+01  0.20946108402E+02 -0.16147613558E+02  0.27009986123E+02  0.00000000000E+00 0. -1.
</event>
<event>
 7    1  0.6315518E-006  0.1387422E+03  0.7818608E-02  0.1296004E+00
          2   -1    0    0  502    0  0.00000000000E+00  0.00000000000E+00  0.58241727934E+03  0.58241727934E+03  0.00000000000E+00 0. -1.
          1   -1    0    0  501    0 -0.00000000000E+00 -0.00000000000E+00 -0.30748205049E+03  0.30748205049E+03  0.00000000000E+00 0. -1.
         25    2    1    2    0    0  0.14814104110E+03 -0.10015294322E+02  0.21861649996E+03  0.29234289507E+03  0.12500048025E+03 0.  0.
          2    1    1    2  501    0 -0.26357174922E+02 -0.56327784929E+02 -0.25195936357E+03  0.25952079091E+03  0.00000000000E+00 0. -1.
          1    1    1    2  502    0 -0.12178386618E+03  0.66343079251E+02  0.30827809246E+03  0.33803564385E+03  0.00000000000E+00 0. -1.
         22    1    3    3    0    0 -0.18244516559E+02 -0.18279564427E+02  0.43903294663E+02  0.50936275309E+02  0.00000000000E+00 0.  1.
         22    1    3    3    0    0  0.16638555766E+03  0.82642701056E+01  0.17471320530E+03  0.24140661976E+03  0.00000000000E+00 0.  1.
</event>
<event>
 7    1  0.6315518E-006  0.1043806E+03  0.7818608E-02  0.1278225E+00
          2   -1    0    0  502    0  0.00000000000E+00  0.00000000000E+00  0.42720406988E+03  0.42720406988E+03  0.00000000000E+00 0. -1.
          1   -1    0    0  501    0 -0.00000000000E+00 -0.00000000000E+00 -0.76345855073E+03  0.76345855073E+03  0.00000000000E+00 0. -1.
         25    2    1    2    0    0  0.10511676379E+03  0.11008536082E+03 -0.45656956344E+03  0.49724206587E+03  0.12500234046E+03 0.  0.
          2    1    1    2  501    0 -0.97516799355E+02 -0.61782302257E+01 -0.27120770884E+03  0.28827299218E+03  0.00000000000E+00 0. -1.
          1    1    1    2  502    0 -0.75999644382E+01 -0.10390713060E+03  0.39152279142E+03  0.40514756256E+03  0.00000000000E+00 0. -1.
         22    1    3    3    0    0  0.67602949033E+02  0.92634545847E+02 -0.15480780614E+03  0.19265714273E+03  0.00000000000E+00 0. -1.
         22    1    3    3    0    0  0.37513814760E+02  0.17450814976E+02 -0.30176175729E+03  0.30458492314E+03  0.00000000000E+00 0. -1.
</event>
<event>
 7    1  0.6315518E-006  0.1295649E+03  0.7818608E-02  0.1331026E+00
          2   -1    0    0  502    0  0.00000000000E+00  0.00000000000E+00  0.31509509346E+04  0.31509509346E+04  0.00000000000E+00 0. -1.
          1   -1    0    0  501    0 -0.00000000000E+00 -0.00000000000E+00 -0.77853504555E+02  0.77853504555E+02  0.00000000000E+00 0. -1.
         25    2    1    2    0    0  0.83468683567E+02 -0.62021306015E+02  0.15644675050E+04  0.15728945822E+04  0.12500051506E+03 0.  0.
          2    1    1    2  501    0  0.32725193391E+02 -0.35857403878E+02 -0.61553665039E+02  0.78393528910E+02  0.00000000000E+00 0. -1.
          1    1    1    2  502    0 -0.11619387696E+03  0.97878709893E+02  0.15701835901E+04  0.15775163281E+04  0.00000000000E+00 0. -1.
         22    1    3    3    0    0 -0.23421530618E+02  0.42331234627E+01  0.57146743167E+03  0.57196285971E+03  0.00000000000E+00 0.  1.
         22    1    3    3    0    0  0.10689021418E+03 -0.66254429478E+02  0.99300007336E+03  0.10009317225E+04  0.00000000000E+00 0.  1.
</event>
<event>
 7    1  0.6315518E-006  0.1556566E+03  0.7818608E-02  0.1278118E+00
          2   -1    0    0  502    0  0.00000000000E+00  0.00000000000E+00  0.73345172347E+03  0.73345172347E+03  0.00000000000E+00 0. -1.
          1   -1    0    0  501    0 -0.00000000000E+00 -0.00000000000E+00 -0.64660012664E+03  0.64660012664E+03  0.00000000000E+00 0. -1.
         25    2    1    2    0    0  0.18507765155E+02  0.21550114263E+03  0.86710840769E+02  0.26443750033E+03  0.12500056732E+03 0.  0.
          2    1    1    2  501    0 -0.24199975392E+02 -0.15015761987E+03 -0.54536646222E+03  0.56617800004E+03  0.00000000000E+00 0. -1.
          1    1    1    2  502    0  0.56922102369E+01 -0.65343522753E+02  0.54550721828E+03  0.54943634974E+03  0.00000000000E+00 0. -1.
         22    1    3    3    0    0 -0.35394693663E+01  0.44415877809E+02 -0.32156385690E+02  0.54948441157E+02  0.00000000000E+00 0. -1.
         22    1    3    3    0    0  0.22047234522E+02  0.17108526482E+03  0.11886722646E+03  0.20948905918E+03  0.00000000000E+00 0. -1.
</event>
<event>
 7    1  0.6315518E-006  0.1213678E+03  0.7818608E-02  0.1330925E+00
          2   -1    0    0  502    0  0.00000000000E+00  0.00000000000E+00  0.94232495895E+03  0.94232495895E+03  0.00000000000E+00 0. -1.
          1   -1    0    0  501    0 -0.00000000000E+00 -0.00000000000E+00 -0.68470800757E+02  0.68470800757E+02  0.00000000000E+00 0. -1.
         25    2    1    2    0    0  0.97599269445E+02  0.27525125615E+01  0.50087568068E+03  0.52538934034E+03  0.12499727088E+03 0.  0.
          2    1    1    2  501    0  0.48909015719E+02 -0.17275543687E+02 -0.27509821509E+02  0.58713937934E+02  0.00000000000E+00 0. -1.
          1    1    1    2  502    0 -0.14650828516E+03  0.14523031126E+02  0.40048829902E+03  0.42669248142E+03  0.00000000000E+00 0. -1.
         22    1    3    3    0    0  0.11298085907E+03 -0.34231846653E+02  0.39140053643E+03  0.40881643040E+03  0.00000000000E+00 0. -1.
         22    1    3    3    0    0 -0.15381589623E+02  0.36984359215E+02  0.10947514425E+03  0.11657290995E+03  0.00000000000E+00 0. -1.
</event>
<event>
 7    1  0.6315518E-006  0.1167719E+03  0.7818608E-02  0.1360365E+00
          2   -1    0    0  502    0  0.00000000000E+00  0.00000000000E+00  0.52625209589E+03  0.52625209589E+03  0.00000000000E+00 0. -1.
          1   -1    0    0  501    0 -0.00000000000E+00 -0.00000000000E+00 -0.68207069102E+03  0.68207069102E+03  0.00000000000E+00 0. -1.
         25    2    1    2    0    0  0.70460318121E+02  0.11600003460E+03  0.14694075507E+03  0.23587722610E+03  0.12500326328E+03 0.  0.
          2    1    1    2  501    0 -0.28715750362E+02 -0.11280705074E+03 -0.63094865035E+03  0.64159662125E+03  0.00000000000E+00 0. -1.
          1    1    1    2  502    0 -0.41744567759E+02 -0.31929838630E+01  0.32818930015E+03  0.33084893957E+03  0.00000000000E+00 0. -1.
         22    1    3    3    0    0  0.34117251510E+02 -0.22761570660E+02  0.30160820928E+02  0.50909243449E+02  0.00000000000E+00 0.  1.
         22    1    3    3    0    0  0.36343066612E+02  0.13876160526E+03  0.11677993415E+03  0.18496798265E+03  0.00000000000E+00 0.  1.
</event>
<event>
 7    1  0.6315518E-006  0.6775745E+02  0.7818608E-02  0.1420671E+00
          2   -1    0    0  502    0  0.00000000000E+00  0.00000000000E+00  0.16590336397E+04  0.16590336397E+04  0.00000000000E+00 0. -1.
          1   -1    0    0  501    0 -0.00000000000E+00 -0.00000000000E+00 -0.26694540338E+02  0.26694540338E+02  0.00000000000E+00 0. -1.
         25    2    1    2    0    0  0.33077088804E+02  0.20560541931E+01  0.34360101235E+03  0.36712983475E+03  0.12499735481E+03 0.  0.
          2    1    1    2  501    0  0.27548152823E+02  0.34882572079E+02  0.21504014808E+02  0.49377294495E+02  0.00000000000E+00 0. -1.
          1    1    1    2  502    0 -0.60625241626E+02 -0.36938626272E+02  0.12672340722E+04  0.12692210508E+04  0.00000000000E+00 0. -1.
         22    1    3    3    0    0  0.41206559062E+02 -0.55148058261E+02  0.14905032887E+03  0.16418066078E+03  0.00000000000E+00 0.  1.
         22    1    3    3    0    0 -0.81294702587E+01  0.57204112454E+02  0.19455068349E+03  0.20294917397E+03  0.00000000000E+00 0.  1.
</event>
<event>
 7    1  0.6315518E-006  0.1116239E+03  0.7818608E-02  0.1297038E+00
          2   -1    0    0  502    0  0.00000000000E+00  0.00000000000E+00  0.24176128384E+04  0.24176128384E+04  0.00000000000E+00 0. -1.
          1   -1    0    0  501    0 -0.00000000000E+00 -0.00000000000E+00 -0.28902204106E+03  0.28902204106E+03  0.00000000000E+00 0. -1.
         25    2    1    2    0    0  0.10062954133E+03 -0.36802510807E+02  0.13549107234E+04  0.13648770688E+04  0.12500246056E+03 0.  0.
          2    1    1    2  501    0  0.18975848335E+02  0.74171105814E+02 -0.27508152692E+03  0.28553683162E+03  0.00000000000E+00 0. -1.
          1    1    1    2  502    0 -0.11960538967E+03 -0.37368595007E+02  0.10487616008E+04  0.10562209790E+04  0.00000000000E+00 0. -1.
         22    1    3    3    0    0  0.57676893820E+02 -0.51164801257E+02  0.12226168200E+04  0.12250454479E+04  0.00000000000E+00 0. -1.
         22    1    3    3    0    0  0.42952647511E+02  0.14362290450E+02  0.13229390347E+03  0.13983162093E+03  0.00000000000E+00 0. -1.
</event>
<event>
 7    1  0.6315518E-006  0.4703198E+02  0.7818608E-02  0.1465323E+00
          2   -1    0    0  502    0  0.00000000000E+00  0.00000000000E+00  0.24901689522E+04  0.24901689522E+04  0.00000000000E+00 0. -1.
          1   -1    0    0  501    0 -0.00000000000E+00 -0.00000000000E+00 -0.72755599730E+02  0.72755599730E+02  0.00000000000E+00 0. -1.
         25    2    1    2    0    0  0.43454552521E+01  0.17972240337E+01  0.38243682726E+03  0.40237346433E+03  0.12499745979E+03 0.  0.
          2    1    1    2  501    0  0.16850112176E+02 -0.43909917142E+02 -0.53676247916E+02  0.71366285417E+02  0.00000000000E+00 0. -1.
          1    1    1    2  502    0 -0.21195567428E+02  0.42112693109E+02  0.20886527731E+04  0.20891848022E+04  0.00000000000E+00 0. -1.
         22    1    3    3    0    0  0.31693418347E+02 -0.21305109078E+02  0.31190590102E+02  0.49307538473E+02  0.00000000000E+00 0. -1.
         22    1    3    3    0    0 -0.27347963095E+02  0.23102333112E+02  0.35124623716E+03  0.35306592585E+03  0.00000000000E+00 0. -1.
</event>
<event>
 7    1  0.6315518E-006  0.3714909E+03  0.7818608E-02  0.1146189E+00
          2   -1    0    0  502    0  0.00000000000E+00  0.00000000000E+00  0.35956182014E+03  0.35956182014E+03  0.00000000000E+00 0. -1.
          1   -1    0    0  501    0 -0.00000000000E+00 -0.00000000000E+00 -0.17440712163E+04  0.17440712163E+04  0.00000000000E+00 0. -1.
         25    2    1    2    0    0  0.60111213658E+01  0.29271800711E+03 -0.41470467587E+03  0.52280476514E+03  0.12499955600E+03 0.  0.
          2    1    1    2  501    0  0.59027524144E+02  0.95554466493E+02 -0.11445918317E+04  0.11500892860E+04  0.00000000000E+00 0. -1.
          1    1    1    2  502    0 -0.65038645510E+02 -0.38827247361E+03  0.17478711136E+03  0.43073898531E+03  0.00000000000E+00 0. -1.
         22    1    3    3    0    0 -0.32512329247E+02  0.19850324426E+03 -0.19260087575E+03  0.27848821676E+03  0.00000000000E+00 0.  1.
         22    1    3    3    0    0  0.38523450612E+02  0.94214762854E+02 -0.22210380012E+03  0.24431654838E+03  0.00000000000E+00 0.  1.
</event>
<event>
 7    1  0.6315518E-006  0.1045459E+03  0.7818608E-02  0.1373240E+00
          2   -1    0    0  502    0  0.00000000000E+00  0.00000000000E+00  0.14552604309E+03  0.14552604309E+03  0.00000000000E+00 0. -1.
          1   -1    0    0  501    0 -0.00000000000E+00 -0.00000000000E+00 -0.11192368903E+04  0.11192368903E+04  0.00000000000E+00 0. -1.
         25    2    1    2    0    0 -0.43987391012E+02  0.46434120173E+02  0.58179461946E+02  0.15198992531E+03  0.12500027807E+03 0.  0.
          2    1    1    2  501    0  0.66956557664E+02 -0.81612762429E+02 -0.10580355158E+04  0.10632887549E+04  0.00000000000E+00 0. -1.
          1    1    1    2  502    0 -0.22969166652E+02  0.35178642256E+02  0.26145206603E+02  0.49484253212E+02  0.00000000000E+00 0. -1.
         22    1    3    3    0    0 -0.42826795387E+02 -0.26799499833E+02  0.60362552897E+02  0.78714581792E+02  0.00000000000E+00 0. -1.
         22    1    3    3    0    0 -0.11605956247E+01  0.73233620006E+02 -0.21830909517E+01  0.73275343516E+02  0.00000000000E+00 0. -1.
</event>
<event>
 7    1  0.6315518E-006  0.6610919E+02  0.7818608E-02  0.1423138E+00
          2   -1    0    0  502    0  0.00000000000E+00  0.00000000000E+00  0.74510367318E+03  0.74510367318E+03  0.00000000000E+00 0. -1.
          1   -1    0    0  501    0 -0.00000000000E+00 -0.00000000000E+00 -0.41163440546E+03  0.41163440546E+03  0.00000000000E+00 0. -1.
         25    2    1    2    0    0 -0.75013264861E+02 -0.73571231863E+02 -0.41870546679E+02  0.16857609942E+03  0.12500017022E+03 0.  0.
          2    1    1    2  501    0  0.41176471136E+02  0.17402821225E+02 -0.30319161628E+03  0.30646943754E+03  0.00000000000E+00 0. -1.
          1    1    1    2  502    0  0.33836793726E+02  0.56168410638E+02  0.67853143068E+03  0.68169254168E+03  0.00000000000E+00 0. -1.
         22    1    3    3    0    0 -0.28552702665E+02  0.34937565474E+02 -0.85219169902E+01  0.45918551588E+02  0.00000000000E+00 0. -1.
         22    1    3    3    0    0 -0.46460562197E+02 -0.10850879734E+03 -0.33348629689E+02  0.12265754784E+03  0.00000000000E+00 0. -1.
</event>
<event>
 7    1  0.6315518E-006  0.6336222E+02  0.7818608E-02  0.1385736E+00
          2   -1    0    0  502    0  0.00000000000E+00  0.00000000000E+00  0.34373881113E+04  0.34373881113E+04  0.00000000000E+00 0. -1.
          1   -1    0    0  501    0 -0.00000000000E+00 -0.00000000000E+00 -0.26109473644E+02  0.26109473644E+02  0.00000000000E+00 0. -1.
         25    2    1    2    0    0 -0.45935014922E+02  0.51659279072E+02  0.86347118847E+03  0.87520653046E+03  0.12500108373E+03 0.  0.
          2    1    1    2  501    0 -0.15660238927E+02 -0.62829188455E+02  0.32946981903E+02  0.72651590634E+02  0.00000000000E+00 0. -1.
          1    1    1    2  502    0  0.61595253849E+02  0.11169909383E+02  0.25148604673E+04  0.25156394639E+04  0.00000000000E+00 0. -1.
         22    1    3    3    0    0  0.31714369629E+02  0.19509018296E+02  0.53006556585E+03  0.53137172218E+03  0.00000000000E+00 0.  1.
         22    1    3    3    0    0 -0.77649384551E+02  0.32150260776E+02  0.33340562261E+03  0.34383480827E+03  0.00000000000E+00 0.  1.
</event>
<event>
 7    1  0.6315518E-006  0.3392961E+03  0.7818608E-02  0.1260227E+00
          2   -1    0    0  502    0  0.00000000000E+00  0.00000000000E+00  0.14884035848E+04  0.14884035848E+04  0.00000000000E+00 0. -1.
          1   -1    0    0  501    0 -0.00000000000E+00 -0.00000000000E+00 -0.81923380096E+03  0.81923380096E+03  0.00000000000E+00 0. -1.
         25    2    1    2    0    0 -0.16277718211E+03  0.28722288719E+03 -0.38784613865E+02  0.35513708885E+03  0.12499883065E+03 0.  0.
          2    1    1    2  501    0  0.13823387916E+03 -0.31326152201E+03 -0.57490251498E+03  0.66914444498E+03  0.00000000000E+00 0. -1.
          1    1    1    2  502    0  0.24543302944E+02  0.26038634813E+02  0.12828569127E+04  0.12833558519E+04  0.00000000000E+00 0. -1.
         22    1    3    3    0    0 -0.33369117941E+02 -0.30262397960E+01  0.65159099023E+01  0.34133755160E+02  0.00000000000E+00 0.  1.
         22    1    3    3    0    0 -0.12940806417E+03  0.29024912699E+03 -0.45300523768E+02  0.32100333370E+03  0.00000000000E+00 0.  1.
</event>
<event>
 7    1  0.6315518E-006  0.8288012E+02  0.7818608E-02  0.1482504E+00
          2   -1    0    0  502    0  0.00000000000E+00  0.00000000000E+00  0.56917411462E+03  0.56917411462E+03  0.00000000000E+00 0. -1.
          1   -1    0    0  501    0 -0.00000000000E+00 -0.00000000000E+00 -0.46522634066E+02  0.46522634066E+02  0.00000000000E+00 0. -1.
         25    2    1    2    0    0 -0.74850377357E+02 -0.46299017957E+02  0.34563840844E+03  0.37794049798E+03  0.12500773004E+03 0.  0.
          2    1    1    2  501    0  0.56419762155E+02  0.60159981494E+02  0.28196373048E+02  0.87163343145E+02  0.00000000000E+00 0. -1.
          1    1    1    2  502    0  0.18430615201E+02 -0.13860963538E+02  0.14881669906E+03  0.15059290756E+03  0.00000000000E+00 0. -1.
         22    1    3    3    0    0 -0.35291018551E+02  0.22760429436E+02  0.25007333302E+03  0.25357477206E+03  0.00000000000E+00 0. -1.
         22    1    3    3    0    0 -0.39559358805E+02 -0.69059447393E+02  0.95565075420E+02  0.12436572592E+03  0.00000000000E+00 0. -1.
</event>
<event>
 7    1  0.6315518E-006  0.4207585E+02  0.7818608E-02  0.1566745E+00
          2   -1    0    0  502    0  0.00000000000E+00  0.00000000000E+00  0.13122838978E+04  0.13122838978E+04  0.00000000000E+00 0. -1.
          1   -1    0    0  501    0 -0.00000000000E+00 -0.00000000000E+00 -0.49139631952E+03  0.49139631952E+03  0.00000000000E+00 0. -1.
         25    2    1    2    0    0 -0.46751483695E+02 -0.46509296270E+02  0.17847843393E+03  0.22765882509E+03  0.12500069357E+03 0.  0.
          2    1    1    2  501    0  0.34776619331E+02  0.23496696469E+02 -0.46571062615E+03  0.46759800610E+03  0.00000000000E+00 0. -1.
          1    1    1    2  502    0  0.11974864364E+02  0.23012599801E+02  0.11081197705E+04  0.11084233861E+04  0.00000000000E+00 0. -1.
         22    1    3    3    0    0 -0.20731303813E+02 -0.12636382908E+02  0.18309415993E+03  0.18469687742E+03  0.00000000000E+00 0.  1.
         22    1    3    3    0    0 -0.26020179881E+02 -0.33872913362E+02 -0.46157259929E+01  0.42961947664E+02  0.00000000000E+00 0.  1.
</event>
<event>
 7    1  0.6315518E-006  0.8956247E+02  0.7818608E-02  0.1383014E+00
          2   -1    0    0  502    0  0.00000000000E+00  0.00000000000E+00  0.19799296342E+04  0.19799296342E+04  0.00000000000E+00 0. -1.
          1   -1    0    0  501    0 -0.00000000000E+00 -0.00000000000E+00 -0.54013863754E+03  0.54013863754E+03  0.00000000000E+00 0. -1.
         25    2    1    2    0    0 -0.24322958318E+02  0.77316727174E+02  0.81570909895E+02  0.16984629750E+03  0.12499787531E+03 0.  0.
          2    1    1    2  501    0 -0.19669294417E+02 -0.88015351026E+02 -0.49162209337E+03  0.49982583551E+03  0.00000000000E+00 0. -1.
          1    1    1    2  502    0  0.43992252735E+02  0.10698623853E+02  0.18498421801E+04  0.18503961387E+04  0.00000000000E+00 0. -1.
         22    1    3    3    0    0  0.41624307387E+02 -0.55892055748E+01  0.14345266455E+02  0.44380275507E+02  0.00000000000E+00 0.  1.
         22    1    3    3    0    0 -0.65947265705E+02  0.82905932748E+02  0.67225643440E+02  0.12546602199E+03  0.00000000000E+00 0.  1.
</event>
<event>
 7    1  0.6315518E-006  0.2013739E+03  0.7818608E-02  0.1191374E+00
          2   -1    0    0  502    0  0.00000000000E+00  0.00000000000E+00  0.11060187925E+04  0.11060187925E+04  0.00000000000E+00 0. -1.
          1   -1    0    0  501    0 -0.00000000000E+00 -0.00000000000E+00 -0.25888809452E+04  0.25888809452E+04  0.00000000000E+00 0. -1.
         25    2    1    2    0    0  0.26357557460E+02  0.86693981617E+02  0.42841209428E+02  0.16022352768E+03  0.12500256923E+03 0.  0.
          2    1    1    2  501    0 -0.11879226998E+03 -0.16847898226E+03 -0.25221773174E+04  0.25305879142E+04  0.00000000000E+00 0. -1.
          1    1    1    2  502    0  0.92434712517E+02  0.81785000642E+02  0.99647395525E+03  0.10040882959E+04  0.00000000000E+00 0. -1.
         22    1    3    3    0    0  0.60285563979E+02  0.21443880905E+02  0.56572758651E+02  0.85408818478E+02  0.00000000000E+00 0. -1.
         22    1    3    3    0    0 -0.33928006518E+02  0.65250100712E+02 -0.13731549223E+02  0.74814709204E+02  0.00000000000E+00 0. -1.
</event>
<event>
 7    1  0.6315518E-006  0.4649760E+02  0.7818608E-02  0.1468756E+00
          2   -1    0    0  502    0  0.00000000000E+00  0.00000000000E+00  0.23798528366E+04  0.23798528366E+04  0.00000000000E+00 0. -1.
          1   -1    0    0  501    0 -0.00000000000E+00 -0.00000000000E+00 -0.22392711320E+03  0.22392711320E+03  0.00000000000E+00 0. -1.
         25    2    1    2    0    0  0.35637427266E+01 -0.42316745750E+01  0.27260139456E+02  0.12806174040E+03  0.12500434720E+03 0.  0.
          2    1    1    2  501    0  0.11407689898E+02  0.47011982308E+02 -0.16992693405E+03  0.17667887475E+03  0.00000000000E+00 0. -1.
          1    1    1    2  502    0 -0.14971432624E+02 -0.42780307733E+02  0.22985925179E+04  0.22990393346E+04  0.00000000000E+00 0. -1.
         22    1    3    3    0    0 -0.45554011996E+01  0.57501323237E+02  0.31373055816E+02  0.65661423113E+02  0.00000000000E+00 0.  1.
         22    1    3    3    0    0  0.81191439262E+01 -0.61732997812E+02 -0.41129163595E+01  0.62400317290E+02  0.00000000000E+00 0.  1.
</event>
<event>
 7    1  0.6315518E-006  0.2410415E+03  0.7818608E-02  0.1223756E+00
          2   -1    0    0  502    0  0.00000000000E+00  0.00000000000E+00  0.39099051363E+03  0.39099051363E+03  0.00000000000E+00 0. -1.
          1   -1    0    0  501    0 -0.00000000000E+00 -0.00000000000E+00 -0.62327502401E+03  0.62327502401E+03  0.00000000000E+00 0. -1.
         25    2    1    2    0    0 -0.25860772498E+03 -0.12927081959E+03 -0.21663365733E+03  0.38228817808E+03  0.12500083758E+03 0.  0.
          2    1    1    2  501    0  0.18729665359E+03  0.11431519974E+03 -0.28116136881E+03  0.35665069276E+03  0.00000000000E+00 0. -1.
          1    1    1    2  502    0  0.71311071398E+02  0.14955619857E+02  0.26551051576E+03  0.27532666680E+03  0.00000000000E+00 0. -1.
         22    1    3    3    0    0 -0.20051706065E+03 -0.76495833189E+02 -0.88745754406E+02  0.23223805250E+03  0.00000000000E+00 0.  1.
         22    1    3    3    0    0 -0.58090664336E+02 -0.52774986404E+02 -0.12788790292E+03  0.15005012558E+03  0.00000000000E+00 0.  1.
</event>
<event>
 7    1  0.6315518E-006  0.1007079E+03  0.7818608E-02  0.1302346E+00
          2   -1    0    0  502    0  0.00000000000E+00  0.00000000000E+00  0.26252682104E+04  0.26252682104E+04  0.00000000000E+00 0. -1.
          1   -1    0    0  501    0 -0.00000000000E+00 -0.00000000000E+00 -0.96154069412E+03  0.96154069412E+03  0.00000000000E+00 0. -1.
         25    2    1    2    0    0 -0.11161044162E+03 -0.12965654335E+03  0.78461328120E+03  0.81271920738E+03  0.12500719618E+03 0.  0.
          2    1    1    2  501    0  0.40017599571E+02  0.92187507094E+02 -0.94392531427E+03  0.94926020861E+03  0.00000000000E+00 0. -1.
          1    1    1    2  502    0  0.71592842044E+02  0.37469036258E+02  0.18230395493E+04  0.18248294885E+04  0.00000000000E+00 0. -1.
         22    1    3    3    0    0 -0.98898846293E+02 -0.14261883110E+03  0.53499951323E+03  0.56244607914E+03  0.00000000000E+00 0.  1.
         22    1    3    3    0    0 -0.12711595323E+02  0.12962287750E+02  0.24961376797E+03  0.25027312824E+03  0.00000000000E+00 0.  1.
</event>
<event>
 7    1  0.6315518E-006  0.2421002E+03  0.7818608E-02  0.1273192E+00
          2   -1    0    0  502    0  0.00000000000E+00  0.00000000000E+00  0.72278174095E+03  0.72278174095E+03  0.00000000000E+00 0. -1.
          1   -1    0    0  501    0 -0.00000000000E+00 -0.00000000000E+00 -0.99680266126E+03  0.99680266126E+03  0.00000000000E+00 0. -1.
         25    2    1    2    0    0 -0.26700847223E+02  0.21090358028E+03  0.10736314678E+03  0.26896955202E+03  0.12499807683E+03 0.  0.
          2    1    1    2  501    0  0.62621148287E+02 -0.23667572532E+03 -0.89868145459E+03  0.93143178171E+03  0.00000000000E+00 0. -1.
          1    1    1    2  502    0 -0.35920301064E+02  0.25772145042E+02  0.51729738749E+03  0.51918306848E+03  0.00000000000E+00 0. -1.
         22    1    3    3    0    0 -0.38263626822E+02  0.21375541359E+03  0.12280203816E+03  0.24947108561E+03  0.00000000000E+00 0.  1.
         22    1    3    3    0    0  0.11562779599E+02 -0.28518333167E+01 -0.15438891381E+02  0.19498466412E+02  0.00000000000E+00 0.  1.
</event>
<event>
 7    1  0.6315518E-006  0.1670808E+03  0.7818608E-02  0.1324001E+00
          2   -1    0    0  502    0  0.00000000000E+00  0.00000000000E+00  0.31812106760E+03  0.31812106760E+03  0.00000000000E+00 0. -1.
          1   -1    0    0  501    0 -0.00000000000E+00 -0.00000000000E+00 -0.38313370898E+03  0.38313370898E+03  0.00000000000E+00 0. -1.
         25    2    1    2    0    0  0.79745351206E+02 -0.13706438637E+03 -0.41231737201E+02  0.20607706267E+03  0.12498692955E+03 0.  0.
          2    1    1    2  501    0  0.37563365968E+02  0.13905568973E+02 -0.22680950810E+03  0.23031917914E+03  0.00000000000E+00 0. -1.
          1    1    1    2  502    0 -0.11730871717E+03  0.12315881740E+03  0.20302860393E+03  0.26485853477E+03  0.00000000000E+00 0. -1.
         22    1    3    3    0    0  0.15436982936E+02 -0.13407969837E+03 -0.12386590236E+02  0.13553262919E+03  0.00000000000E+00 0. -1.
         22    1    3    3    0    0  0.64308368270E+02 -0.29846879978E+01 -0.28845146964E+02  0.70544433483E+02  0.00000000000E+00 0. -1.
</event>
<event>
 7    1  0.6315518E-006  0.4075673E+02  0.7818608E-02  0.1551578E+00
          2   -1    0    0  502    0  0.00000000000E+00  0.00000000000E+00  0.21849142986E+04  0.21849142986E+04  0.00000000000E+00 0. -1.
          1   -1    0    0  501    0 -0.00000000000E+00 -0.00000000000E+00 -0.15269247174E+03  0.15269247174E+03  0.00000000000E+00 0. -1.
         25    2    1    2    0    0  0.31200662461E+02 -0.29803406737E+02  0.53208038223E+03  0.54826639970E+03  0.12499914998E+03 0.  0.
          2    1    1    2  501    0 -0.27350287954E+02 -0.11020428736E+02 -0.14283772091E+03  0.14584958901E+03  0.00000000000E+00 0. -1.
          1    1    1    2  502    0 -0.38503745062E+01  0.40823835473E+02  0.16429791656E+04  0.16434907817E+04  0.00000000000E+00 0. -1.
         22    1    3    3    0    0 -0.19783514784E+02  0.35426712883E+02  0.93267217368E+02  0.10171142157E+03  0.00000000000E+00 0. -1.
         22    1    3    3    0    0  0.50984177245E+02 -0.65230119620E+02  0.43881316486E+03  0.44655497813E+03  0.00000000000E+00 0. -1.
</event>
<event>
 7    1  0.6315518E-006  0.1398434E+03  0.7818608E-02  0.1336992E+00
          2   -1    0    0  502    0  0.00000000000E+00  0.00000000000E+00  0.60827125580E+03  0.60827125580E+03  0.00000000000E+00 0. -1.
          1   -1    0    0  501    0 -0.00000000000E+00 -0.00000000000E+00 -0.25223912047E+03  0.25223912047E+03  0.00000000000E+00 0. -1.
         25    2    1    2    0    0 -0.32444439535E+02  0.15402342657E+03 -0.17695494011E+02  0.20178046640E+03  0.12500547398E+03 0.  0.
          2    1    1    2  501    0  0.59574347638E+02 -0.12106054503E+03 -0.10940959603E+03  0.17371015561E+03  0.00000000000E+00 0. -1.
          1    1    1    2  502    0 -0.27129908103E+02 -0.32962881538E+02  0.48313722537E+03  0.48501975425E+03  0.00000000000E+00 0. -1.
         22    1    3    3    0    0  0.45853218861E+02  0.33658652808E+02 -0.11658181185E+02  0.58063205021E+02  0.00000000000E+00 0. -1.
         22    1    3    3    0    0 -0.78297658396E+02  0.12036477376E+03 -0.60373128256E+01  0.14371726138E+03  0.00000000000E+00 0. -1.
</event>
<event>
 7    1  0.6315518E-006  0.8419772E+02  0.7818608E-02  0.1337815E+00
          2   -1    0    0  502    0  0.00000000000E+00  0.00000000000E+00  0.14189389949E+04  0.14189389949E+04  0.00000000000E+00 0. -1.
          1   -1    0    0  501    0 -0.00000000000E+00 -0.00000000000E+00 -0.21193785872E+04  0.21193785872E+04  0.00000000000E+00 0. -1.
         25    2    1    2    0    0  0.10795665759E+03 -0.33031867020E+02 -0.32731177949E+02  0.17158684063E+03  0.12499987884E+03 0.  0.
          2    1    1    2  501    0 -0.29662844363E+02  0.63846370835E+02 -0.20152928536E+04  0.20165221370E+04  0.00000000000E+00 0. -1.
          1    1    1    2  502    0 -0.78293813228E+02 -0.30814503815E+02  0.13475844392E+04  0.13502086045E+04  0.00000000000E+00 0. -1.
         22    1    3    3    0    0  0.52419547206E+02 -0.24636821594E+02 -0.79593154956E+02  0.98437047007E+02  0.00000000000E+00 0.  1.
         22    1    3    3    0    0  0.55537110385E+02 -0.83950454263E+01  0.46861977007E+02  0.73149793620E+02  0.00000000000E+00 0.  1.
</event>
<event>
 7    1  0.6315518E-006  0.1644184E+03  0.7818608E-02  0.1302260E+00
          2   -1    0    0  502    0  0.00000000000E+00  0.00000000000E+00  0.23202985614E+02  0.23202985614E+02  0.00000000000E+00 0. -1.
          1   -1    0    0  501    0 -0.00000000000E+00 -0.00000000000E+00 -0.22355351122E+04  0.22355351122E+04  0.00000000000E+00 0. -1.
         25    2    1    2    0    0 -0.13639115399E+03  0.41804203064E+02 -0.11695285947E+04  0.11848090094E+04  0.12500046690E+03 0.  0.
          2    1    1    2  501    0  0.18510298094E+03 -0.50784350019E+02 -0.94501836705E+03  0.96431420078E+03  0.00000000000E+00 0. -1.
          1    1    1    2  502    0 -0.48711826944E+02  0.89801469548E+01 -0.97785164869E+02  0.10961488764E+03  0.00000000000E+00 0. -1.
         22    1    3    3    0    0 -0.14621408850E+03  0.68014905788E+02 -0.96664870608E+03  0.98000730000E+03  0.00000000000E+00 0.  1.
         22    1    3    3    0    0  0.98229345077E+01 -0.26210702725E+02 -0.20287988860E+03  0.20480170941E+03  0.00000000000E+00 0.  1.
</event>
<event>
 7    1  0.6315518E-006  0.3957253E+02  0.7818608E-02  0.1578722E+00
          2   -1    0    0  502    0  0.00000000000E+00  0.00000000000E+00  0.20532787239E+04  0.20532787239E+04  0.00000000000E+00 0. -1.
          1   -1    0    0  501    0 -0.00000000000E+00 -0.00000000000E+00 -0.83624939636E+02  0.83624939636E+02  0.00000000000E+00 0. -1.
         25    2    1    2    0    0 -0.55846276909E+02 -0.10448498284E+02  0.13260461456E+04  0.13331359497E+04  0.12500040936E+03 0.  0.
          2    1    1    2  501    0  0.32931270742E+02  0.21858740733E+02 -0.74960980456E+02  0.84743269527E+02  0.00000000000E+00 0. -1.
          1    1    1    2  502    0  0.22915006167E+02 -0.11410242448E+02  0.71856861908E+03  0.71902444428E+03  0.00000000000E+00 0. -1.
         22    1    3    3    0    0  0.17561975351E+02  0.65624916232E+00  0.28604859930E+02  0.33572185702E+02  0.00000000000E+00 0.  1.
         22    1    3    3    0    0 -0.73408252260E+02 -0.11104747447E+02  0.12974412857E+04  0.12995637640E+04  0.00000000000E+00 0.  1.
</event>
<event>
 7    1  0.6315518E-006  0.1305561E+03  0.7818608E-02  0.1418905E+00
          2   -1    0    0  502    0  0.00000000000E+00  0.00000000000E+00  0.84155283552E+03  0.84155283552E+03  0.00000000000E+00 0. -1.
          1   -1    0    0  501    0 -0.00000000000E+00 -0.00000000000E+00 -0.32819243795E+03  0.32819243795E+03  0.00000000000E+00 0. -1.
         25    2    1    2    0    0 -0.10950810195E+03  0.22462631666E+02  0.17696952948E+03  0.24380467240E+03  0.12500363877E+03 0.  0.
          2    1    1    2  501    0 -0.21113504793E+02  0.10051349370E+02 -0.28711725965E+03  0.28806792688E+03  0.00000000000E+00 0. -1.
          1    1    1    2  502    0  0.13062160674E+03 -0.32513981035E+02  0.62350812775E+03  0.63787267419E+03  0.00000000000E+00 0. -1.
         22    1    3    3    0    0 -0.12371465081E+03  0.44963483163E+02  0.17223523015E+03  0.21677639205E+03  0.00000000000E+00 0. -1.
         22    1    3    3    0    0  0.14206548864E+02 -0.22500851497E+02  0.47342993276E+01  0.27028280353E+02  0.00000000000E+00 0. -1.
</event>
<event>
 7    1  0.6315518E-006  0.4712904E+02  0.7818608E-02  0.1507534E+00
          2   -1    0    0  502    0  0.00000000000E+00  0.00000000000E+00  0.64545580493E+03  0.64545580493E+03  0.00000000000E+00 0. -1.
          1   -1    0    0  501    0 -0.00000000000E+00 -0.00000000000E+00 -0.41648861324E+03  0.41648861324E+03  0.00000000000E+00 0. -1.
         25    2    1    2    0    0  0.25323175889E+02  0.36910940158E+02 -0.46913440648E+02  0.14081596871E+03  0.12499834155E+03 0.  0.
          2    1    1    2  501    0 -0.46551288181E+02 -0.10216682254E+02 -0.32037382492E+03  0.32389935276E+03  0.00000000000E+00 0. -1.
          1    1    1    2  502    0  0.21228112292E+02 -0.26694257904E+02  0.59625445725E+03  0.59722909670E+03  0.00000000000E+00 0. -1.
         22    1    3    3    0    0  0.46649846695E+02  0.27745787574E+02  0.28925690211E+02  0.61503922468E+02  0.00000000000E+00 0. -1.
         22    1    3    3    0    0 -0.21326670806E+02  0.91651525843E+01 -0.75839130860E+02  0.79312046242E+02  0.00000000000E+00 0. -1.
</event>
<event>
 7    1  0.6315518E-006  0.6857883E+02  0.7818608E-02  0.1407860E+00
          2   -1    0    0  502    0  0.00000000000E+00  0.00000000000E+00  0.14598342640E+03  0.14598342640E+03  0.00000000000E+00 0. -1.
          1   -1    0    0  501    0 -0.00000000000E+00 -0.00000000000E+00 -0.47858549604E+03  0.47858549604E+03  0.00000000000E+00 0. -1.
         25    2    1    2    0    0  0.14969071518E+01  0.94624649411E+02 -0.17029831312E+03  0.23147929809E+03  0.12500033993E+03 0.  0.
          2    1    1    2  501    0 -0.33673064744E+02 -0.34909620363E+02 -0.26533619717E+03  0.26973293164E+03  0.00000000000E+00 0. -1.
          1    1    1    2  502    0  0.32176157592E+02 -0.59715029048E+02  0.10303244064E+03  0.12335669271E+03  0.00000000000E+00 0. -1.
         22    1    3    3    0    0  0.57645439318E+02  0.60271042402E+02 -0.12951561779E+03  0.15404509235E+03  0.00000000000E+00 0.  1.
         22    1    3    3    0    0 -0.56148532167E+02  0.34353607009E+02 -0.40782695332E+02  0.77434205733E+02  0.00000000000E+00 0.  1.
</event>
<event>
 7    1  0.6315518E-006  0.6634093E+02  0.7818608E-02  0.1504423E+00
          2   -1    0    0  502    0  0.00000000000E+00  0.00000000000E+00  0.86193515507E+03  0.86193515507E+03  0.00000000000E+00 0. -1.
          1   -1    0    0  501    0 -0.00000000000E+00 -0.00000000000E+00 -0.62367028158E+02  0.62367028158E+02  0.00000000000E+00 0. -1.
         25    2    1    2    0    0  0.25872224550E+02 -0.36124980006E+02  0.24166251184E+03  0.27568493851E+03  0.12500811776E+03 0.  0.
          2    1    1    2  501    0  0.10384248034E+02 -0.22464372571E+02 -0.39846918417E+02  0.46906903006E+02  0.00000000000E+00 0. -1.
          1    1    1    2  502    0 -0.36256472584E+02  0.58589352577E+02  0.59775253348E+03  0.60171034171E+03  0.00000000000E+00 0. -1.
         22    1    3    3    0    0  0.59689687877E+02 -0.86614927860E+01  0.21783311276E+03  0.22602908068E+03  0.00000000000E+00 0.  1.
         22    1    3    3    0    0 -0.33817463327E+02 -0.27463487220E+02  0.23829399079E+02  0.49655857828E+02  0.00000000000E+00 0.  1.
</event>
<event>
 7    1  0.6315518E-006  0.6912835E+02  0.7818608E-02  0.1468098E+00
          2   -1    0    0  502    0  0.00000000000E+00  0.00000000000E+00  0.15805768770E+04  0.15805768770E+04  0.00000000000E+00 0. -1.
          1   -1    0    0  501    0 -0.00000000000E+00 -0.00000000000E+00 -0.56657786240E+03  0.56657786240E+03  0.00000000000E+00 0. -1.
         25    2    1    2    0    0 -0.13970631046E+02 -0.43653424561E+02  0.19951116559E+03  0.23985530533E+03  0.12500024918E+03 0.  0.
          2    1    1    2  501    0  0.42472915061E+02  0.54872232270E+02 -0.54402946704E+03  0.54843684358E+03  0.00000000000E+00 0. -1.
          1    1    1    2  502    0 -0.28502284015E+02 -0.11218807709E+02  0.13585173160E+04  0.13588625905E+04  0.00000000000E+00 0. -1.
         22    1    3    3    0    0  0.59258968977E+01 -0.85928431069E+02  0.12175726220E+03  0.14914302672E+03  0.00000000000E+00 0. -1.
         22    1    3    3    0    0 -0.19896527943E+02  0.42275006509E+02  0.77753903385E+02  0.90712278613E+02  0.00000000000E+00 0. -1.
</event>
<event>
 7    1  0.6315518E-006  0.3782190E+02  0.7818608E-02  0.1532837E+00
          2   -1    0    0  502    0  0.00000000000E+00  0.00000000000E+00  0.16351000423E+02  0.16351000423E+02  0.00000000000E+00 0. -1.
          1   -1    0    0  501    0 -0.00000000000E+00 -0.00000000000E+00 -0.12817172925E+04  0.12817172925E+04  0.00000000000E+00 0. -1.
         25    2    1    2    0    0  0.54164957429E+02 -0.47751225868E+02 -0.84207055870E+03  0.85435663658E+03  0.12501365713E+03 0.  0.
          2    1    1    2  501    0 -0.25816562226E+02  0.24924437569E+02 -0.39746281254E+03  0.39907945303E+03  0.00000000000E+00 0. -1.
          1    1    1    2  502    0 -0.28348395203E+02  0.22826788298E+02 -0.25832920870E+02  0.44632203344E+02  0.00000000000E+00 0. -1.
         22    1    3    3    0    0 -0.69274894862E+01 -0.16184127283E+02 -0.65185426940E+03  0.65209194491E+03  0.00000000000E+00 0. -1.
         22    1    3    3    0    0  0.61092446915E+02 -0.31567098585E+02 -0.19021628930E+03  0.20226469167E+03  0.00000000000E+00 0. -1.
</event>
<event>
 7    1  0.6315518E-006  0.1364694E+03  0.7818608E-02  0.1330160E+00
          2   -1    0    0  502    0  0.00000000000E+00  0.00000000000E+00  0.80456021636E+03  0.80456021636E+03  0.00000000000E+00 0. -1.
          1   -1    0    0  501    0 -0.00000000000E+00 -0.00000000000E+00 -0.15147310130E+04  0.15147310130E+04  0.00000000000E+00 0. -1.
         25    2    1    2    0    0 -0.92496003057E+02  0.14711349043E+03  0.25324018425E+03  0.33158825900E+03  0.12498917130E+03 0.  0.
          2    1    1    2  501    0  0.32659716865E+02 -0.33017756524E+02 -0.14670814248E+04  0.14678163156E+04  0.00000000000E+00 0. -1.
          1    1    1    2  502    0  0.59836286192E+02 -0.11409573391E+03  0.50367044396E+03  0.51988665472E+03  0.00000000000E+00 0. -1.
         22    1    3    3    0    0 -0.11949095159E+03  0.88191487733E+02  0.16334464748E+03  0.22076525968E+03  0.00000000000E+00 0. -1.
         22    1    3    3    0    0  0.26994948535E+02  0.58922002699E+02  0.89895536769E+02  0.11082299933E+03  0.00000000000E+00 0. -1.
</event>
<event>
 7    1  0.6315518E-006  0.6660775E+02  0.7818608E-02  0.1453925E+00
          2   -1    0    0  502    0  0.00000000000E+00  0.00000000000E+00  0.19573498068E+04  0.19573498068E+04  0.00000000000E+00 0. -1.
          1   -1    0    0  501    0 -0.00000000000E+00 -0.00000000000E+00 -0.17676558254E+03  0.17676558254E+03  0.00000000000E+00 0. -1.
         25    2    1    2    0    0 -0.38144543465E+02  0.82030978285E+02  0.12371038448E+04  0.12466894788E+04  0.12499858454E+03 0.  0.
          2    1    1    2  501    0  0.66829494019E+01 -0.66173160999E+02 -0.16508807088E+03  0.17798207830E+03  0.00000000000E+00 0. -1.
          1    1    1    2  502    0  0.31461594063E+02 -0.15857817287E+02  0.70856845032E+03  0.70944383221E+03  0.00000000000E+00 0. -1.
         22    1    3    3    0    0 -0.83377048520E+02  0.42097515658E+02  0.69874736645E+03  0.70496227925E+03  0.00000000000E+00 0.  1.
         22    1    3    3    0    0  0.45232505055E+02  0.39933462627E+02  0.53835647836E+03  0.54172719956E+03  0.00000000000E+00 0.  1.
</event>
<event>
 7    1  0.6315518E-006  0.7583830E+02  0.7818608E-02  0.1393027E+00
          2   -1    0    0  502    0  0.00000000000E+00  0.00000000000E+00  0.70979576039E+03  0.70979576039E+03  0.00000000000E+00 0. -1.
          1   -1    0    0  501    0 -0.00000000000E+00 -0.00000000000E+00 -0.40914024372E+03  0.40914024372E+03  0.00000000000E+00 0. -1.
         25    2    1    2    0    0  0.88525297669E+02 -0.56298902881E+02 -0.59290418824E+02  0.17362784373E+03  0.12499991825E+03 0.  0.
          2    1    1    2  501    0 -0.39622119641E+02  0.62717141977E+02 -0.28702650241E+03  0.29645837035E+03  0.00000000000E+00 0. -1.
          1    1    1    2  502    0 -0.48903178028E+02 -0.64182390968E+01  0.64697243790E+03  0.64884979003E+03  0.00000000000E+00 0. -1.
         22    1    3    3    0    0  0.61379226606E+02  0.57879559356E+01 -0.81614612843E+02  0.10228320939E+03  0.00000000000E+00 0.  1.
         22    1    3    3    0    0  0.27146071063E+02 -0.62086858816E+02  0.22324194019E+02  0.71344634349E+02  0.00000000000E+00 0.  1.
</event>
<event>
 7    1  0.6315518E-006  0.1288778E+03  0.7818608E-02  0.1368946E+00
          2   -1    0    0  502    0  0.00000000000E+00  0.00000000000E+00  0.13080940693E+04  0.13080940693E+04  0.00000000000E+00 0. -1.
          1   -1    0    0  501    0 -0.00000000000E+00 -0.00000000000E+00 -0.10126518680E+04  0.10126518680E+04  0.00000000000E+00 0. -1.
         25    2    1    2    0    0  0.78904608030E+02  0.91554463255E+02  0.30468548676E+02  0.17653480162E+03  0.12501218666E+03 0.  0.
          2    1    1    2  501    0  0.29045867815E+02 -0.20082447699E+02 -0.93580609399E+03  0.93647210993E+03  0.00000000000E+00 0. -1.
          1    1    1    2  502    0 -0.10795047585E+03 -0.71472015557E+02  0.12007797466E+04  0.12077390257E+04  0.00000000000E+00 0. -1.
         22    1    3    3    0    0  0.30937275079E+02  0.24345444228E+02 -0.48373478040E+02  0.62368333485E+02  0.00000000000E+00 0. -1.
         22    1    3    3    0    0  0.47967332951E+02  0.67209019027E+02  0.78842026716E+02  0.11416646813E+03  0.00000000000E+00 0. -1.
</event>
<event>
 7    1  0.6315518E-006  0.5640914E+02  0.7818608E-02  0.1449001E+00
          2   -1    0    0  502    0  0.00000000000E+00  0.00000000000E+00  0.14970279528E+03  0.14970279528E+03  0.00000000000E+00 0. -1.
          1   -1    0    0  501    0 -0.00000000000E+00 -0.00000000000E+00 -0.25408442538E+04  0.25408442538E+04  0.00000000000E+00 0. -1.
         25    2    1    2    0    0 -0.50931585557E+02 -0.25343781709E+02 -0.16910800455E+03  0.21785473479E+03  0.12500733814E+03 0.  0.
          2    1    1    2  501    0 -0.31797206872E+01  0.43018142928E+02 -0.23406901070E+04  0.23410875354E+04  0.00000000000E+00 0. -1.
          1    1    1    2  502    0  0.54111306245E+02 -0.17674361220E+02  0.11865665306E+03  0.13160477888E+03  0.00000000000E+00 0. -1.
         22    1    3    3    0    0 -0.69527978203E+01 -0.44511365290E+02 -0.32166656884E+01  0.45165805380E+02  0.00000000000E+00 0.  1.
         22    1    3    3    0    0 -0.43978787737E+02  0.19167583581E+02 -0.16589133886E+03  0.17268892941E+03  0.00000000000E+00 0.  1.
</event>
<event>
 7    1  0.6315518E-006  0.6150519E+02  0.7818608E-02  0.1500753E+00
          2   -1    0    0  502    0  0.00000000000E+00  0.00000000000E+00  0.10241585335E+04  0.10241585335E+04  0.00000000000E+00 0. -1.
          1   -1    0    0  501    0 -0.00000000000E+00 -0.00000000000E+00 -0.11686052298E+04  0.11686052298E+04  0.00000000000E+00 0. -1.
         25    2    1    2    0    0 -0.14389284778E+02 -0.37487930271E+02  0.37007067106E+02  0.13640677449E+03  0.12499955472E+03 0.  0.
          2    1    1    2  501    0 -0.25493630143E+02 -0.99688415257E+01 -0.11177128232E+04  0.11180479677E+04  0.00000000000E+00 0. -1.
          1    1    1    2  502    0  0.39882914921E+02  0.47456771796E+02  0.93625905978E+03  0.93830902111E+03  0.00000000000E+00 0. -1.
         22    1    3    3    0    0  0.45442384263E+02 -0.26992975961E+02  0.51672174448E+02  0.73916470769E+02  0.00000000000E+00 0. -1.
         22    1    3    3    0    0 -0.59831669041E+02 -0.10494954310E+02 -0.14665107342E+02  0.62490303724E+02  0.00000000000E+00 0. -1.
</event>
<event>
 7    1  0.6315518E-006  0.6475076E+02  0.7818608E-02  0.1400937E+00
          2   -1    0    0  502    0  0.00000000000E+00  0.00000000000E+00  0.14632308635E+03  0.14632308635E+03  0.00000000000E+00 0. -1.
          1   -1    0    0  501    0 -0.00000000000E+00 -0.00000000000E+00 -0.36445532282E+03  0.36445532282E+03  0.00000000000E+00 0. -1.
         25    2    1    2    0    0  0.10401561543E+02  0.10778274055E+02 -0.27873426624E+02  0.12894510756E+03  0.12500219669E+03 0.  0.
          2    1    1    2  501    0 -0.55201823181E+02 -0.41365937734E+02 -0.27372768308E+03  0.28228571797E+03  0.00000000000E+00 0. -1.
          1    1    1    2  502    0  0.44800261638E+02  0.30587663680E+02  0.83468873225E+02  0.99547583646E+02  0.00000000000E+00 0. -1.
         22    1    3    3    0    0  0.37129510971E+02  0.12455253151E+02  0.39999766102E+02  0.55979596320E+02  0.00000000000E+00 0. -1.
         22    1    3    3    0    0 -0.26727949428E+02 -0.16769790963E+01 -0.67873192725E+02  0.72965511238E+02  0.00000000000E+00 0. -1.
</event>
<event>
 7    1  0.7992469E-006  0.5004485E+02  0.7818608E-02  0.1453286E+00
          2   -1    0    0  502    0  0.00000000000E+00  0.00000000000E+00  0.32736412663E+04  0.32736412663E+04  0.00000000000E+00 0. -1.
          1   -1    0    0  501    0 -0.00000000000E+00 -0.00000000000E+00 -0.12746289253E+04  0.12746289253E+04  0.00000000000E+00 0. -1.
         25    2    1    2    0    0  0.51865355831E+02 -0.24250949379E+02 -0.27503511090E+03  0.30748593046E+03  0.12500064608E+03 0.  0.
          2    1    1    2  501    0 -0.45352697400E+02 -0.22409279900E+02 -0.98254732781E+03  0.98384871518E+03  0.00000000000E+00 0. -1.
          1    1    1    2  502    0 -0.65126584311E+01  0.46660229279E+02  0.32565947797E+04  0.32569355460E+04  0.00000000000E+00 0. -1.
         22    1    3    3    0    0  0.40677430962E+02  0.21355805682E+02 -0.25016316000E+03  0.25434687033E+03  0.00000000000E+00 0.  1.
         22    1    3    3    0    0  0.11187924868E+02 -0.45606755060E+02 -0.24871950907E+02  0.53139060134E+02  0.00000000000E+00 0.  1.
</event>
<event>
 7    1  0.6315518E-006  0.7100806E+02  0.7818608E-02  0.1494570E+00
          2   -1    0    0  502    0  0.00000000000E+00  0.00000000000E+00  0.22388334079E+04  0.22388334079E+04  0.00000000000E+00 0. -1.
          1   -1    0    0  501    0 -0.00000000000E+00 -0.00000000000E+00 -0.31085321450E+03  0.31085321450E+03  0.00000000000E+00 0. -1.
         25    2    1    2    0    0  0.41296561154E+02 -0.22057059508E+02  0.73468010546E+03  0.74670706573E+03  0.12499865922E+03 0.  0.
          2    1    1    2  501    0 -0.59940040233E+02  0.38323990036E+02 -0.30058491456E+03  0.30888966881E+03  0.00000000000E+00 0. -1.
          1    1    1    2  502    0  0.18643479079E+02 -0.16266930529E+02  0.14938850025E+04  0.14940898879E+04  0.00000000000E+00 0. -1.
         22    1    3    3    0    0 -0.20544414786E+02  0.36466839297E+02  0.14528987096E+03  0.15119871015E+03  0.00000000000E+00 0. -1.
         22    1    3    3    0    0  0.61840975940E+02 -0.58523898805E+02  0.58939023450E+03  0.59550835558E+03  0.00000000000E+00 0. -1.
</event>
<event>
 7    1  0.6315518E-006  0.8942851E+02  0.7818608E-02  0.1376306E+00
          2   -1    0    0  502    0  0.00000000000E+00  0.00000000000E+00  0.12033844698E+04  0.12033844698E+04  0.00000000000E+00 0. -1.
          1   -1    0    0  501    0 -0.00000000000E+00 -0.00000000000E+00 -0.14215634871E+04  0.14215634871E+04  0.00000000000E+00 0. -1.
         25    2    1    2    0    0 -0.47490856344E+02 -0.33488273625E+02  0.56005806298E+02  0.14878973099E+03  0.12499955121E+03 0.  0.
          2    1    1    2  501    0  0.39707552767E+02  0.80744827095E+02 -0.13731775344E+04  0.13761224356E+04  0.00000000000E+00 0. -1.
          1    1    1    2  502    0  0.77833035772E+01 -0.47256553470E+02  0.10989927107E+04  0.11000357903E+04  0.00000000000E+00 0. -1.
         22    1    3    3    0    0  0.32119791929E+02 -0.20974546747E+02 -0.15187530228E+02  0.41258619938E+02  0.00000000000E+00 0. -1.
         22    1    3    3    0    0 -0.79610648273E+02 -0.12513726878E+02  0.71193336526E+02  0.10753111105E+03  0.00000000000E+00 0. -1.
</event>
<event>
 7    1  0.6315518E-006  0.6623133E+02  0.7818608E-02  0.1493270E+00
          2   -1    0    0  502    0  0.00000000000E+00  0.00000000000E+00  0.95007211648E+03  0.95007211648E+03  0.00000000000E+00 0. -1.
          1   -1    0    0  501    0 -0.00000000000E+00 -0.00000000000E+00 -0.10226146078E+04  0.10226146078E+04  0.00000000000E+00 0. -1.
         25    2    1    2    0    0 -0.42206938457E+02 -0.43500092641E+02  0.89934544692E+02  0.16549054613E+03  0.12500085926E+03 0.  0.
          2    1    1    2  501    0  0.61468382359E+02  0.24913331335E+02 -0.98350156208E+03  0.98573544053E+03  0.00000000000E+00 0. -1.
          1    1    1    2  502    0 -0.19261443902E+02  0.18586761306E+02  0.82102452610E+03  0.82146073758E+03  0.00000000000E+00 0. -1.
         22    1    3    3    0    0 -0.49573818741E+02  0.26443646373E+02  0.67975459862E+01  0.56595375867E+02  0.00000000000E+00 0.  1.
         22    1    3    3    0    0  0.73668802841E+01 -0.69943739014E+02  0.83136998705E+02  0.10889517026E+03  0.00000000000E+00 0.  1.
</event>
<event>
 7    1  0.6315518E-006  0.6290737E+02  0.7818608E-02  0.1449063E+00
          2   -1    0    0  502    0  0.00000000000E+00  0.00000000000E+00  0.16822031374E+04  0.16822031374E+04  0.00000000000E+00 0. -1.
          1   -1    0    0  501    0 -0.00000000000E+00 -0.00000000000E+00 -0.51298938639E+02  0.51298938639E+02  0.00000000000E+00 0. -1.
         25    2    1    2    0    0 -0.59497203806E+02  0.31485901129E+02  0.13723341594E+03  0.19745488387E+03  0.12499656589E+03 0.  0.
          2    1    1    2  501    0  0.63878205214E+02  0.69269846034E+01  0.28371266438E+02  0.70237717619E+02  0.00000000000E+00 0. -1.
          1    1    1    2  502    0 -0.43810014082E+01 -0.38412885733E+02  0.14652995164E+04  0.14658094746E+04  0.00000000000E+00 0. -1.
         22    1    3    3    0    0 -0.19593042081E+02  0.20470561966E+02  0.15114885827E+03  0.15378201638E+03  0.00000000000E+00 0. -1.
         22    1    3    3    0    0 -0.39904161724E+02  0.11015339163E+02 -0.13915442330E+02  0.43672867493E+02  0.00000000000E+00 0. -1.
</event>
<event>
 7    1  0.6315518E-006  0.4989133E+02  0.7818608E-02  0.1572484E+00
          2   -1    0    0  502    0  0.00000000000E+00  0.00000000000E+00  0.93096435400E+03  0.93096435400E+03  0.00000000000E+00 0. -1.
          1   -1    0    0  501    0 -0.00000000000E+00 -0.00000000000E+00 -0.13295733042E+03  0.13295733042E+03  0.00000000000E+00 0. -1.
         25    2    1    2    0    0 -0.42475841218E+02  0.28365542385E+02  0.17709324370E+03  0.22270518422E+03  0.12500712394E+03 0.  0.
          2    1    1    2  501    0  0.15834505019E+02  0.13954822851E+02 -0.10827602539E+03  0.11031394429E+03  0.00000000000E+00 0. -1.
          1    1    1    2  502    0  0.26641336198E+02 -0.42320365236E+02  0.72918980528E+03  0.73090255591E+03  0.00000000000E+00 0. -1.
         22    1    3    3    0    0 -0.22134548651E+02  0.75239191773E+02  0.74890833204E+02  0.10844127960E+03  0.00000000000E+00 0.  1.
         22    1    3    3    0    0 -0.20341292566E+02 -0.46873649388E+02  0.10220241049E+03  0.11426390463E+03  0.00000000000E+00 0.  1.
</event>
<event>
 7    1  0.6315518E-006  0.1394496E+03  0.7818608E-02  0.1261666E+00
          2   -1    0    0  502    0  0.00000000000E+00  0.00000000000E+00  0.10454199587E+03  0.10454199587E+03  0.00000000000E+00 0. -1.
          1   -1    0    0  501    0 -0.00000000000E+00 -0.00000000000E+00 -0.32105923028E+04  0.32105923028E+04  0.00000000000E+00 0. -1.
         25    2    1    2    0    0  0.12261021714E+03  0.16515470304E+03 -0.32708354530E+03  0.40610046730E+03  0.12499841061E+03 0.  0.
          2    1    1    2  501    0 -0.71831351998E+02 -0.47000824407E+02 -0.27791049279E+04  0.27804303661E+04  0.00000000000E+00 0. -1.
          1    1    1    2  502    0 -0.50778865137E+02 -0.11815387863E+03  0.13816626860E+00  0.12860346524E+03  0.00000000000E+00 0. -1.
         22    1    3    3    0    0  0.12983576437E+03  0.12154531609E+03 -0.31247877113E+03  0.35954634190E+03  0.00000000000E+00 0. -1.
         22    1    3    3    0    0 -0.72255472330E+01  0.43609386950E+02 -0.14604774177E+02  0.46554125400E+02  0.00000000000E+00 0. -1.
</event>
<event>
 7    1  0.6315518E-006  0.5301563E+02  0.7818608E-02  0.1489150E+00
          2   -1    0    0  502    0  0.00000000000E+00  0.00000000000E+00  0.21452716807E+04  0.21452716807E+04  0.00000000000E+00 0. -1.
          1   -1    0    0  501    0 -0.00000000000E+00 -0.00000000000E+00 -0.12157739781E+03  0.12157739781E+03  0.00000000000E+00 0. -1.
         25    2    1    2    0    0  0.78424430424E+02  0.33091944591E+02  0.10822147296E+03  0.18596747145E+03  0.12500618043E+03 0.  0.
          2    1    1    2  501    0 -0.48951830865E+02 -0.15329360802E+02 -0.74587478943E+02  0.90523825939E+02  0.00000000000E+00 0. -1.
          1    1    1    2  502    0 -0.29472599560E+02 -0.17762583789E+02  0.19900602889E+04  0.19903577811E+04  0.00000000000E+00 0. -1.
         22    1    3    3    0    0  0.35633533671E+02 -0.30110627532E+02  0.98546104561E+02  0.10903088249E+03  0.00000000000E+00 0. -1.
         22    1    3    3    0    0  0.42790896754E+02  0.63202572123E+02  0.96753683962E+01  0.76936588965E+02  0.00000000000E+00 0. -1.
</event>
<event>
 7    1  0.7212280E-006  0.8456166E+02  0.7818608E-02  0.1464462E+00
          2   -1    0    0  502    0  0.00000000000E+00  0.00000000000E+00  0.10334468817E+04  0.10334468817E+04  0.00000000000E+00 0. -1.
          1   -1    0    0  501    0 -0.00000000000E+00 -0.00000000000E+00 -0.25346808986E+04  0.25346808986E+04  0.00000000000E+00 0. -1.
         25    2    1    2    0    0 -0.25628988895E+02 -0.83287822220E+02 -0.14677556377E+04  0.14756442617E+04  0.12500267405E+03 0.  0.
          2    1    1    2  501    0  0.25672892601E+02 -0.12753376792E+01 -0.10610885366E+04  0.10613998335E+04  0.00000000000E+00 0. -1.
          1    1    1    2  502    0 -0.43903706179E-01  0.84563159899E+02  0.10276101575E+04  0.10310836852E+04  0.00000000000E+00 0. -1.
         22    1    3    3    0    0 -0.56323595042E+02 -0.22201172205E+02 -0.30907613323E+03  0.31494967144E+03  0.00000000000E+00 0. -1.
         22    1    3    3    0    0  0.30694606147E+02 -0.61086650015E+02 -0.11586795045E+04  0.11606945902E+04  0.00000000000E+00 0. -1.
</event>
<event>
 7    1  0.6315518E-006  0.5232908E+02  0.7818608E-02  0.1482630E+00
          2   -1    0    0  502    0  0.00000000000E+00  0.00000000000E+00  0.16505217799E+03  0.16505217799E+03  0.00000000000E+00 0. -1.
          1   -1    0    0  501    0 -0.00000000000E+00 -0.00000000000E+00 -0.36749366464E+03  0.36749366464E+03  0.00000000000E+00 0. -1.
         25    2    1    2    0    0 -0.29155526299E+02 -0.50408514871E+02 -0.24657726680E+01  0.13791795761E+03  0.12499687960E+03 0.  0.
          2    1    1    2  501    0  0.36439693741E+02 -0.19616293831E+01 -0.28888696502E+03  0.29118272241E+03  0.00000000000E+00 0. -1.
          1    1    1    2  502    0 -0.72841674420E+01  0.52370144254E+02  0.88911251042E+02  0.10344516260E+03  0.00000000000E+00 0. -1.
         22    1    3    3    0    0 -0.42796853708E+02 -0.87779146932E+02 -0.68407557895E+01  0.97895583471E+02  0.00000000000E+00 0. -1.
         22    1    3    3    0    0  0.13641327409E+02  0.37370632061E+02  0.43749831215E+01  0.40022374135E+02  0.00000000000E+00 0. -1.
</event>
<event>
 7    1  0.6315518E-006  0.3228489E+02  0.7818608E-02  0.1614064E+00
          2   -1    0    0  502    0  0.00000000000E+00  0.00000000000E+00  0.48422789161E+03  0.48422789161E+03  0.00000000000E+00 0. -1.
          1   -1    0    0  501    0 -0.00000000000E+00 -0.00000000000E+00 -0.21055553313E+02  0.21055553313E+02  0.00000000000E+00 0. -1.
         25    2    1    2    0    0 -0.74084920423E+01  0.36837059256E+02  0.30683400495E+03  0.33344217286E+03  0.12499888542E+03 0.  0.
          2    1    1    2  501    0  0.26076569811E+02 -0.19700083968E+02  0.35004640793E+02  0.47889515330E+02  0.00000000000E+00 0. -1.
          1    1    1    2  502    0 -0.18668077769E+02 -0.17136975287E+02  0.12133369256E+03  0.12395175674E+03  0.00000000000E+00 0. -1.
         22    1    3    3    0    0 -0.69258000643E+00  0.77188951870E+02  0.26020191364E+03  0.27141048215E+03  0.00000000000E+00 0.  1.
         22    1    3    3    0    0 -0.67159120359E+01 -0.40351892614E+02  0.46632091308E+02  0.62031690706E+02  0.00000000000E+00 0.  1.
</event>
<event>
 7    1  0.6315518E-006  0.8997440E+02  0.7818608E-02  0.1308877E+00
          2   -1    0    0  502    0  0.00000000000E+00  0.00000000000E+00  0.14406389578E+03  0.14406389578E+03  0.00000000000E+00 0. -1.
          1   -1    0    0  501    0 -0.00000000000E+00 -0.00000000000E+00 -0.28564752975E+03  0.28564752975E+03  0.00000000000E+00 0. -1.
         25    2    1    2    0    0 -0.78730388735E+00  0.66982028882E+02 -0.37135880953E+02  0.14659660390E+03  0.12499711428E+03 0.  0.
          2    1    1    2  501    0  0.85599151520E+02 -0.58804642653E+02 -0.15309868432E+03  0.18499839966E+03  0.00000000000E+00 0. -1.
          1    1    1    2  502    0 -0.84811847633E+02 -0.81773862280E+01  0.48650931292E+02  0.98116421969E+02  0.00000000000E+00 0. -1.
         22    1    3    3    0    0  0.21514279096E+02 -0.27113144804E+02  0.13845990220E+02  0.37278657049E+02  0.00000000000E+00 0. -1.
         22    1    3    3    0    0 -0.22301582984E+02  0.94095173686E+02 -0.50981871173E+02  0.10931794685E+03  0.00000000000E+00 0. -1.
</event>
<event>
 7    1  0.6315518E-006  0.6768808E+02  0.7818608E-02  0.1442989E+00
          2   -1    0    0  502    0  0.00000000000E+00  0.00000000000E+00  0.58500793136E+03  0.58500793136E+03  0.00000000000E+00 0. -1.
          1   -1    0    0  501    0 -0.00000000000E+00 -0.00000000000E+00 -0.11732436026E+03  0.11732436026E+03  0.00000000000E+00 0. -1.
         25    2    1    2    0    0 -0.58299905953E+02  0.46010128285E+02  0.23121130013E+03  0.27312846209E+03  0.12499872222E+03 0.  0.
          2    1    1    2  501    0 -0.90576069658E+01 -0.36477435752E+02 -0.89045917014E+02  0.96653085309E+02  0.00000000000E+00 0. -1.
          1    1    1    2  502    0  0.67357512919E+02 -0.95326925328E+01  0.32551818799E+03  0.33255074423E+03  0.00000000000E+00 0. -1.
         22    1    3    3    0    0 -0.17635494660E+02  0.25826544665E+02 -0.58016077770E+01  0.31806913306E+02  0.00000000000E+00 0. -1.
         22    1    3    3    0    0 -0.40664411293E+02  0.20183583619E+02  0.23701290790E+03  0.24132154878E+03  0.00000000000E+00 0. -1.
</event>
<event>
 7    1  0.6315518E-006  0.1115057E+03  0.7818608E-02  0.1343631E+00
          2   -1    0    0  502    0  0.00000000000E+00  0.00000000000E+00  0.58415987836E+03  0.58415987836E+03  0.00000000000E+00 0. -1.
          1   -1    0    0  501    0 -0.00000000000E+00 -0.00000000000E+00 -0.98365376124E+03  0.98365376124E+03  0.00000000000E+00 0. -1.
         25    2    1    2    0    0 -0.26259272015E+02 -0.81942340596E+02 -0.77993977224E+03  0.79456671051E+03  0.12500445026E+03 0.  0.
          2    1    1    2  501    0  0.41583787001E+02 -0.28741898400E+02 -0.18761231928E+03  0.19430308904E+03  0.00000000000E+00 0. -1.
          1    1    1    2  502    0 -0.15324514986E+02  0.11068423900E+03  0.56805820864E+03  0.57894384005E+03  0.00000000000E+00 0. -1.
         22    1    3    3    0    0 -0.11576401128E+02 -0.82689854430E+01 -0.59197747032E+03  0.59214838896E+03  0.00000000000E+00 0. -1.
         22    1    3    3    0    0 -0.14682870886E+02 -0.73673355153E+02 -0.18796230192E+03  0.20241832155E+03  0.00000000000E+00 0. -1.
</event>
<event>
 7    1  0.6315518E-006  0.8362390E+02  0.7818608E-02  0.1447338E+00
          2   -1    0    0  502    0  0.00000000000E+00  0.00000000000E+00  0.55934480334E+03  0.55934480334E+03  0.00000000000E+00 0. -1.
          1   -1    0    0  501    0 -0.00000000000E+00 -0.00000000000E+00 -0.39011919116E+03  0.39011919116E+03  0.00000000000E+00 0. -1.
         25    2    1    2    0    0 -0.23084119333E+02  0.67643828847E+02 -0.84244978294E+02  0.16682540269E+03  0.12499973787E+03 0.  0.
          2    1    1    2  501    0  0.24461598942E+02  0.16411639491E+02 -0.26033745652E+03  0.26199866984E+03  0.00000000000E+00 0. -1.
          1    1    1    2  502    0 -0.13774796091E+01 -0.84055468338E+02  0.51380804698E+03  0.52063992197E+03  0.00000000000E+00 0. -1.
         22    1    3    3    0    0  0.76936656535E+01 -0.19388112678E+02  0.19079968546E+02  0.28269004300E+02  0.00000000000E+00 0.  1.
         22    1    3    3    0    0 -0.30777784987E+02  0.87031941525E+02 -0.10332494684E+03  0.13855639839E+03  0.00000000000E+00 0.  1.
</event>
<event>
 7    1  0.6315518E-006  0.5743619E+02  0.7818608E-02  0.1414487E+00
          2   -1    0    0  502    0  0.00000000000E+00  0.00000000000E+00  0.14232773025E+03  0.14232773025E+03  0.00000000000E+00 0. -1.
          1   -1    0    0  501    0 -0.00000000000E+00 -0.00000000000E+00 -0.29653253450E+03  0.29653253450E+03  0.00000000000E+00 0. -1.
         25    2    1    2    0    0  0.32170473278E+01 -0.32936030535E+02 -0.79589655631E+02  0.15182594728E+03  0.12498589314E+03 0.  0.
          2    1    1    2  501    0 -0.58590053244E+02  0.17679999505E+02 -0.16721813206E+03  0.17806538240E+03  0.00000000000E+00 0. -1.
          1    1    1    2  502    0  0.55373005916E+02  0.15256031030E+02  0.92602983436E+02  0.10896893506E+03  0.00000000000E+00 0. -1.
         22    1    3    3    0    0 -0.28541073785E+02 -0.68338353367E+02 -0.72684498756E+02  0.10376781675E+03  0.00000000000E+00 0.  1.
         22    1    3    3    0    0  0.31758121113E+02  0.35402322832E+02 -0.69051568752E+01  0.48058130530E+02  0.00000000000E+00 0.  1.
</event>
<event>
 7    1  0.6315518E-006  0.1375326E+03  0.7818608E-02  0.1396643E+00
          2   -1    0    0  502    0  0.00000000000E+00  0.00000000000E+00  0.31871295854E+04  0.31871295854E+04  0.00000000000E+00 0. -1.
          1   -1    0    0  501    0 -0.00000000000E+00 -0.00000000000E+00 -0.11854550067E+04  0.11854550067E+04  0.00000000000E+00 0. -1.
         25    2    1    2    0    0  0.15615944761E+02 -0.11023716872E+03 -0.43268209072E+03  0.46393513614E+03  0.12500371119E+03 0.  0.
          2    1    1    2  501    0  0.66914047170E+01 -0.25562803499E+02 -0.73541607485E+03  0.73589064063E+03  0.00000000000E+00 0. -1.
          1    1    1    2  502    0 -0.22307349478E+02  0.13579997222E+03  0.31697727442E+04  0.31727588153E+04  0.00000000000E+00 0. -1.
         22    1    3    3    0    0  0.50403833037E+02 -0.27388929596E+02 -0.71102704217E+02  0.91358056001E+02  0.00000000000E+00 0. -1.
         22    1    3    3    0    0 -0.34787888276E+02 -0.82848239127E+02 -0.36157938651E+03  0.37257708014E+03  0.00000000000E+00 0. -1.
</event>
<event>
 7    1  0.6315518E-006  0.6847075E+02  0.7818608E-02  0.1439611E+00
          2   -1    0    0  502    0  0.00000000000E+00  0.00000000000E+00  0.14997333856E+03  0.14997333856E+03  0.00000000000E+00 0. -1.
          1   -1    0    0  501    0 -0.00000000000E+00 -0.00000000000E+00 -0.55035639415E+03  0.55035639415E+03  0.00000000000E+00 0. -1.
         25    2    1    2    0    0  0.23990864766E+02 -0.66400643323E+02 -0.12177766959E+03  0.18825523068E+03  0.12500249615E+03 0.  0.
          2    1    1    2  501    0 -0.54114178816E+02  0.43066392891E+02 -0.38909786018E+03  0.39519641109E+03  0.00000000000E+00 0. -1.
          1    1    1    2  502    0  0.30123314051E+02  0.23334250433E+02  0.11049247417E+03  0.11687809094E+03  0.00000000000E+00 0. -1.
         22    1    3    3    0    0  0.12454399722E+02  0.20161723802E+02  0.13474073929E+02  0.27260921616E+02  0.00000000000E+00 0.  1.
         22    1    3    3    0    0  0.11536465044E+02 -0.86562367125E+02 -0.13525174352E+03  0.16099430907E+03  0.00000000000E+00 0.  1.
</event>
<event>
 7    1  0.6315518E-006  0.1838948E+03  0.7818608E-02  0.1241873E+00
          2   -1    0    0  502    0  0.00000000000E+00  0.00000000000E+00  0.10882734941E+04  0.10882734941E+04  0.00000000000E+00 0. -1.
          1   -1    0    0  501    0 -0.00000000000E+00 -0.00000000000E+00 -0.67007008044E+03  0.67007008044E+03  0.00000000000E+00 0. -1.
         25    2    1    2    0    0  0.13351014689E+03  0.84163328605E+02  0.30178921011E+03  0.36278147892E+03  0.12500099560E+03 0.  0.
          2    1    1    2  501    0 -0.10024407927E+03 -0.15612745396E+03 -0.62395682764E+03  0.65095835510E+03  0.00000000000E+00 0. -1.
          1    1    1    2  502    0 -0.33266067617E+02  0.71964125360E+02  0.74037103116E+03  0.74460374051E+03  0.00000000000E+00 0. -1.
         22    1    3    3    0    0  0.54770544792E+02 -0.19317040661E+02  0.40127756221E+02  0.70591766206E+02  0.00000000000E+00 0.  1.
         22    1    3    3    0    0  0.78739602100E+02  0.10348036927E+03  0.26166145389E+03  0.29218971271E+03  0.00000000000E+00 0.  1.
</event>
<event>
 7    1  0.6315518E-006  0.7879154E+02  0.7818608E-02  0.1431940E+00
          2   -1    0    0  502    0  0.00000000000E+00  0.00000000000E+00  0.29102871365E+03  0.29102871365E+03  0.00000000000E+00 0. -1.
          1   -1    0    0  501    0 -0.00000000000E+00 -0.00000000000E+00 -0.63632353697E+03  0.63632353697E+03  0.00000000000E+00 0. -1.
         25    2    1    2    0    0 -0.82449683516E+02  0.65167073275E+02  0.15278144707E+03  0.22363365672E+03  0.12500057640E+03 0.  0.
          2    1    1    2  501    0  0.47473694276E+02 -0.62488265747E+02 -0.59525335902E+03  0.60040411094E+03  0.00000000000E+00 0. -1.
          1    1    1    2  502    0  0.34975989240E+02 -0.26788075280E+01  0.97177088632E+02  0.10331448295E+03  0.00000000000E+00 0. -1.
         22    1    3    3    0    0 -0.10671071871E+03  0.54530488970E+02  0.74774408888E+02  0.14125142102E+03  0.00000000000E+00 0.  1.
         22    1    3    3    0    0  0.24261035193E+02  0.10636584304E+02  0.78007038178E+02  0.82382235704E+02  0.00000000000E+00 0.  1.
</event>
<event>
 7    1  0.6315518E-006  0.4398667E+02  0.7818608E-02  0.1514055E+00
          2   -1    0    0  502    0  0.00000000000E+00  0.00000000000E+00  0.37621469559E+03  0.37621469559E+03  0.00000000000E+00 0. -1.
          1   -1    0    0  501    0 -0.00000000000E+00 -0.00000000000E+00 -0.74447586568E+03  0.74447586568E+03  0.00000000000E+00 0. -1.
         25    2    1    2    0    0  0.35305265215E+02 -0.29029485507E+02 -0.31953293303E+02  0.13687989250E+03  0.12500367689E+03 0.  0.
          2    1    1    2  501    0 -0.31577471421E+02 -0.15012105631E+02 -0.65808448581E+03  0.65901266337E+03  0.00000000000E+00 0. -1.
          1    1    1    2  502    0 -0.37277937937E+01  0.44041591138E+02  0.32177660902E+03  0.32479800540E+03  0.00000000000E+00 0. -1.
         22    1    3    3    0    0  0.19829252445E+02  0.24885249045E+02  0.36472527930E+02  0.48401654581E+02  0.00000000000E+00 0. -1.
         22    1    3    3    0    0  0.15476012770E+02 -0.53914734552E+02 -0.68425821233E+02  0.88478237914E+02  0.00000000000E+00 0. -1.
</event>
<event>
 7    1  0.6315518E-006  0.1476482E+03  0.7818608E-02  0.1302018E+00
          2   -1    0    0  502    0  0.00000000000E+00  0.00000000000E+00  0.28145866323E+03  0.28145866323E+03  0.00000000000E+00 0. -1.
          1   -1    0    0  501    0 -0.00000000000E+00 -0.00000000000E+00 -0.10658749554E+04  0.10658749554E+04  0.00000000000E+00 0. -1.
         25    2    1    2    0    0  0.48438409873E+02  0.10803462631E+03 -0.48015526960E+03  0.51008935133E+03  0.12499721349E+03 0.  0.
          2    1    1    2  501    0 -0.67714425879E+02 -0.15984672919E+03 -0.55446510074E+03  0.58100582462E+03  0.00000000000E+00 0. -1.
          1    1    1    2  502    0  0.19276016007E+02  0.51812102878E+02  0.25020407815E+03  0.25623844271E+03  0.00000000000E+00 0. -1.
         22    1    3    3    0    0 -0.39682873547E+02  0.22497229102E+02 -0.87497468941E+02  0.98674529851E+02  0.00000000000E+00 0.  1.
         22    1    3    3    0    0  0.88121283420E+02  0.85537397207E+02 -0.39265780066E+03  0.41141482148E+03  0.00000000000E+00 0.  1.
</event>
<event>
 7    1  0.6315518E-006  0.8227529E+02  0.7818608E-02  0.1322927E+00
          2   -1    0    0  502    0  0.00000000000E+00  0.00000000000E+00  0.40779887407E+02  0.40779887407E+02  0.00000000000E+00 0. -1.
          1   -1    0    0  501    0 -0.00000000000E+00 -0.00000000000E+00 -0.86254246395E+03  0.86254246395E+03  0.00000000000E+00 0. -1.
         25    2    1    2    0    0 -0.28865761489E+02  0.62885066760E+01 -0.47739385946E+03  0.49437040835E+03  0.12499770438E+03 0.  0.
          2    1    1    2  501    0 -0.63271199667E+00  0.82272857433E+02 -0.28886182153E+03  0.30035042089E+03  0.00000000000E+00 0. -1.
          1    1    1    2  502    0  0.29498473485E+02 -0.88561364109E+02 -0.55506895555E+02  0.10860152211E+03  0.00000000000E+00 0. -1.
         22    1    3    3    0    0  0.40999710578E+02 -0.27449563611E+02 -0.22376731528E+03  0.22914245830E+03  0.00000000000E+00 0. -1.
         22    1    3    3    0    0 -0.69865472067E+02  0.33738070287E+02 -0.25362654418E+03  0.26522795005E+03  0.00000000000E+00 0. -1.
</event>
<event>
 7    1  0.6315518E-006  0.7057212E+02  0.7818608E-02  0.1453708E+00
          2   -1    0    0  502    0  0.00000000000E+00  0.00000000000E+00  0.17197183850E+03  0.17197183850E+03  0.00000000000E+00 0. -1.
          1   -1    0    0  501    0 -0.00000000000E+00 -0.00000000000E+00 -0.36235917922E+04  0.36235917922E+04  0.00000000000E+00 0. -1.
         25    2    1    2    0    0 -0.71740966207E+01 -0.72835930081E+02 -0.95530104337E+01  0.14516746558E+03  0.12500317068E+03 0.  0.
          2    1    1    2  501    0 -0.25395671592E+02  0.65873036833E+02 -0.35432085941E+04  0.35439118695E+04  0.00000000000E+00 0. -1.
          1    1    1    2  502    0  0.32569768213E+02  0.69628932482E+01  0.10114165085E+03  0.10648429565E+03  0.00000000000E+00 0. -1.
         22    1    3    3    0    0 -0.53417762160E+01 -0.76647216604E+02  0.45935794764E+02  0.89517750346E+02  0.00000000000E+00 0.  1.
         22    1    3    3    0    0 -0.18323204046E+01  0.38112865234E+01 -0.55488805197E+02  0.55649715231E+02  0.00000000000E+00 0.  1.
</event>
<event>
 7    1  0.6315518E-006  0.1647229E+03  0.7818608E-02  0.1193849E+00
          2   -1    0    0  502    0  0.00000000000E+00  0.00000000000E+00  0.19324891574E+04  0.19324891574E+04  0.00000000000E+00 0. -1.
          1   -1    0    0  501    0 -0.00000000000E+00 -0.00000000000E+00 -0.40710280497E+03  0.40710280497E+03  0.00000000000E+00 0. -1.
         25    2    1    2    0    0  0.12246418162E+03 -0.16988650203E+03 -0.85193756430E+02  0.25834417003E+03  0.12499933880E+03 0.  0.
          2    1    1    2  501    0  0.40046250135E+02  0.14126606137E+03 -0.20832627933E+03  0.25487181270E+03  0.00000000000E+00 0. -1.
          1    1    1    2  502    0 -0.16251043176E+03  0.28620440657E+02  0.18189063882E+04  0.18263759796E+04  0.00000000000E+00 0. -1.
         22    1    3    3    0    0  0.11710372643E+03 -0.12664489566E+03 -0.11341157510E+03  0.20643255002E+03  0.00000000000E+00 0. -1.
         22    1    3    3    0    0  0.53604551901E+01 -0.43241606374E+02  0.28217818668E+02  0.51911620010E+02  0.00000000000E+00 0. -1.
</event>
<event>
 7    1  0.6315518E-006  0.1754060E+03  0.7818608E-02  0.1248011E+00
          2   -1    0    0  502    0  0.00000000000E+00  0.00000000000E+00  0.11869399851E+04  0.11869399851E+04  0.00000000000E+00 0. -1.
          1   -1    0    0  501    0 -0.00000000000E+00 -0.00000000000E+00 -0.12081837264E+03  0.12081837264E+03  0.00000000000E+00 0. -1.
         25    2    1    2    0    0 -0.55275112295E+02  0.16312049924E+03  0.16585128083E+03  0.26980504078E+03  0.12499790946E+03 0.  0.
          2    1    1    2  501    0 -0.69491522846E+02 -0.35720756510E+02 -0.35158059159E+02  0.85680413847E+02  0.00000000000E+00 0. -1.
          1    1    1    2  502    0  0.12476663514E+03 -0.12739974273E+03  0.93542839082E+03  0.95227290313E+03  0.00000000000E+00 0. -1.
         22    1    3    3    0    0  0.60305981207E+01 -0.90299642328E+01  0.55020533536E+02  0.56081792752E+02  0.00000000000E+00 0. -1.
         22    1    3    3    0    0 -0.61305710416E+02  0.17215046347E+03  0.11083074729E+03  0.21372324803E+03  0.00000000000E+00 0. -1.
</event>
<event>
 7    1  0.6315518E-006  0.4791188E+02  0.7818608E-02  0.1569692E+00
          2   -1    0    0  502    0  0.00000000000E+00  0.00000000000E+00  0.36532491841E+03  0.36532491841E+03  0.00000000000E+00 0. -1.
          1   -1    0    0  501    0 -0.00000000000E+00 -0.00000000000E+00 -0.10838321657E+04  0.10838321657E+04  0.00000000000E+00 0. -1.
         25    2    1    2    0    0 -0.32696626525E+02  0.80485375442E+01 -0.51484007323E+03  0.53086618217E+03  0.12499901612E+03 0.  0.
          2    1    1    2  501    0  0.49793676990E+02  0.63694320523E+01 -0.55950423767E+03  0.56175169951E+03  0.00000000000E+00 0. -1.
          1    1    1    2  502    0 -0.17097050464E+02 -0.14417969596E+02  0.35583706364E+03  0.35653920239E+03  0.00000000000E+00 0. -1.
         22    1    3    3    0    0 -0.23637461864E+02  0.14375900600E+02 -0.51849102110E+03  0.51922859617E+03  0.00000000000E+00 0.  1.
         22    1    3    3    0    0 -0.90591646618E+01 -0.63273630561E+01  0.36509478711E+01  0.11637586003E+02  0.00000000000E+00 0.  1.
</event>
<event>
 7    1  0.6315518E-006  0.7267930E+02  0.7818608E-02  0.1433603E+00
          2   -1    0    0  502    0  0.00000000000E+00  0.00000000000E+00  0.35720882219E+03  0.35720882219E+03  0.00000000000E+00 0. -1.
          1   -1    0    0  501    0 -0.00000000000E+00 -0.00000000000E+00 -0.36064543070E+03  0.36064543070E+03  0.00000000000E+00 0. -1.
         25    2    1    2    0    0 -0.10279844702E+03 -0.33580349972E+02  0.45678749071E+01  0.16534581640E+03  0.12499285142E+03 0.  0.
          2    1    1    2  501    0  0.68253375206E+02  0.18852086987E+02 -0.27444597407E+03  0.28343344385E+03  0.00000000000E+00 0. -1.
          1    1    1    2  502    0  0.34545071813E+02  0.14728262986E+02  0.26644149066E+03  0.26907499263E+03  0.00000000000E+00 0. -1.
         22    1    3    3    0    0  0.17306523619E+02 -0.20498741337E+02  0.31692927573E+02  0.41522955269E+02  0.00000000000E+00 0.  1.
         22    1    3    3    0    0 -0.12010497064E+03 -0.13081608636E+02 -0.27125052665E+02  0.12382286113E+03  0.00000000000E+00 0.  1.
</event>
<event>
 7    1  0.6315518E-006  0.1251797E+03  0.7818608E-02  0.1438694E+00
          2   -1    0    0  502    0  0.00000000000E+00  0.00000000000E+00  0.72293595278E+03  0.72293595278E+03  0.00000000000E+00 0. -1.
          1   -1    0    0  501    0 -0.00000000000E+00 -0.00000000000E+00 -0.12830099913E+03  0.12830099913E+03  0.00000000000E+00 0. -1.
         25    2    1    2    0    0  0.10257668016E+03 -0.30040071087E+02  0.79729087567E+02  0.18277492913E+03  0.12500226450E+03 0.  0.
          2    1    1    2  501    0  0.20832099536E+02 -0.25320099191E+01 -0.68300929020E+02  0.71452112287E+02  0.00000000000E+00 0. -1.
          1    1    1    2  502    0 -0.12340877970E+03  0.32572081006E+02  0.58320679510E+03  0.59700991049E+03  0.00000000000E+00 0. -1.
         22    1    3    3    0    0  0.27812332379E+02  0.46026722699E+02  0.83138105302E+01  0.54416031465E+02  0.00000000000E+00 0.  1.
         22    1    3    3    0    0  0.74764347784E+02 -0.76066793786E+02  0.71415277037E+02  0.12835889767E+03  0.00000000000E+00 0.  1.
</event>
<event>
 7    1  0.6315518E-006  0.2702435E+03  0.7818608E-02  0.1130661E+00
          2   -1    0    0  502    0  0.00000000000E+00  0.00000000000E+00  0.18203834182E+04  0.18203834182E+04  0.00000000000E+00 0. -1.
          1   -1    0    0  501    0 -0.00000000000E+00 -0.00000000000E+00 -0.62853826934E+03  0.62853826934E+03  0.00000000000E+00 0. -1.
         25    2    1    2    0    0 -0.78375920157E+02 -0.25523593078E+03  0.59174694573E+03  0.66111863562E+03  0.12500094946E+03 0.  0.
          2    1    1    2  501    0 -0.16336957118E+03  0.89535102763E+02 -0.56056349741E+03  0.59070939221E+03  0.00000000000E+00 0. -1.
          1    1    1    2  502    0  0.24174549134E+03  0.16570082801E+03  0.11606617006E+04  0.11970936597E+04  0.00000000000E+00 0. -1.
         22    1    3    3    0    0  0.67508682814E+01 -0.17316500493E+03  0.39872786446E+03  0.43475924723E+03  0.00000000000E+00 0. -1.
         22    1    3    3    0    0 -0.85126788439E+02 -0.82070925849E+02  0.19301908127E+03  0.22635938839E+03  0.00000000000E+00 0. -1.
</event>
<event>
 7    1  0.6315518E-006  0.2104705E+03  0.7818608E-02  0.1261488E+00
          2   -1    0    0  502    0  0.00000000000E+00  0.00000000000E+00  0.25837731765E+04  0.25837731765E+04  0.00000000000E+00 0. -1.
          1   -1    0    0  501    0 -0.00000000000E+00 -0.00000000000E+00 -0.33231942164E+03  0.33231942164E+03  0.00000000000E+00 0. -1.
         25    2    1    2    0    0  0.79680395667E+02  0.24177088478E+03  0.68127201658E+03  0.73794202692E+03  0.12499899332E+03 0.  0.
          2    1    1    2  501    0 -0.35625025681E+02 -0.44462904615E+02 -0.29580611726E+03  0.30124301046E+03  0.00000000000E+00 0. -1.
          1    1    1    2  502    0 -0.44055369986E+02 -0.19730798016E+03  0.18659878556E+04  0.18769075608E+04  0.00000000000E+00 0. -1.
         22    1    3    3    0    0  0.27381661264E+02  0.15957869623E+03  0.55688989069E+03  0.57994953747E+03  0.00000000000E+00 0. -1.
         22    1    3    3    0    0  0.52298734403E+02  0.82192188550E+02  0.12438212590E+03  0.15799248945E+03  0.00000000000E+00 0. -1.
</event>
<event>
 7    1  0.6315518E-006  0.5073688E+02  0.7818608E-02  0.1527655E+00
          2   -1    0    0  502    0  0.00000000000E+00  0.00000000000E+00  0.12744058306E+04  0.12744058306E+04  0.00000000000E+00 0. -1.
          1   -1    0    0  501    0 -0.00000000000E+00 -0.00000000000E+00 -0.32475139779E+03  0.32475139779E+03  0.00000000000E+00 0. -1.
         25    2    1    2    0    0 -0.45676671134E+02  0.93011071300E+01  0.34774336573E+03  0.37245588828E+03  0.12500028570E+03 0.  0.
          2    1    1    2  501    0  0.47381810138E+02  0.18326791840E+02 -0.31011834837E+03  0.31425196456E+03  0.00000000000E+00 0. -1.
          1    1    1    2  502    0 -0.17051390041E+01 -0.27627898970E+02  0.91202941548E+03  0.91244937559E+03  0.00000000000E+00 0. -1.
         22    1    3    3    0    0 -0.46059738423E+02 -0.36206280251E+02  0.71257923876E+02  0.92250127091E+02  0.00000000000E+00 0.  1.
         22    1    3    3    0    0  0.38306728953E+00  0.45507387381E+02  0.27648544185E+03  0.28020576119E+03  0.00000000000E+00 0.  1.
</event>
<event>
 7    1  0.6315518E-006  0.1155953E+03  0.7818608E-02  0.1387099E+00
          2   -1    0    0  502    0  0.00000000000E+00  0.00000000000E+00  0.17352711186E+04  0.17352711186E+04  0.00000000000E+00 0. -1.
          1   -1    0    0  501    0 -0.00000000000E+00 -0.00000000000E+00 -0.54044501734E+02  0.54044501734E+02  0.00000000000E+00 0. -1.
         25    2    1    2    0    0  0.34346283112E+02 -0.91846880169E+02  0.19694560121E+03  0.25303682910E+03  0.12499820192E+03 0.  0.
          2    1    1    2  501    0 -0.60697476208E+02  0.11323321994E+03  0.13424477902E+03  0.18581605531E+03  0.00000000000E+00 0. -1.
          1    1    1    2  502    0  0.26351193096E+02 -0.21386339769E+02  0.13500362367E+04  0.13504627360E+04  0.00000000000E+00 0. -1.
         22    1    3    3    0    0  0.57700219456E+02 -0.32282455552E+02  0.26947153610E+02  0.71397628458E+02  0.00000000000E+00 0. -1.
         22    1    3    3    0    0 -0.23353936344E+02 -0.59564424617E+02  0.16999844760E+03  0.18163920064E+03  0.00000000000E+00 0. -1.
</event>
<event>
 7    1  0.6315518E-006  0.3690202E+02  0.7818608E-02  0.1553387E+00
          2   -1    0    0  502    0  0.00000000000E+00  0.00000000000E+00  0.10072273539E+03  0.10072273539E+03  0.00000000000E+00 0. -1.
          1   -1    0    0  501    0 -0.00000000000E+00 -0.00000000000E+00 -0.38502240604E+03  0.38502240604E+03  0.00000000000E+00 0. -1.
         25    2    1    2    0    0  0.11095335330E+01 -0.53540793364E+01 -0.15080071434E+02  0.12602555162E+03  0.12500053551E+03 0.  0.
          2    1    1    2  501    0 -0.73053541622E+00  0.37544148571E+02 -0.30745329589E+03  0.30973799562E+03  0.00000000000E+00 0. -1.
          1    1    1    2  502    0 -0.37899811678E+00 -0.32190069234E+02  0.38233696677E+02  0.49981594197E+02  0.00000000000E+00 0. -1.
         22    1    3    3    0    0  0.13172337547E+01 -0.57952500493E+02  0.21642460653E+02  0.61875871883E+02  0.00000000000E+00 0.  1.
         22    1    3    3    0    0 -0.20770022170E+00  0.52598421157E+02 -0.36722532087E+02  0.64149679738E+02  0.00000000000E+00 0.  1.
</event>
<event>
 7    1  0.6315518E-006  0.8057975E+02  0.7818608E-02  0.1483735E+00
          2   -1    0    0  502    0  0.00000000000E+00  0.00000000000E+00  0.29668562348E+04  0.29668562348E+04  0.00000000000E+00 0. -1.
          1   -1    0    0  501    0 -0.00000000000E+00 -0.00000000000E+00 -0.77093362522E+03  0.77093362522E+03  0.00000000000E+00 0. -1.
         25    2    1    2    0    0 -0.82198909330E+02 -0.48095075712E+02 -0.12795039016E+03  0.20264768514E+03  0.12499993980E+03 0.  0.
          2    1    1    2  501    0  0.22690192416E+02 -0.61730166159E+01 -0.60485255013E+03  0.60530947322E+03  0.00000000000E+00 0. -1.
          1    1    1    2  502    0  0.59508716914E+02  0.54268092327E+02  0.29287255499E+04  0.29298327017E+04  0.00000000000E+00 0. -1.
         22    1    3    3    0    0 -0.10370569117E+03 -0.70883289854E+02 -0.10635340597E+03  0.16459148861E+03  0.00000000000E+00 0.  1.
         22    1    3    3    0    0  0.21506781837E+02  0.22788214142E+02 -0.21596984185E+02  0.38056196534E+02  0.00000000000E+00 0.  1.
</event>
<event>
 7    1  0.6315518E-006  0.7925803E+02  0.7818608E-02  0.1347490E+00
          2   -1    0    0  502    0  0.00000000000E+00  0.00000000000E+00  0.14368642606E+03  0.14368642606E+03  0.00000000000E+00 0. -1.
          1   -1    0    0  501    0 -0.00000000000E+00 -0.00000000000E+00 -0.15956710084E+04  0.15956710084E+04  0.00000000000E+00 0. -1.
         25    2    1    2    0    0 -0.73955332598E+02 -0.12972589039E+02 -0.49783619997E+02  0.15408133372E+03  0.12499987718E+03 0.  0.
          2    1    1    2  501    0  0.58820755418E+02 -0.54140953787E+02 -0.14795780579E+04  0.14817362632E+04  0.00000000000E+00 0. -1.
          1    1    1    2  502    0  0.15134577181E+02  0.67113542826E+02  0.77377095535E+02  0.10353983760E+03  0.00000000000E+00 0. -1.
         22    1    3    3    0    0 -0.19100845150E+02  0.92143203425E+01 -0.83381774368E+02  0.86036424156E+02  0.00000000000E+00 0.  1.
         22    1    3    3    0    0 -0.54854487448E+02 -0.22186909381E+02  0.33598154371E+02  0.68044909569E+02  0.00000000000E+00 0.  1.
</event>
<event>
 7    1  0.6315518E-006  0.8897785E+02  0.7818608E-02  0.1313683E+00
          2   -1    0    0  502    0  0.00000000000E+00  0.00000000000E+00  0.18512439464E+04  0.18512439464E+04  0.00000000000E+00 0. -1.
          1   -1    0    0  501    0 -0.00000000000E+00 -0.00000000000E+00 -0.12980016296E+03  0.12980016296E+03  0.00000000000E+00 0. -1.
         25    2    1    2    0    0  0.15751816340E+02 -0.77270906083E+01  0.24570043697E+03  0.27622681537E+03  0.12499888461E+03 0.  0.
          2    1    1    2  501    0  0.79131847921E+02  0.23296926709E+02 -0.98024541392E+02  0.12811481907E+03  0.00000000000E+00 0. -1.
          1    1    1    2  502    0 -0.94883664261E+02 -0.15569836100E+02  0.15737678878E+04  0.15767024749E+04  0.00000000000E+00 0. -1.
         22    1    3    3    0    0  0.57751403254E+02  0.29395220524E+02  0.91247943175E+02  0.11191733870E+03  0.00000000000E+00 0. -1.
         22    1    3    3    0    0 -0.41999586914E+02 -0.37122311132E+02  0.15445249380E+03  0.16430947667E+03  0.00000000000E+00 0. -1.
</event>
<event>
 7    1  0.6315518E-006  0.1177632E+03  0.7818608E-02  0.1435988E+00
          2   -1    0    0  502    0  0.00000000000E+00  0.00000000000E+00  0.48630862854E+03  0.48630862854E+03  0.00000000000E+00 0. -1.
          1   -1    0    0  501    0 -0.00000000000E+00 -0.00000000000E+00 -0.87063737811E+03  0.87063737811E+03  0.00000000000E+00 0. -1.
         25    2    1    2    0    0 -0.60153618499E+02 -0.10218918981E+03 -0.12152968131E+03  0.21084116025E+03  0.12499377218E+03 0.  0.
          2    1    1    2  501    0  0.20944337200E+02 -0.89192348554E+01 -0.69640442743E+03  0.69677639495E+03  0.00000000000E+00 0. -1.
          1    1    1    2  502    0  0.39209281299E+02  0.11110842466E+03  0.43360535918E+03  0.44932845145E+03  0.00000000000E+00 0. -1.
         22    1    3    3    0    0 -0.25120247864E+02 -0.38548083516E+02 -0.12981115254E+03  0.13772406079E+03  0.00000000000E+00 0.  1.
         22    1    3    3    0    0 -0.35033370635E+02 -0.63641106291E+02  0.82814712306E+01  0.73117099462E+02  0.00000000000E+00 0.  1.
</event>
<event>
 7    1  0.6315518E-006  0.1246563E+03  0.7818608E-02  0.1298984E+00
          2   -1    0    0  502    0  0.00000000000E+00  0.00000000000E+00  0.62971150825E+03  0.62971150825E+03  0.00000000000E+00 0. -1.
          1   -1    0    0  501    0 -0.00000000000E+00 -0.00000000000E+00 -0.33902476653E+03  0.33902476653E+03  0.00000000000E+00 0. -1.
         25    2    1    2    0    0  0.57423109804E+02 -0.19924946325E+02  0.22908662456E+03  0.26795671707E+03  0.12500281455E+03 0.  0.
          2    1    1    2  501    0 -0.11878625827E+03  0.47644576897E+02 -0.30357374005E+03  0.32944983914E+03  0.00000000000E+00 0. -1.
          1    1    1    2  502    0  0.61363148465E+02 -0.27719630573E+02  0.36517385720E+03  0.37132971857E+03  0.00000000000E+00 0. -1.
         22    1    3    3    0    0  0.89820015892E+02  0.71305802627E+01  0.11357506692E+03  0.14497508840E+03  0.00000000000E+00 0.  1.
         22    1    3    3    0    0 -0.32396906088E+02 -0.27055526587E+02  0.11551155764E+03  0.12298162867E+03  0.00000000000E+00 0.  1.
</event>
<event>
 7    1  0.6315518E-006  0.6386086E+02  0.7818608E-02  0.1441420E+00
          2   -1    0    0  502    0  0.00000000000E+00  0.00000000000E+00  0.28704145079E+03  0.28704145079E+03  0.00000000000E+00 0. -1.
          1   -1    0    0  501    0 -0.00000000000E+00 -0.00000000000E+00 -0.10338664371E+04  0.10338664371E+04  0.00000000000E+00 0. -1.
         25    2    1    2    0    0  0.25205636243E+02  0.27172216394E+02 -0.20083169310E+03  0.23944117966E+03  0.12500022450E+03 0.  0.
          2    1    1    2  501    0  0.37853914463E+02 -0.13844432430E+02 -0.80934227035E+03  0.81034529537E+03  0.00000000000E+00 0. -1.
          1    1    1    2  502    0 -0.63059550706E+02 -0.13327783964E+02  0.26334897713E+03  0.27112141286E+03  0.00000000000E+00 0. -1.
         22    1    3    3    0    0 -0.73543449901E+01 -0.47685219517E+02 -0.64696908336E+02  0.80707227054E+02  0.00000000000E+00 0.  1.
         22    1    3    3    0    0  0.32559981233E+02  0.74857435911E+02 -0.13613478476E+03  0.15873395261E+03  0.00000000000E+00 0.  1.
</event>
<event>
 7    1  0.6315518E-006  0.3524036E+02  0.7818608E-02  0.1550783E+00
          2   -1    0    0  502    0  0.00000000000E+00  0.00000000000E+00  0.40986526688E+03  0.40986526688E+03  0.00000000000E+00 0. -1.
          1   -1    0    0  501    0 -0.00000000000E+00 -0.00000000000E+00 -0.96764920373E+02  0.96764920373E+02  0.00000000000E+00 0. -1.
         25    2    1    2    0    0  0.21691760639E+02 -0.50910518738E+02  0.28516150447E+03  0.31623487132E+03  0.12499998722E+03 0.  0.
          2    1    1    2  501    0 -0.30310510536E+02  0.17734669430E+02 -0.74506409220E+02  0.82367776245E+02  0.00000000000E+00 0. -1.
          1    1    1    2  502    0  0.86187498969E+01  0.33175849309E+02  0.10244525125E+03  0.10802753969E+03  0.00000000000E+00 0. -1.
         22    1    3    3    0    0 -0.49317331803E+02 -0.41153542714E+02  0.11787935914E+03  0.13424364643E+03  0.00000000000E+00 0. -1.
         22    1    3    3    0    0  0.71009092442E+02 -0.97569760244E+01  0.16728214533E+03  0.18199122489E+03  0.00000000000E+00 0. -1.
</event>
<event>
 7    1  0.6315518E-006  0.1077877E+03  0.7818608E-02  0.1290363E+00
          2   -1    0    0  502    0  0.00000000000E+00  0.00000000000E+00  0.17784150681E+04  0.17784150681E+04  0.00000000000E+00 0. -1.
          1   -1    0    0  501    0 -0.00000000000E+00 -0.00000000000E+00 -0.63972633544E+03  0.63972633544E+03  0.00000000000E+00 0. -1.
         25    2    1    2    0    0 -0.44357044345E+02  0.12791077076E+03  0.15820778750E+03  0.24286517780E+03  0.12500031161E+03 0.  0.
          2    1    1    2  501    0 -0.35832179990E+02 -0.10168604755E+03 -0.59139269868E+03  0.60114001816E+03  0.00000000000E+00 0. -1.
          1    1    1    2  502    0  0.80189224334E+02 -0.26224723211E+02  0.15718736438E+04  0.15741362076E+04  0.00000000000E+00 0. -1.
         22    1    3    3    0    0 -0.48295252338E+02  0.87810912050E+01  0.58686433905E+01  0.49436625455E+02  0.00000000000E+00 0. -1.
         22    1    3    3    0    0  0.39382079929E+01  0.11912967956E+03  0.15233914411E+03  0.19342855235E+03  0.00000000000E+00 0. -1.
</event>
<event>
 7    1  0.6315518E-006  0.2297597E+02  0.7818608E-02  0.1695904E+00
          2   -1    0    0  502    0  0.00000000000E+00  0.00000000000E+00  0.18751423411E+03  0.18751423411E+03  0.00000000000E+00 0. -1.
          1   -1    0    0  501    0 -0.00000000000E+00 -0.00000000000E+00 -0.14486024113E+03  0.14486024113E+03  0.00000000000E+00 0. -1.
         25    2    1    2    0    0 -0.22409002634E+02 -0.38668484458E+02  0.12985257400E+03  0.18569814973E+03  0.12499878699E+03 0.  0.
          2    1    1    2  501    0  0.80634847101E+01  0.21348994747E+02 -0.11135646134E+03  0.11367084430E+03  0.00000000000E+00 0. -1.
          1    1    1    2  502    0  0.14345517923E+02  0.17319489711E+02  0.24157880320E+02  0.33005481210E+02  0.00000000000E+00 0. -1.
         22    1    3    3    0    0  0.47148718220E+02 -0.16344444186E+02  0.19971747951E+02  0.53749541410E+02  0.00000000000E+00 0.  1.
         22    1    3    3    0    0 -0.69557720854E+02 -0.22324040272E+02  0.10988082605E+03  0.13194860832E+03  0.00000000000E+00 0.  1.
</event>
<event>
 7    1  0.6315518E-006  0.7410254E+02  0.7818608E-02  0.1479156E+00
          2   -1    0    0  502    0  0.00000000000E+00  0.00000000000E+00  0.50718047388E+02  0.50718047388E+02  0.00000000000E+00 0. -1.
          1   -1    0    0  501    0 -0.00000000000E+00 -0.00000000000E+00 -0.82945199921E+03  0.82945199921E+03  0.00000000000E+00 0. -1.
         25    2    1    2    0    0  0.31650103364E+02  0.39283612578E+02 -0.57930097199E+03  0.59477616826E+03  0.12499657167E+03 0.  0.
          2    1    1    2  501    0  0.73074365777E+01  0.25378089808E+02 -0.20777241539E+03  0.20944408005E+03  0.00000000000E+00 0. -1.
          1    1    1    2  502    0 -0.38957539942E+02 -0.64661702386E+02  0.83394355569E+01  0.75949798282E+02  0.00000000000E+00 0. -1.
         22    1    3    3    0    0  0.79209564692E+02  0.12488523580E+02 -0.34009679114E+03  0.34942230281E+03  0.00000000000E+00 0. -1.
         22    1    3    3    0    0 -0.47559461329E+02  0.26795088998E+02 -0.23920418085E+03  0.24535386545E+03  0.00000000000E+00 0. -1.
</event>
<event>
 7    1  0.6315518E-006  0.1452172E+03  0.7818608E-02  0.1329915E+00
          2   -1    0    0  502    0  0.00000000000E+00  0.00000000000E+00  0.22546705679E+03  0.22546705679E+03  0.00000000000E+00 0. -1.
          1   -1    0    0  501    0 -0.00000000000E+00 -0.00000000000E+00 -0.14315577874E+04  0.14315577874E+04  0.00000000000E+00 0. -1.
         25    2    1    2    0    0 -0.48664115418E+02  0.17132613477E+03 -0.34292379458E+03  0.40613359157E+03  0.12500769867E+03 0.  0.
          2    1    1    2  501    0 -0.12372880820E+02 -0.41951664289E+02 -0.10301127636E+04  0.10310408993E+04  0.00000000000E+00 0. -1.
          1    1    1    2  502    0  0.61036996238E+02 -0.12937447048E+03  0.16694582755E+03  0.21985035333E+03  0.00000000000E+00 0. -1.
         22    1    3    3    0    0 -0.58639306088E+02  0.10061415581E+03 -0.30234551348E+03  0.32399781803E+03  0.00000000000E+00 0. -1.
         22    1    3    3    0    0  0.99751906702E+01  0.70711978959E+02 -0.40578281097E+02  0.82135773534E+02  0.00000000000E+00 0. -1.
</event>
<event>
 7    1  0.6315518E-006  0.7556837E+02  0.7818608E-02  0.1367025E+00
          2   -1    0    0  502    0  0.00000000000E+00  0.00000000000E+00  0.14333619439E+04  0.14333619439E+04  0.00000000000E+00 0. -1.
          1   -1    0    0  501    0 -0.00000000000E+00 -0.00000000000E+00 -0.24787735726E+03  0.24787735726E+03  0.00000000000E+00 0. -1.
         25    2    1    2    0    0 -0.50470391120E+02  0.95605349661E+02  0.28663671446E+03  0.33086531109E+03  0.12499441885E+03 0.  0.
          2    1    1    2  501    0  0.65876360447E+02 -0.36384592897E+02 -0.21863110183E+03  0.23122087309E+03  0.00000000000E+00 0. -1.
          1    1    1    2  502    0 -0.15405969327E+02 -0.59220756764E+02  0.11174789740E+04  0.11191531169E+04  0.00000000000E+00 0. -1.
         22    1    3    3    0    0  0.15760419288E+02  0.67358687870E+02  0.22720483563E+03  0.23750288626E+03  0.00000000000E+00 0. -1.
         22    1    3    3    0    0 -0.66230810408E+02  0.28246661791E+02  0.59431878829E+02  0.93362424833E+02  0.00000000000E+00 0. -1.
</event>
<event>
 7    1  0.6315518E-006  0.5015789E+02  0.7818608E-02  0.1565541E+00
          2   -1    0    0  502    0  0.00000000000E+00  0.00000000000E+00  0.29787707549E+03  0.29787707549E+03  0.00000000000E+00 0. -1.
          1   -1    0    0  501    0 -0.00000000000E+00 -0.00000000000E+00 -0.10802356805E+04  0.10802356805E+04  0.00000000000E+00 0. -1.
         25    2    1    2    0    0 -0.63362595131E+02  0.24706476305E+02  0.30151759383E+02  0.14546353670E+03  0.12500113393E+03 0.  0.
          2    1    1    2  501    0  0.14778116858E+02 -0.16198964574E+02 -0.10195650185E+04  0.10198007777E+04  0.00000000000E+00 0. -1.
          1    1    1    2  502    0  0.48584478273E+02 -0.85075117316E+01  0.20705465414E+03  0.21284844158E+03  0.00000000000E+00 0. -1.
         22    1    3    3    0    0 -0.18240234754E+02 -0.23227725993E+02  0.64696986393E+02  0.71119149792E+02  0.00000000000E+00 0.  1.
         22    1    3    3    0    0 -0.45122360378E+02  0.47934202299E+02 -0.34545227011E+02  0.74344386912E+02  0.00000000000E+00 0.  1.
</event>
<event>
 7    1  0.6315518E-006  0.6839698E+02  0.7818608E-02  0.1436657E+00
          2   -1    0    0  502    0  0.00000000000E+00  0.00000000000E+00  0.22091404121E+04  0.22091404121E+04  0.00000000000E+00 0. -1.
          1   -1    0    0  501    0 -0.00000000000E+00 -0.00000000000E+00 -0.56464727013E+03  0.56464727013E+03  0.00000000000E+00 0. -1.
         25    2    1    2    0    0 -0.42240745266E+02 -0.89080708275E+02  0.14086726812E+04  0.14176404431E+04  0.12500420011E+03 0.  0.
          2    1    1    2  501    0  0.98057951599E+01  0.37745700753E+02 -0.55832412197E+03  0.55968447961E+03  0.00000000000E+00 0. -1.
          1    1    1    2  502    0  0.32434950106E+02  0.51335007522E+02  0.79414458277E+03  0.79646275953E+03  0.00000000000E+00 0. -1.
         22    1    3    3    0    0 -0.81406216835E+01  0.41408588053E+01  0.86078695617E+03  0.86083540840E+03  0.00000000000E+00 0. -1.
         22    1    3    3    0    0 -0.34100123582E+02 -0.93221567080E+02  0.54788572499E+03  0.55680503468E+03  0.00000000000E+00 0. -1.
</event>
<event>
 7    1  0.6315518E-006  0.1045381E+03  0.7818608E-02  0.1342159E+00
          2   -1    0    0  502    0  0.00000000000E+00  0.00000000000E+00  0.18507192773E+04  0.18507192773E+04  0.00000000000E+00 0. -1.
          1   -1    0    0  501    0 -0.00000000000E+00 -0.00000000000E+00 -0.12800084485E+03  0.12800084485E+03  0.00000000000E+00 0. -1.
         25    2    1    2    0    0 -0.13595599506E+03  0.54198820130E+02  0.48325070253E+03  0.52017173686E+03  0.12500339849E+03 0.  0.
          2    1    1    2  501    0  0.81913808995E+02 -0.62040792122E+02 -0.84754869548E+02  0.13320029994E+03  0.00000000000E+00 0. -1.
          1    1    1    2  502    0  0.54042186065E+02  0.78419719921E+01  0.13242225995E+04  0.13253480854E+04  0.00000000000E+00 0. -1.
         22    1    3    3    0    0 -0.54464984611E+02  0.14500077854E+02  0.37395073571E+03  0.37817435072E+03  0.00000000000E+00 0.  1.
         22    1    3    3    0    0 -0.81491010449E+02  0.39698742276E+02  0.10929996682E+03  0.14199738613E+03  0.00000000000E+00 0.  1.
</event>
<event>
 7    1  0.6315518E-006  0.4059714E+02  0.7818608E-02  0.1592795E+00
          2   -1    0    0  502    0  0.00000000000E+00  0.00000000000E+00  0.17325364330E+03  0.17325364330E+03  0.00000000000E+00 0. -1.
          1   -1    0    0  501    0 -0.00000000000E+00 -0.00000000000E+00 -0.75948560366E+02  0.75948560366E+02  0.00000000000E+00 0. -1.
         25    2    1    2    0    0  0.26005949568E+02 -0.23582889211E+02  0.29423314670E+02  0.13312343857E+03  0.12499462538E+03 0.  0.
          2    1    1    2  501    0 -0.11780216866E+02  0.41516535253E+02 -0.13339203238E+01  0.43176099317E+02  0.00000000000E+00 0. -1.
          1    1    1    2  502    0 -0.14225732702E+02 -0.17933646042E+02  0.69215688588E+02  0.72902665781E+02  0.00000000000E+00 0. -1.
         22    1    3    3    0    0  0.24365286234E+02  0.94756895560E+01 -0.44791208562E+02  0.51862397074E+02  0.00000000000E+00 0. -1.
         22    1    3    3    0    0  0.16406633342E+01 -0.33058578767E+02  0.74214523232E+02  0.81261041495E+02  0.00000000000E+00 0. -1.
</event>
<event>
 7    1  0.6315518E-006  0.1019586E+03  0.7818608E-02  0.1319639E+00
          2   -1    0    0  502    0  0.00000000000E+00  0.00000000000E+00  0.57169247363E+03  0.57169247363E+03  0.00000000000E+00 0. -1.
          1   -1    0    0  501    0 -0.00000000000E+00 -0.00000000000E+00 -0.76256730448E+03  0.76256730448E+03  0.00000000000E+00 0. -1.
         25    2    1    2    0    0  0.54191513883E+02  0.12452795147E+03  0.29862589599E+03  0.35106482016E+03  0.12500060529E+03 0.  0.
          2    1    1    2  501    0  0.99670369407E+01 -0.10128530632E+03 -0.72802351690E+03  0.73510291542E+03  0.00000000000E+00 0. -1.
          1    1    1    2  502    0 -0.64158550823E+02 -0.23242645142E+02  0.23852279005E+03  0.24809204254E+03  0.00000000000E+00 0. -1.
         22    1    3    3    0    0  0.73717344225E+01 -0.53147821411E+01 -0.96768684192E+01  0.13275208473E+02  0.00000000000E+00 0.  1.
         22    1    3    3    0    0  0.46819779460E+02  0.12984273361E+03  0.30830276441E+03  0.33778961169E+03  0.00000000000E+00 0.  1.
</event>
<event>
 7    1  0.6315518E-006  0.8739994E+02  0.7818608E-02  0.1365485E+00
          2   -1    0    0  502    0  0.00000000000E+00  0.00000000000E+00  0.15346352309E+04  0.15346352309E+04  0.00000000000E+00 0. -1.
          1   -1    0    0  501    0 -0.00000000000E+00 -0.00000000000E+00 -0.46550013089E+03  0.46550013089E+03  0.00000000000E+00 0. -1.
         25    2    1    2    0    0  0.11854060696E+03 -0.67810518086E+02  0.14172557739E+02  0.18565950291E+03  0.12497378832E+03 0.  0.
          2    1    1    2  501    0 -0.36803410413E+02  0.38954487986E+02 -0.37654847560E+03  0.38034286851E+03  0.00000000000E+00 0. -1.
          1    1    1    2  502    0 -0.81737196545E+02  0.28856030100E+02  0.14315110179E+04  0.14341329904E+04  0.00000000000E+00 0. -1.
         22    1    3    3    0    0  0.49242087513E+02  0.29935464909E+02  0.29713844305E+02  0.64836932264E+02  0.00000000000E+00 0.  1.
         22    1    3    3    0    0  0.69298519445E+02 -0.97745982995E+02 -0.15541286567E+02  0.12082257064E+03  0.00000000000E+00 0.  1.
</event>
<event>
 7    1  0.6315518E-006  0.1125329E+03  0.7818608E-02  0.1420554E+00
          2   -1    0    0  502    0  0.00000000000E+00  0.00000000000E+00  0.85616836152E+03  0.85616836152E+03  0.00000000000E+00 0. -1.
          1   -1    0    0  501    0 -0.00000000000E+00 -0.00000000000E+00 -0.10638970654E+03  0.10638970654E+03  0.00000000000E+00 0. -1.
         25    2    1    2    0    0  0.41856054137E+02  0.10380625286E+03  0.32160359274E+03  0.36274251152E+03  0.12500236558E+03 0.  0.
          2    1    1    2  501    0 -0.16268700909E+02 -0.11173339872E+03 -0.48141621488E+02  0.12274623717E+03  0.00000000000E+00 0. -1.
          1    1    1    2  502    0 -0.25587353228E+02  0.79271458589E+01  0.47631668373E+03  0.47706931937E+03  0.00000000000E+00 0. -1.
         22    1    3    3    0    0 -0.22851391272E+02  0.10022655313E+03  0.18889259486E+03  0.21505338971E+03  0.00000000000E+00 0.  1.
         22    1    3    3    0    0  0.64707445409E+02  0.35796997306E+01  0.13271099788E+03  0.14768912181E+03  0.00000000000E+00 0.  1.
</event>
<event>
 7    1  0.6315518E-006  0.1224432E+03  0.7818608E-02  0.1377255E+00
          2   -1    0    0  502    0  0.00000000000E+00  0.00000000000E+00  0.86017456271E+02  0.86017456271E+02  0.00000000000E+00 0. -1.
          1   -1    0    0  501    0 -0.00000000000E+00 -0.00000000000E+00 -0.16118176337E+04  0.16118176337E+04  0.00000000000E+00 0. -1.
         25    2    1    2    0    0 -0.73266262979E+01  0.12838988265E+03 -0.99257244236E+03  0.10086445354E+04  0.12500441603E+03 0.  0.
          2    1    1    2  501    0  0.33556427506E+02 -0.88691198026E+01 -0.56233992523E+03  0.56341005193E+03  0.00000000000E+00 0. -1.
          1    1    1    2  502    0 -0.26229801208E+02 -0.11952076285E+03  0.29112190177E+02  0.12578050263E+03  0.00000000000E+00 0. -1.
         22    1    3    3    0    0  0.16566281605E+01  0.55554167538E+02 -0.11212655934E+03  0.12514541644E+03  0.00000000000E+00 0. -1.
         22    1    3    3    0    0 -0.89832544584E+01  0.72835715115E+02 -0.88044588302E+03  0.88349911895E+03  0.00000000000E+00 0. -1.
</event>
<event>
 7    1  0.6315518E-006  0.8671071E+02  0.7818608E-02  0.1372064E+00
          2   -1    0    0  502    0  0.00000000000E+00  0.00000000000E+00  0.19473169607E+04  0.19473169607E+04  0.00000000000E+00 0. -1.
          1   -1    0    0  501    0 -0.00000000000E+00 -0.00000000000E+00 -0.83461470666E+02  0.83461470666E+02  0.00000000000E+00 0. -1.
         25    2    1    2    0    0  0.51590901291E+02 -0.21197487520E+02  0.51822567417E+02  0.14636314360E+03  0.12500254692E+03 0.  0.
          2    1    1    2  501    0  0.34410260929E+02  0.37843336235E+02 -0.16531547512E+02  0.53753848400E+02  0.00000000000E+00 0. -1.
          1    1    1    2  502    0 -0.86001162220E+02 -0.16645848715E+02  0.18285644701E+04  0.18306614393E+04  0.00000000000E+00 0. -1.
         22    1    3    3    0    0  0.78601851256E+02 -0.52235754464E+02  0.26406967394E+02  0.98000780569E+02  0.00000000000E+00 0.  1.
         22    1    3    3    0    0 -0.27010949965E+02  0.31038266944E+02  0.25415600023E+02  0.48362363026E+02  0.00000000000E+00 0.  1.
</event>
<event>
 7    1  0.6315518E-006  0.7370430E+02  0.7818608E-02  0.1359582E+00
          2   -1    0    0  502    0  0.00000000000E+00  0.00000000000E+00  0.32435020792E+03  0.32435020792E+03  0.00000000000E+00 0. -1.
          1   -1    0    0  501    0 -0.00000000000E+00 -0.00000000000E+00 -0.13064907494E+03  0.13064907494E+03  0.00000000000E+00 0. -1.
         25    2    1    2    0    0 -0.47367639307E+02 -0.43181685864E+02 -0.30143857366E+02  0.14367559834E+03  0.12500269666E+03 0.  0.
          2    1    1    2  501    0  0.82352270236E+02 -0.21690491555E+02  0.10742998652E+02  0.85835807545E+02  0.00000000000E+00 0. -1.
          1    1    1    2  502    0 -0.34984630929E+02  0.64872177419E+02  0.21310199169E+03  0.22548787698E+03  0.00000000000E+00 0. -1.
         22    1    3    3    0    0 -0.86122324199E+02 -0.52152452285E+02 -0.22585995368E+02  0.10318459280E+03  0.00000000000E+00 0.  1.
         22    1    3    3    0    0  0.38754684892E+02  0.89707664207E+01 -0.75578619982E+01  0.40491005535E+02  0.00000000000E+00 0.  1.
</event>
<event>
 7    1  0.6315518E-006  0.8899631E+02  0.7818608E-02  0.1395929E+00
          2   -1    0    0  502    0  0.00000000000E+00  0.00000000000E+00  0.21433474264E+04  0.21433474264E+04  0.00000000000E+00 0. -1.
          1   -1    0    0  501    0 -0.00000000000E+00 -0.00000000000E+00 -0.49741784865E+02  0.49741784865E+02  0.00000000000E+00 0. -1.
         25    2    1    2    0    0 -0.15650895415E+00  0.12796817706E+03  0.87750529983E+03  0.89555260497E+03  0.12499215259E+03 0.  0.
          2    1    1    2  501    0  0.15830431203E+01 -0.86925113783E+02  0.64382499761E+01  0.87177591699E+02  0.00000000000E+00 0. -1.
          1    1    1    2  502    0 -0.14265341661E+01 -0.41043063274E+02  0.12096620918E+04  0.12103590146E+04  0.00000000000E+00 0. -1.
         22    1    3    3    0    0 -0.61655272484E+02  0.55918974163E+02  0.45595313081E+03  0.46348846997E+03  0.00000000000E+00 0.  1.
         22    1    3    3    0    0  0.61498763530E+02  0.72049202893E+02  0.42155216901E+03  0.43206413500E+03  0.00000000000E+00 0.  1.
</event>
<event>
 7    1  0.6315518E-006  0.9200493E+02  0.7818608E-02  0.1321551E+00
          2   -1    0    0  502    0  0.00000000000E+00  0.00000000000E+00  0.32505056712E+02  0.32505056712E+02  0.00000000000E+00 0. -1.
          1   -1    0    0  501    0 -0.00000000000E+00 -0.00000000000E+00 -0.13239507597E+04  0.13239507597E+04  0.00000000000E+00 0. -1.
         25    2    1    2    0    0  0.10216112625E+03  0.10655934580E+03 -0.57843080991E+03  0.60991759346E+03  0.12500191622E+03 0.  0.
          2    1    1    2  501    0 -0.29407547040E+02 -0.68277547144E+02 -0.61106820547E+03  0.61557369908E+03  0.00000000000E+00 0. -1.
          1    1    1    2  502    0 -0.72753579208E+02 -0.38281798658E+02 -0.10194668755E+03  0.13096452382E+03  0.00000000000E+00 0. -1.
         22    1    3    3    0    0  0.69275331033E+02 -0.73991782150E+01 -0.15032011815E+03  0.16568028624E+03  0.00000000000E+00 0. -1.
         22    1    3    3    0    0  0.32885795216E+02  0.11395852402E+03 -0.42811069176E+03  0.44423730722E+03  0.00000000000E+00 0. -1.
</event>
<event>
 7    1  0.6315518E-006  0.1451864E+03  0.7818608E-02  0.1234912E+00
          2   -1    0    0  502    0  0.00000000000E+00  0.00000000000E+00  0.17475642282E+04  0.17475642282E+04  0.00000000000E+00 0. -1.
          1   -1    0    0  501    0 -0.00000000000E+00 -0.00000000000E+00 -0.75431495906E+03  0.75431495906E+03  0.00000000000E+00 0. -1.
         25    2    1    2    0    0 -0.96449400386E+02  0.15608985318E+03  0.17264712054E+03  0.28124479257E+03  0.12500030405E+03 0.  0.
          2    1    1    2  501    0  0.10716064624E+03 -0.11665358634E+02 -0.69238819028E+03  0.70072882824E+03  0.00000000000E+00 0. -1.
          1    1    1    2  502    0 -0.10711245852E+02 -0.14442449455E+03  0.15129903389E+04  0.15199055665E+04  0.00000000000E+00 0. -1.
         22    1    3    3    0    0 -0.71604733242E+02  0.15159381408E+03  0.81023657957E+02  0.18620621751E+03  0.00000000000E+00 0. -1.
         22    1    3    3    0    0 -0.24844667143E+02  0.44960391028E+01  0.91623462587E+02  0.95038575060E+02  0.00000000000E+00 0. -1.
</event>
<event>
 7    1  0.6315518E-006  0.4813366E+02  0.7818608E-02  0.1479023E+00
          2   -1    0    0  502    0  0.00000000000E+00  0.00000000000E+00  0.21287878452E+03  0.21287878452E+03  0.00000000000E+00 0. -1.
          1   -1    0    0  501    0 -0.00000000000E+00 -0.00000000000E+00 -0.49038229622E+03  0.49038229622E+03  0.00000000000E+00 0. -1.
         25    2    1    2    0    0  0.83599690960E+02  0.18614925184E+02 -0.15307062299E+03  0.21538391815E+03  0.12499677119E+03 0.  0.
          2    1    1    2  501    0 -0.45975417123E+02 -0.31048235583E+01 -0.30210746423E+03  0.30560153608E+03  0.00000000000E+00 0. -1.
          1    1    1    2  502    0 -0.37624273837E+02 -0.15510101625E+02  0.17767457552E+03  0.18227562652E+03  0.00000000000E+00 0. -1.
         22    1    3    3    0    0  0.11225231080E+03 -0.76977237177E+01 -0.11722631946E+03  0.16248644930E+03  0.00000000000E+00 0.  1.
         22    1    3    3    0    0 -0.28652619838E+02  0.26312648901E+02 -0.35844303529E+02  0.52897468855E+02  0.00000000000E+00 0.  1.
</event>
<event>
 7    1  0.6315518E-006  0.1551427E+03  0.7818608E-02  0.1248507E+00
          2   -1    0    0  502    0  0.00000000000E+00  0.00000000000E+00  0.10148832831E+04  0.10148832831E+04  0.00000000000E+00 0. -1.
          1   -1    0    0  501    0 -0.00000000000E+00 -0.00000000000E+00 -0.12054894696E+04  0.12054894696E+04  0.00000000000E+00 0. -1.
         25    2    1    2    0    0 -0.73426536168E+02  0.92756758205E+01 -0.92326115813E+03  0.93461963222E+03  0.12500078578E+03 0.  0.
          2    1    1    2  501    0 -0.68133427109E+02  0.55539920721E+02 -0.26336025431E+03  0.27764270246E+03  0.00000000000E+00 0. -1.
          1    1    1    2  502    0  0.14155996328E+03 -0.64815596542E+02  0.99601522593E+03  0.10081104181E+04  0.00000000000E+00 0. -1.
         22    1    3    3    0    0  0.22645572041E+02 -0.19554243416E+02 -0.44228386189E+03  0.44329471557E+03  0.00000000000E+00 0. -1.
         22    1    3    3    0    0 -0.96072108209E+02  0.28829919237E+02 -0.48097729624E+03  0.49132491665E+03  0.00000000000E+00 0. -1.
</event>
<event>
 7    1  0.6315518E-006  0.4592851E+02  0.7818608E-02  0.1484290E+00
          2   -1    0    0  502    0  0.00000000000E+00  0.00000000000E+00  0.51083074564E+02  0.51083074564E+02  0.00000000000E+00 0. -1.
          1   -1    0    0  501    0 -0.00000000000E+00 -0.00000000000E+00 -0.68207613971E+03  0.68207613971E+03  0.00000000000E+00 0. -1.
         25    2    1    2    0    0 -0.42126902966E+02  0.67453143252E+02 -0.12785746630E+03  0.19567769927E+03  0.12497050778E+03 0.  0.
          2    1    1    2  501    0  0.81561849119E+01 -0.44326467816E+02 -0.49312997846E+03  0.49518535394E+03  0.00000000000E+00 0. -1.
          1    1    1    2  502    0  0.33970718055E+02 -0.23126675436E+02 -0.10005620396E+02  0.42296161071E+02  0.00000000000E+00 0. -1.
         22    1    3    3    0    0 -0.87410864566E+01 -0.32894824584E+02 -0.63032381371E+02  0.71634887995E+02  0.00000000000E+00 0.  1.
         22    1    3    3    0    0 -0.33385816510E+02  0.10034796784E+03 -0.64825084927E+02  0.12404281127E+03  0.00000000000E+00 0.  1.
</event>
<event>
 7    1  0.6315518E-006  0.7620160E+02  0.7818608E-02  0.1396488E+00
          2   -1    0    0  502    0  0.00000000000E+00  0.00000000000E+00  0.12245900061E+04  0.12245900061E+04  0.00000000000E+00 0. -1.
          1   -1    0    0  501    0 -0.00000000000E+00 -0.00000000000E+00 -0.26440652856E+03  0.26440652856E+03  0.00000000000E+00 0. -1.
         25    2    1    2    0    0 -0.52437395553E+02  0.52531654417E+02  0.10706949634E+03  0.18055311508E+03  0.12500518049E+03 0.  0.
          2    1    1    2  501    0 -0.23578442482E+02 -0.41523140980E+02 -0.22377792675E+03  0.22881580952E+03  0.00000000000E+00 0. -1.
          1    1    1    2  502    0  0.76015838035E+02 -0.11008513437E+02  0.10768919079E+04  0.10796276100E+04  0.00000000000E+00 0. -1.
         22    1    3    3    0    0 -0.50012853142E+02  0.89489342087E+02  0.99271244783E+02  0.14270391679E+03  0.00000000000E+00 0. -1.
         22    1    3    3    0    0 -0.24245424105E+01 -0.36957687670E+02  0.77982515582E+01  0.37849198290E+02  0.00000000000E+00 0. -1.
</event>
<event>
 7    1  0.6315518E-006  0.6873365E+02  0.7818608E-02  0.1520657E+00
          2   -1    0    0  502    0  0.00000000000E+00  0.00000000000E+00  0.18329482907E+04  0.18329482907E+04  0.00000000000E+00 0. -1.
          1   -1    0    0  501    0 -0.00000000000E+00 -0.00000000000E+00 -0.15486523421E+04  0.15486523421E+04  0.00000000000E+00 0. -1.
         25    2    1    2    0    0 -0.23659093033E+02 -0.85932218264E+02  0.67433076961E+03  0.69158662013E+03  0.12500386986E+03 0.  0.
          2    1    1    2  501    0  0.12742239918E+02  0.67519260251E+02 -0.15391582691E+04  0.15406912061E+04  0.00000000000E+00 0. -1.
          1    1    1    2  502    0  0.10916853116E+02  0.18412958013E+02  0.11491234481E+04  0.11493228065E+04  0.00000000000E+00 0. -1.
         22    1    3    3    0    0  0.28269833821E+02 -0.24693788730E+02  0.52192393481E+02  0.64288510975E+02  0.00000000000E+00 0.  1.
         22    1    3    3    0    0 -0.51928926855E+02 -0.61238429534E+02  0.62213837613E+03  0.62729810915E+03  0.00000000000E+00 0.  1.
</event>
<event>
 7    1  0.6315518E-006  0.5834861E+02  0.7818608E-02  0.1533765E+00
          2   -1    0    0  502    0  0.00000000000E+00  0.00000000000E+00  0.12602213685E+04  0.12602213685E+04  0.00000000000E+00 0. -1.
          1   -1    0    0  501    0 -0.00000000000E+00 -0.00000000000E+00 -0.19734020197E+02  0.19734020197E+02  0.00000000000E+00 0. -1.
         25    2    1    2    0    0 -0.20399196296E+02  0.65055505138E+02  0.89030696857E+03  0.90162062434E+03  0.12499962398E+03 0.  0.
          2    1    1    2  501    0 -0.11773874244E+02 -0.19896895335E+02 -0.67083643006E+00  0.23129214863E+02  0.00000000000E+00 0. -1.
          1    1    1    2  502    0  0.32173070540E+02 -0.45158609803E+02  0.35085121616E+03  0.35520554949E+03  0.00000000000E+00 0. -1.
         22    1    3    3    0    0 -0.44457235399E+02  0.73779837761E+02  0.84661439485E+03  0.85098521950E+03  0.00000000000E+00 0.  1.
         22    1    3    3    0    0  0.24058039104E+02 -0.87243326233E+01  0.43692573717E+02  0.50635404839E+02  0.00000000000E+00 0.  1.
</event>
<event>
 7    1  0.6315518E-006  0.1200024E+03  0.7818608E-02  0.1317374E+00
          2   -1    0    0  502    0  0.00000000000E+00  0.00000000000E+00  0.24362198638E+04  0.24362198638E+04  0.00000000000E+00 0. -1.
          1   -1    0    0  501    0 -0.00000000000E+00 -0.00000000000E+00 -0.77589262478E+03  0.77589262478E+03  0.00000000000E+00 0. -1.
         25    2    1    2    0    0 -0.15675909531E+03 -0.17733679889E+02  0.16239076716E+03  0.25861840106E+03  0.12499927498E+03 0.  0.
          2    1    1    2  501    0  0.49099822584E+02 -0.33012332060E+02 -0.72498167530E+03  0.72739194123E+03  0.00000000000E+00 0. -1.
          1    1    1    2  502    0  0.10765927272E+03  0.50746011950E+02  0.22229181472E+04  0.22261021463E+04  0.00000000000E+00 0. -1.
         22    1    3    3    0    0 -0.37783139057E+01  0.28098017527E+02  0.66626452211E+02  0.72407585094E+02  0.00000000000E+00 0. -1.
         22    1    3    3    0    0 -0.15298078140E+03 -0.45831697416E+02  0.95764314946E+02  0.18621081597E+03  0.00000000000E+00 0. -1.
</event>
<event>
 7    1  0.6315518E-006  0.4859532E+02  0.7818608E-02  0.1463067E+00
          2   -1    0    0  502    0  0.00000000000E+00  0.00000000000E+00  0.21389032395E+03  0.21389032395E+03  0.00000000000E+00 0. -1.
          1   -1    0    0  501    0 -0.00000000000E+00 -0.00000000000E+00 -0.15654092351E+03  0.15654092351E+03  0.00000000000E+00 0. -1.
         25    2    1    2    0    0 -0.72064958807E+02  0.47481019040E+02  0.11332884694E+02  0.15232027406E+03  0.12500090462E+03 0.  0.
          2    1    1    2  501    0  0.26854168704E+02 -0.36335723300E+02 -0.75495277200E+02  0.87982771291E+02  0.00000000000E+00 0. -1.
          1    1    1    2  502    0  0.45210790103E+02 -0.11145295740E+02  0.12151179295E+03  0.13012820211E+03  0.00000000000E+00 0. -1.
         22    1    3    3    0    0 -0.25689681360E+02 -0.41623590423E+02  0.16808987191E+02  0.51720644413E+02  0.00000000000E+00 0.  1.
         22    1    3    3    0    0 -0.46375277447E+02  0.89104609463E+02 -0.54761024969E+01  0.10059962964E+03  0.00000000000E+00 0.  1.
</event>
<event>
 7    1  0.6315518E-006  0.1078685E+03  0.7818608E-02  0.1270300E+00
          2   -1    0    0  502    0  0.00000000000E+00  0.00000000000E+00  0.28952211532E+04  0.28952211532E+04  0.00000000000E+00 0. -1.
          1   -1    0    0  501    0 -0.00000000000E+00 -0.00000000000E+00 -0.22615712540E+02  0.22615712540E+02  0.00000000000E+00 0. -1.
         25    2    1    2    0    0  0.34942776719E+01  0.57707760752E+02  0.68624258167E+03  0.69992590979E+03  0.12500001070E+03 0.  0.
          2    1    1    2  501    0  0.10182808632E+03 -0.81006056799E+02  0.28284741675E+03  0.31134161553E+03  0.00000000000E+00 0. -1.
          1    1    1    2  502    0 -0.10532236399E+03  0.23298296046E+02  0.19035154422E+04  0.19065693404E+04  0.00000000000E+00 0. -1.
         22    1    3    3    0    0  0.57635135143E+02 -0.13178931379E+00  0.32827009833E+03  0.33329128946E+03  0.00000000000E+00 0.  1.
         22    1    3    3    0    0 -0.54140857471E+02  0.57839550066E+02  0.35797248334E+03  0.36663462033E+03  0.00000000000E+00 0.  1.
</event>
<event>
 7    1  0.6315518E-006  0.8473593E+02  0.7818608E-02  0.1371891E+00
          2   -1    0    0  502    0  0.00000000000E+00  0.00000000000E+00  0.21415561575E+04  0.21415561575E+04  0.00000000000E+00 0. -1.
          1   -1    0    0  501    0 -0.00000000000E+00 -0.00000000000E+00 -0.54690313534E+03  0.54690313534E+03  0.00000000000E+00 0. -1.
         25    2    1    2    0    0 -0.37666296624E+02 -0.97140658469E+00  0.13091288101E+03  0.18488767222E+03  0.12500230154E+03 0.  0.
          2    1    1    2  501    0 -0.43130791925E+02 -0.29784456617E+02 -0.51764968274E+03  0.52029662031E+03  0.00000000000E+00 0. -1.
          1    1    1    2  502    0  0.80797088549E+02  0.30755863201E+02  0.19813898239E+04  0.19832750003E+04  0.00000000000E+00 0. -1.
         22    1    3    3    0    0 -0.59738123369E+02 -0.19295348166E+02  0.13751603840E+02  0.64265546389E+02  0.00000000000E+00 0. -1.
         22    1    3    3    0    0  0.22071826745E+02  0.18323941581E+02  0.11716127717E+03  0.12062212583E+03  0.00000000000E+00 0. -1.
</event>
<event>
 7    1  0.6315518E-006  0.1682591E+03  0.7818608E-02  0.1256265E+00
          2   -1    0    0  502    0  0.00000000000E+00  0.00000000000E+00  0.66908478478E+03  0.66908478478E+03  0.00000000000E+00 0. -1.
          1   -1    0    0  501    0 -0.00000000000E+00 -0.00000000000E+00 -0.10758764947E+03  0.10758764947E+03  0.00000000000E+00 0. -1.
         25    2    1    2    0    0 -0.12286467556E+03  0.93790515541E+02  0.26446910932E+03  0.33084939536E+03  0.12500009328E+03 0.  0.
          2    1    1    2  501    0  0.17349260404E+03 -0.38418385278E+02  0.45619585303E+02  0.18345790402E+03  0.00000000000E+00 0. -1.
          1    1    1    2  502    0 -0.50627928476E+02 -0.55372130262E+02  0.25140844068E+03  0.26236513487E+03  0.00000000000E+00 0. -1.
         22    1    3    3    0    0  0.10541464796E+02  0.31865774131E+02  0.12030745719E+03  0.12490169853E+03  0.00000000000E+00 0.  1.
         22    1    3    3    0    0 -0.13340614036E+03  0.61924741409E+02  0.14416165214E+03  0.20594769683E+03  0.00000000000E+00 0.  1.
</event>
<event>
 7    1  0.6315518E-006  0.4192932E+02  0.7818608E-02  0.1497177E+00
          2   -1    0    0  502    0  0.00000000000E+00  0.00000000000E+00  0.30819527381E+03  0.30819527381E+03  0.00000000000E+00 0. -1.
          1   -1    0    0  501    0 -0.00000000000E+00 -0.00000000000E+00 -0.59828516425E+02  0.59828516425E+02  0.00000000000E+00 0. -1.
         25    2    1    2    0    0 -0.17243794107E+02 -0.59218710645E+02  0.16636935451E+03  0.21704438095E+03  0.12500118822E+03 0.  0.
          2    1    1    2  501    0 -0.17733789795E+02  0.37534459787E+02 -0.16157309883E+02  0.44546398671E+02  0.00000000000E+00 0. -1.
          1    1    1    2  502    0  0.34977583902E+02  0.21684250858E+02  0.98154712762E+02  0.10643301061E+03  0.00000000000E+00 0. -1.
         22    1    3    3    0    0  0.21080159115E+02 -0.61272738532E+02  0.16650084461E+03  0.17866519765E+03  0.00000000000E+00 0. -1.
         22    1    3    3    0    0 -0.38323953222E+02  0.20540278874E+01 -0.13149010284E+00  0.38379183300E+02  0.00000000000E+00 0. -1.
</event>
<event>
 7    1  0.6315518E-006  0.6730080E+02  0.7818608E-02  0.1462289E+00
          2   -1    0    0  502    0  0.00000000000E+00  0.00000000000E+00  0.22337084731E+04  0.22337084731E+04  0.00000000000E+00 0. -1.
          1   -1    0    0  501    0 -0.00000000000E+00 -0.00000000000E+00 -0.16956468224E+03  0.16956468224E+03  0.00000000000E+00 0. -1.
         25    2    1    2    0    0  0.90775971081E+02 -0.84475781326E+01  0.15762766467E+04  0.15838515537E+04  0.12500415533E+03 0.  0.
          2    1    1    2  501    0 -0.31802904689E+02  0.80600882941E+01 -0.16280725541E+03  0.16608007762E+03  0.00000000000E+00 0. -1.
          1    1    1    2  502    0 -0.58973066392E+02  0.38748983852E+00  0.65067439961E+03  0.65334152402E+03  0.00000000000E+00 0. -1.
         22    1    3    3    0    0  0.34784885423E+02 -0.46110899387E+02  0.28398938056E+03  0.28980367763E+03  0.00000000000E+00 0.  1.
         22    1    3    3    0    0  0.55991085658E+02  0.37663321254E+02  0.12922872661E+04  0.12940478761E+04  0.00000000000E+00 0.  1.
</event>
<event>
 7    1  0.6315518E-006  0.1930720E+03  0.7818608E-02  0.1305878E+00
          2   -1    0    0  502    0  0.00000000000E+00  0.00000000000E+00  0.12988664394E+03  0.12988664394E+03  0.00000000000E+00 0. -1.
          1   -1    0    0  501    0 -0.00000000000E+00 -0.00000000000E+00 -0.93415003459E+03  0.93415003459E+03  0.00000000000E+00 0. -1.
         25    2    1    2    0    0 -0.15453135103E+03  0.41274015221E+02 -0.11973068729E+03  0.23567678616E+03  0.12499850908E+03 0.  0.
          2    1    1    2  501    0  0.19402462243E+03 -0.51545047798E+02 -0.73587980052E+03  0.76277226409E+03  0.00000000000E+00 0. -1.
          1    1    1    2  502    0 -0.39493271404E+02  0.10271032576E+02  0.51347097156E+02  0.65587628275E+02  0.00000000000E+00 0. -1.
         22    1    3    3    0    0 -0.14242918274E+03  0.77880325641E+02 -0.82551421756E+02  0.18211577211E+03  0.00000000000E+00 0.  1.
         22    1    3    3    0    0 -0.12102168285E+02 -0.36606310419E+02 -0.37179265536E+02  0.53561014045E+02  0.00000000000E+00 0.  1.
</event>
<event>
 7    1  0.6315518E-006  0.1425891E+03  0.7818608E-02  0.1298534E+00
          2   -1    0    0  502    0  0.00000000000E+00  0.00000000000E+00  0.88332803125E+03  0.88332803125E+03  0.00000000000E+00 0. -1.
          1   -1    0    0  501    0 -0.00000000000E+00 -0.00000000000E+00 -0.39516007246E+03  0.39516007246E+03  0.00000000000E+00 0. -1.
         25    2    1    2    0    0 -0.73023812022E+02 -0.82557480611E+02 -0.17407202864E+02  0.16756675173E+03  0.12500956302E+03 0.  0.
          2    1    1    2  501    0 -0.56670939374E+02  0.16805802081E+02 -0.29315911207E+03  0.29905901649E+03  0.00000000000E+00 0. -1.
          1    1    1    2  502    0  0.12969475140E+03  0.65751678530E+02  0.79873427373E+03  0.81186233549E+03  0.00000000000E+00 0. -1.
         22    1    3    3    0    0 -0.19659115011E+02 -0.55227710194E+02  0.50217711950E+02  0.77190668929E+02  0.00000000000E+00 0.  1.
         22    1    3    3    0    0 -0.53364697012E+02 -0.27329770417E+02 -0.67624914814E+02  0.90376082797E+02  0.00000000000E+00 0.  1.
</event>
<event>
 7    1  0.6315518E-006  0.3068100E+03  0.7818608E-02  0.1205501E+00
          2   -1    0    0  502    0  0.00000000000E+00  0.00000000000E+00  0.11733656079E+04  0.11733656079E+04  0.00000000000E+00 0. -1.
          1   -1    0    0  501    0 -0.00000000000E+00 -0.00000000000E+00 -0.63008035684E+03  0.63008035684E+03  0.00000000000E+00 0. -1.
         25    2    1    2    0    0  0.31804037979E+03 -0.17369877470E+03 -0.16914433327E+03  0.41899350051E+03  0.12499920192E+03 0.  0.
          2    1    1    2  501    0 -0.69453000139E+02  0.79257279908E+00 -0.31022689441E+03  0.31790733463E+03  0.00000000000E+00 0. -1.
          1    1    1    2  502    0 -0.24858737965E+03  0.17290620190E+03  0.10226564788E+04  0.10665451296E+04  0.00000000000E+00 0. -1.
         22    1    3    3    0    0  0.16848162136E+03 -0.11594421882E+03 -0.15770439312E+03  0.25826303302E+03  0.00000000000E+00 0.  1.
         22    1    3    3    0    0  0.14955875843E+03 -0.57754555885E+02 -0.11439940145E+02  0.16073046749E+03  0.00000000000E+00 0.  1.
</event>
<event>
 7    1  0.6315518E-006  0.1021646E+03  0.7818608E-02  0.1355370E+00
          2   -1    0    0  502    0  0.00000000000E+00  0.00000000000E+00  0.39739978797E+03  0.39739978797E+03  0.00000000000E+00 0. -1.
          1   -1    0    0  501    0 -0.00000000000E+00 -0.00000000000E+00 -0.97111041746E+03  0.97111041746E+03  0.00000000000E+00 0. -1.
         25    2    1    2    0    0  0.26181510565E+02  0.49434730499E+02  0.99230706867E+02  0.16911446332E+03  0.12499481767E+03 0.  0.
          2    1    1    2  501    0 -0.66445934541E+02 -0.78927697162E+02 -0.93092687139E+03  0.93662665106E+03  0.00000000000E+00 0. -1.
          1    1    1    2  502    0  0.40264423976E+02  0.29492966663E+02  0.25798553503E+03  0.26276909104E+03  0.00000000000E+00 0. -1.
         22    1    3    3    0    0  0.21105882425E+02 -0.38702357312E+02  0.54650432255E+02  0.70213962145E+02  0.00000000000E+00 0.  1.
         22    1    3    3    0    0  0.50756281394E+01  0.88137087811E+02  0.44580274611E+02  0.98900501178E+02  0.00000000000E+00 0.  1.
</event>
<event>
 7    1  0.6315518E-006  0.1500839E+03  0.7818608E-02  0.1279533E+00
          2   -1    0    0  502    0  0.00000000000E+00  0.00000000000E+00  0.75308406145E+03  0.75308406145E+03  0.00000000000E+00 0. -1.
          1   -1    0    0  501    0 -0.00000000000E+00 -0.00000000000E+00 -0.71080405693E+03  0.71080405693E+03  0.00000000000E+00 0. -1.
         25    2    1    2    0    0  0.26838343679E+02  0.12739123901E+03  0.10562269168E+03  0.20911778937E+03  0.12500108945E+03 0.  0.
          2    1    1    2  501    0  0.67062054550E+02 -0.26564764035E+01 -0.64706118724E+03  0.65053251730E+03  0.00000000000E+00 0. -1.
          1    1    1    2  502    0 -0.93900398230E+02 -0.12473476260E+03  0.58371850007E+03  0.60423781172E+03  0.00000000000E+00 0. -1.
         22    1    3    3    0    0  0.44640878858E+01  0.99851639336E+02  0.24146383993E+01  0.99980540293E+02  0.00000000000E+00 0. -1.
         22    1    3    3    0    0  0.22374255794E+02  0.27539599671E+02  0.10320805329E+03  0.10913724907E+03  0.00000000000E+00 0. -1.
</event>
<event>
 7    1  0.6315518E-006  0.1597585E+03  0.7818608E-02  0.1287005E+00
          2   -1    0    0  502    0  0.00000000000E+00  0.00000000000E+00  0.12835706174E+03  0.12835706174E+03  0.00000000000E+00 0. -1.
          1   -1    0    0  501    0 -0.00000000000E+00 -0.00000000000E+00 -0.19221373329E+04  0.19221373329E+04  0.00000000000E+00 0. -1.
         25    2    1    2    0    0  0.19140424481E+03 -0.93141152128E+01 -0.85437708444E+03  0.88447945299E+03  0.12498544987E+03 0.  0.
          2    1    1    2  501    0 -0.37396057005E+02  0.45304895582E+02 -0.99622808923E+03  0.99795861859E+03  0.00000000000E+00 0. -1.
          1    1    1    2  502    0 -0.15400818780E+03 -0.35990780370E+02  0.56824902494E+02  0.16805632307E+03  0.00000000000E+00 0. -1.
         22    1    3    3    0    0 -0.11387628449E+02  0.62761527601E+01 -0.11335043922E+02  0.17249678138E+02  0.00000000000E+00 0.  1.
         22    1    3    3    0    0  0.20279187325E+03 -0.15590267973E+02 -0.84304204052E+03  0.86722977485E+03  0.00000000000E+00 0.  1.
</event>
<event>
 7    1  0.6315518E-006  0.9706927E+02  0.7818608E-02  0.1461588E+00
          2   -1    0    0  502    0  0.00000000000E+00  0.00000000000E+00  0.22667066154E+03  0.22667066154E+03  0.00000000000E+00 0. -1.
          1   -1    0    0  501    0 -0.00000000000E+00 -0.00000000000E+00 -0.84585475723E+03  0.84585475723E+03  0.00000000000E+00 0. -1.
         25    2    1    2    0    0  0.25545140644E+02 -0.70173403521E+02  0.18359136359E+03  0.23432425129E+03  0.12500082073E+03 0.  0.
          2    1    1    2  501    0 -0.36177298637E+02  0.90413547664E+02 -0.80873293345E+03  0.81457495922E+03  0.00000000000E+00 0. -1.
          1    1    1    2  502    0  0.10632157993E+02 -0.20240144143E+02  0.59574741663E+01  0.23626208265E+02  0.00000000000E+00 0. -1.
         22    1    3    3    0    0 -0.43047123611E+02 -0.28212869284E+02  0.26593820278E+02  0.57933169440E+02  0.00000000000E+00 0. -1.
         22    1    3    3    0    0  0.68592264255E+02 -0.41960534238E+02  0.15699754331E+03  0.17639108185E+03  0.00000000000E+00 0. -1.
</event>
<event>
 7    1  0.6315518E-006  0.7450461E+02  0.7818608E-02  0.1460914E+00
          2   -1    0    0  502    0  0.00000000000E+00  0.00000000000E+00  0.13161423522E+04  0.13161423522E+04  0.00000000000E+00 0. -1.
          1   -1    0    0  501    0 -0.00000000000E+00 -0.00000000000E+00 -0.95162770664E+03  0.95162770664E+03  0.00000000000E+00 0. -1.
         25    2    1    2    0    0 -0.86671496108E+02  0.25189067072E+02  0.10481479872E+04  0.10594279468E+04  0.12500773629E+03 0.  0.
          2    1    1    2  501    0  0.29643606653E+02  0.41531041349E+01 -0.94182694455E+03  0.94230249133E+03  0.00000000000E+00 0. -1.
          1    1    1    2  502    0  0.57027889455E+02 -0.29342171207E+02  0.25819360297E+03  0.26603962073E+03  0.00000000000E+00 0. -1.
         22    1    3    3    0    0 -0.86319734102E+02 -0.56531755628E+01  0.34763237099E+03  0.35823361128E+03  0.00000000000E+00 0. -1.
         22    1    3    3    0    0 -0.35176200637E+00  0.30842242635E+02  0.70051561617E+03  0.70119433552E+03  0.00000000000E+00 0. -1.
</event>
<event>
 7    1  0.6315518E-006  0.9184054E+02  0.7818608E-02  0.1314291E+00
          2   -1    0    0  502    0  0.00000000000E+00  0.00000000000E+00  0.22924674258E+03  0.22924674258E+03  0.00000000000E+00 0. -1.
          1   -1    0    0  501    0 -0.00000000000E+00 -0.00000000000E+00 -0.64502133828E+03  0.64502133828E+03  0.00000000000E+00 0. -1.
         25    2    1    2    0    0  0.40071397420E+02 -0.12081447424E+03 -0.10340160509E+03  0.20620071717E+03  0.12499995899E+03 0.  0.
          2    1    1    2  501    0  0.36033622136E+02  0.70844410937E+02 -0.47504629257E+03  0.48164959522E+03  0.00000000000E+00 0. -1.
          1    1    1    2  502    0 -0.76105019556E+02  0.49970063306E+02  0.16267330197E+03  0.18641776847E+03  0.00000000000E+00 0. -1.
         22    1    3    3    0    0  0.25016044561E+02 -0.14191904197E+03 -0.10772191182E+03  0.17991894632E+03  0.00000000000E+00 0. -1.
         22    1    3    3    0    0  0.15055352860E+02  0.21104567725E+02  0.43203067334E+01  0.26281770847E+02  0.00000000000E+00 0. -1.
</event>
<event>
 7    1  0.6315518E-006  0.1282605E+03  0.7818608E-02  0.1241928E+00
          2   -1    0    0  502    0  0.00000000000E+00  0.00000000000E+00  0.16131647921E+04  0.16131647921E+04  0.00000000000E+00 0. -1.
          1   -1    0    0  501    0 -0.00000000000E+00 -0.00000000000E+00 -0.37073601515E+03  0.37073601515E+03  0.00000000000E+00 0. -1.
         25    2    1    2    0    0  0.37808327167E+02  0.22668018631E+03  0.58761343966E+03  0.64321692392E+03  0.12500032111E+03 0.  0.
          2    1    1    2  501    0 -0.54227185621E+02 -0.11426617018E+03 -0.32788728629E+03  0.35143622155E+03  0.00000000000E+00 0. -1.
          1    1    1    2  502    0  0.16418858453E+02 -0.11241401613E+03  0.98270262361E+03  0.98924766180E+03  0.00000000000E+00 0. -1.
         22    1    3    3    0    0 -0.45207794882E+02  0.72194448717E+02  0.16591430027E+03  0.18650291734E+03  0.00000000000E+00 0.  1.
         22    1    3    3    0    0  0.83016122049E+02  0.15448573759E+03  0.42169913939E+03  0.45671400657E+03  0.00000000000E+00 0.  1.
</event>
<event>
 7    1  0.6315518E-006  0.2358578E+02  0.7818608E-02  0.1693080E+00
          2   -1    0    0  502    0  0.00000000000E+00  0.00000000000E+00  0.38097486671E+03  0.38097486671E+03  0.00000000000E+00 0. -1.
          1   -1    0    0  501    0 -0.00000000000E+00 -0.00000000000E+00 -0.10785801022E+04  0.10785801022E+04  0.00000000000E+00 0. -1.
         25    2    1    2    0    0  0.17407306531E+02  0.42050017180E+02 -0.50804490053E+02  0.14239046114E+03  0.12499091546E+03 0.  0.
          2    1    1    2  501    0 -0.11151895044E+02 -0.20707023586E+02 -0.98147265077E+03  0.98175440401E+03  0.00000000000E+00 0. -1.
          1    1    1    2  502    0 -0.62554114860E+01 -0.21342993594E+02  0.33467190529E+03  0.33541010381E+03  0.00000000000E+00 0. -1.
         22    1    3    3    0    0 -0.17663716981E+02  0.53085961281E+02  0.22563161278E+02  0.60325968120E+02  0.00000000000E+00 0. -1.
         22    1    3    3    0    0  0.35071023511E+02 -0.11035944101E+02 -0.73367651331E+02  0.82064493017E+02  0.00000000000E+00 0. -1.
</event>
<event>
 7    1  0.6315518E-006  0.6713574E+02  0.7818608E-02  0.1473874E+00
          2   -1    0    0  502    0  0.00000000000E+00  0.00000000000E+00  0.70944928883E+03  0.70944928883E+03  0.00000000000E+00 0. -1.
          1   -1    0    0  501    0 -0.00000000000E+00 -0.00000000000E+00 -0.33759447144E+03  0.33759447144E+03  0.00000000000E+00 0. -1.
         25    2    1    2    0    0  0.72464863163E+02  0.48709477463E+01  0.11108074156E+03  0.18231585144E+03  0.12500102405E+03 0.  0.
          2    1    1    2  501    0 -0.13401595615E+02  0.27134318699E+02 -0.29920609004E+03  0.30073270246E+03  0.00000000000E+00 0. -1.
          1    1    1    2  502    0 -0.59063267548E+02 -0.32005266445E+02  0.55998016586E+03  0.56399520637E+03  0.00000000000E+00 0. -1.
         22    1    3    3    0    0 -0.24755681988E+02  0.32242446251E+02  0.16262290509E+02  0.43782202132E+02  0.00000000000E+00 0. -1.
         22    1    3    3    0    0  0.97220545151E+02 -0.27371498505E+02  0.94818451049E+02  0.13853364930E+03  0.00000000000E+00 0. -1.
</event>
<event>
 7    1  0.6315518E-006  0.9221752E+02  0.7818608E-02  0.1471154E+00
          2   -1    0    0  502    0  0.00000000000E+00  0.00000000000E+00  0.18754356042E+04  0.18754356042E+04  0.00000000000E+00 0. -1.
          1   -1    0    0  501    0 -0.00000000000E+00 -0.00000000000E+00 -0.28828504948E+03  0.28828504948E+03  0.00000000000E+00 0. -1.
         25    2    1    2    0    0  0.31327807743E+02 -0.10935434560E+03  0.48116040815E+03  0.50997947999E+03  0.12499570873E+03 0.  0.
          2    1    1    2  501    0 -0.20834874362E+02  0.89491366574E+02 -0.26607419957E+03  0.28149294193E+03  0.00000000000E+00 0. -1.
          1    1    1    2  502    0 -0.10492933381E+02  0.19862979027E+02  0.13720643462E+04  0.13722482318E+04  0.00000000000E+00 0. -1.
         22    1    3    3    0    0  0.34873264867E+02  0.16848728520E+02  0.71637301857E+02  0.81436645760E+02  0.00000000000E+00 0.  1.
         22    1    3    3    0    0 -0.35454571240E+01 -0.12620307412E+03  0.40952310630E+03  0.42854283423E+03  0.00000000000E+00 0.  1.
</event>
<event>
 7    1  0.6315518E-006  0.4906202E+02  0.7818608E-02  0.1547060E+00
          2   -1    0    0  502    0  0.00000000000E+00  0.00000000000E+00  0.17932773807E+04  0.17932773807E+04  0.00000000000E+00 0. -1.
          1   -1    0    0  501    0 -0.00000000000E+00 -0.00000000000E+00 -0.13698880345E+04  0.13698880345E+04  0.00000000000E+00 0. -1.
         25    2    1    2    0    0 -0.25335765591E+02 -0.64073566340E+02  0.65867909023E+03  0.67396604933E+03  0.12499907533E+03 0.  0.
          2    1    1    2  501    0  0.29484387001E+02  0.39199776719E+02 -0.13616618425E+04  0.13625450176E+04  0.00000000000E+00 0. -1.
          1    1    1    2  502    0 -0.41486214097E+01  0.24873789621E+02  0.11263720985E+04  0.11266543484E+04  0.00000000000E+00 0. -1.
         22    1    3    3    0    0 -0.39484116193E+02 -0.33463958813E+02  0.86557469720E+02  0.10085151231E+03  0.00000000000E+00 0.  1.
         22    1    3    3    0    0  0.14148350601E+02 -0.30609607527E+02  0.57212162051E+03  0.57311453702E+03  0.00000000000E+00 0.  1.
</event>
<event>
 7    1  0.6315518E-006  0.8619140E+02  0.7818608E-02  0.1358125E+00
          2   -1    0    0  502    0  0.00000000000E+00  0.00000000000E+00  0.99439394873E+02  0.99439394873E+02  0.00000000000E+00 0. -1.
          1   -1    0    0  501    0 -0.00000000000E+00 -0.00000000000E+00 -0.11645892025E+04  0.11645892025E+04  0.00000000000E+00 0. -1.
         25    2    1    2    0    0  0.22566399844E+02  0.34815114362E+02 -0.34160428530E+03  0.36611590705E+03  0.12500414022E+03 0.  0.
          2    1    1    2  501    0 -0.18936349129E+02  0.54609734791E+02 -0.78641692336E+03  0.78853813212E+03  0.00000000000E+00 0. -1.
          1    1    1    2  502    0 -0.36300507147E+01 -0.89424849153E+02  0.62871401034E+02  0.10937455820E+03  0.00000000000E+00 0. -1.
         22    1    3    3    0    0  0.18495577425E+02  0.11854628086E+02  0.16872782380E+01  0.22033281625E+02  0.00000000000E+00 0. -1.
         22    1    3    3    0    0  0.40708224194E+01  0.22960486276E+02 -0.34329156354E+03  0.34408262543E+03  0.00000000000E+00 0. -1.
</event>
<event>
 7    1  0.6315518E-006  0.8849364E+02  0.7818608E-02  0.1383064E+00
          2   -1    0    0  502    0  0.00000000000E+00  0.00000000000E+00  0.42173080383E+03  0.42173080383E+03  0.00000000000E+00 0. -1.
          1   -1    0    0  501    0 -0.00000000000E+00 -0.00000000000E+00 -0.27215919453E+03  0.27215919453E+03  0.00000000000E+00 0. -1.
         25    2    1    2    0    0 -0.28213191848E+02  0.59522210311E+02 -0.10472435811E+03  0.17587229085E+03  0.12499997517E+03 0.  0.
          2    1    1    2  501    0 -0.45110782208E+02 -0.79327838707E+01 -0.12245790132E+03  0.13074344850E+03  0.00000000000E+00 0. -1.
          1    1    1    2  502    0  0.73323974056E+02 -0.51589426440E+02  0.37675386873E+03  0.38727425901E+03  0.00000000000E+00 0. -1.
         22    1    3    3    0    0 -0.71679114576E+02  0.55407832748E+02 -0.43043600023E+02  0.10030291571E+03  0.00000000000E+00 0.  1.
         22    1    3    3    0    0  0.43465922728E+02  0.41143775631E+01 -0.61680758083E+02  0.75569375140E+02  0.00000000000E+00 0.  1.
</event>
<event>
 7    1  0.6315518E-006  0.1100950E+03  0.7818608E-02  0.1327920E+00
          2   -1    0    0  502    0  0.00000000000E+00  0.00000000000E+00  0.84794139436E+03  0.84794139436E+03  0.00000000000E+00 0. -1.
          1   -1    0    0  501    0 -0.00000000000E+00 -0.00000000000E+00 -0.16660046483E+03  0.16660046483E+03  0.00000000000E+00 0. -1.
         25    2    1    2    0    0  0.91740451142E+02  0.13949246322E+02  0.22021817509E+03  0.26968682323E+03  0.12499618449E+03 0.  0.
          2    1    1    2  501    0  0.16805997613E+02 -0.56258063181E+02 -0.12985052417E+03  0.14250813961E+03  0.00000000000E+00 0. -1.
          1    1    1    2  502    0 -0.10854644875E+03  0.42308816858E+02  0.59097327860E+03  0.60234689635E+03  0.00000000000E+00 0. -1.
         22    1    3    3    0    0  0.74901010725E+01 -0.28269975001E+02  0.14826294182E+03  0.15111979691E+03  0.00000000000E+00 0. -1.
         22    1    3    3    0    0  0.84250350069E+02  0.42219221323E+02  0.71955233267E+02  0.11856702632E+03  0.00000000000E+00 0. -1.
</event>
<event>
 7    1  0.6315518E-006  0.7072394E+02  0.7818608E-02  0.1372376E+00
          2   -1    0    0  502    0  0.00000000000E+00  0.00000000000E+00  0.78387311754E+03  0.78387311754E+03  0.00000000000E+00 0. -1.
          1   -1    0    0  501    0 -0.00000000000E+00 -0.00000000000E+00 -0.42660916831E+03  0.42660916831E+03  0.00000000000E+00 0. -1.
         25    2    1    2    0    0 -0.98862911265E+02  0.64090065516E+02  0.17433041796E+02  0.17265653535E+03  0.12499982613E+03 0.  0.
          2    1    1    2  501    0  0.68776681466E+02 -0.92521140339E+01 -0.34410637638E+03  0.35103423166E+03  0.00000000000E+00 0. -1.
          1    1    1    2  502    0  0.30086229799E+02 -0.54837951483E+02  0.68393728383E+03  0.68679151884E+03  0.00000000000E+00 0. -1.
         22    1    3    3    0    0 -0.11974827478E+03  0.20207187357E+02  0.12964300980E+01  0.12144818016E+03  0.00000000000E+00 0. -1.
         22    1    3    3    0    0  0.20885363511E+02  0.43882878159E+02  0.16136611698E+02  0.51208355194E+02  0.00000000000E+00 0. -1.
</event>
<event>
 7    1  0.6315518E-006  0.9927039E+02  0.7818608E-02  0.1384946E+00
          2   -1    0    0  502    0  0.00000000000E+00  0.00000000000E+00  0.29745720667E+04  0.29745720667E+04  0.00000000000E+00 0. -1.
          1   -1    0    0  501    0 -0.00000000000E+00 -0.00000000000E+00 -0.11605218333E+03  0.11605218333E+03  0.00000000000E+00 0. -1.
         25    2    1    2    0    0 -0.23621601094E+02 -0.70354151351E+02  0.14731314405E+04  0.14802868148E+04  0.12500050541E+03 0.  0.
          2    1    1    2  501    0 -0.39344420109E+01  0.99640625261E+02 -0.90044393336E+02  0.13435671478E+03  0.00000000000E+00 0. -1.
          1    1    1    2  502    0  0.27556043105E+02 -0.29286473911E+02  0.14754328362E+04  0.14759807205E+04  0.00000000000E+00 0. -1.
         22    1    3    3    0    0  0.20069722958E+02  0.29876236351E+02  0.38014332719E+03  0.38184333500E+03  0.00000000000E+00 0. -1.
         22    1    3    3    0    0 -0.43691324052E+02 -0.10023038770E+03  0.10929881133E+04  0.10984434798E+04  0.00000000000E+00 0. -1.
</event>
<event>
 7    1  0.6315518E-006  0.5158020E+02  0.7818608E-02  0.1506932E+00
          2   -1    0    0  502    0  0.00000000000E+00  0.00000000000E+00  0.15883159470E+04  0.15883159470E+04  0.00000000000E+00 0. -1.
          1   -1    0    0  501    0 -0.00000000000E+00 -0.00000000000E+00 -0.51105270660E+03  0.51105270660E+03  0.00000000000E+00 0. -1.
         25    2    1    2    0    0 -0.43348992709E+02 -0.62924451607E+02  0.11492843471E+03  0.18620386353E+03  0.12499884763E+03 0.  0.
          2    1    1    2  501    0  0.40379560620E+02  0.31774869942E+02 -0.47385573827E+03  0.47663341466E+03  0.00000000000E+00 0. -1.
          1    1    1    2  502    0  0.29694320886E+01  0.31149581665E+02  0.14361905439E+04  0.14365313754E+04  0.00000000000E+00 0. -1.
         22    1    3    3    0    0  0.24574017898E+02 -0.60503628371E+02  0.17852159764E+02  0.67699859749E+02  0.00000000000E+00 0. -1.
         22    1    3    3    0    0 -0.67923010606E+02 -0.24208232354E+01  0.97076274945E+02  0.11850400378E+03  0.00000000000E+00 0. -1.
</event>
<event>
 7    1  0.6315518E-006  0.1117239E+03  0.7818608E-02  0.1450666E+00
          2   -1    0    0  502    0  0.00000000000E+00  0.00000000000E+00  0.76726620918E+03  0.76726620918E+03  0.00000000000E+00 0. -1.
          1   -1    0    0  501    0 -0.00000000000E+00 -0.00000000000E+00 -0.92100952205E+03  0.92100952205E+03  0.00000000000E+00 0. -1.
         25    2    1    2    0    0 -0.89400933181E+02  0.89361181174E+02 -0.19044604236E+03  0.26052220273E+03  0.12499670199E+03 0.  0.
          2    1    1    2  501    0  0.68094313259E+02 -0.86385772580E+02 -0.69101644965E+03  0.69971642176E+03  0.00000000000E+00 0. -1.
          1    1    1    2  502    0  0.21306619922E+02 -0.29754085941E+01  0.72771917914E+03  0.72803710674E+03  0.00000000000E+00 0. -1.
         22    1    3    3    0    0 -0.18347806924E+02  0.44647841965E+02 -0.16630501551E+03  0.17316879048E+03  0.00000000000E+00 0.  1.
         22    1    3    3    0    0 -0.71053126257E+02  0.44713339209E+02 -0.24141026850E+02  0.87353412248E+02  0.00000000000E+00 0.  1.
</event>
<event>
 7    1  0.6315518E-006  0.9136730E+02  0.7818608E-02  0.1377377E+00
          2   -1    0    0  502    0  0.00000000000E+00  0.00000000000E+00  0.27753028358E+04  0.27753028358E+04  0.00000000000E+00 0. -1.
          1   -1    0    0  501    0 -0.00000000000E+00 -0.00000000000E+00 -0.14692788145E+03  0.14692788145E+03  0.00000000000E+00 0. -1.
         25    2    1    2    0    0 -0.52992110329E+02 -0.26823586040E+01  0.20541387335E+04  0.20586226981E+04  0.12500447145E+03 0.  0.
          2    1    1    2  501    0  0.83564214391E+02  0.37676154417E+02 -0.12932370289E+03  0.15851526951E+03  0.00000000000E+00 0. -1.
          1    1    1    2  502    0 -0.30572104062E+02 -0.34993795813E+02  0.70355992373E+03  0.70509274962E+03  0.00000000000E+00 0. -1.
         22    1    3    3    0    0 -0.89275620634E+02  0.45807379167E+01  0.10486457555E+04  0.10524490677E+04  0.00000000000E+00 0. -1.
         22    1    3    3    0    0  0.36283510305E+02 -0.72630965207E+01  0.10054929780E+04  0.10061736304E+04  0.00000000000E+00 0. -1.
</event>
<event>
 7    1  0.6315518E-006  0.4460526E+02  0.7818608E-02  0.1538250E+00
          2   -1    0    0  502    0  0.00000000000E+00  0.00000000000E+00  0.68919778727E+03  0.68919778727E+03  0.00000000000E+00 0. -1.
          1   -1    0    0  501    0 -0.00000000000E+00 -0.00000000000E+00 -0.23738993157E+04  0.23738993157E+04  0.00000000000E+00 0. -1.
         25    2    1    2    0    0  0.51988781184E+02  0.24911757308E+02 -0.49059133705E+03  0.50953673926E+03  0.12499759854E+03 0.  0.
          2    1    1    2  501    0 -0.75269007106E+01 -0.28387281908E+02 -0.18729885153E+04  0.18732187461E+04  0.00000000000E+00 0. -1.
          1    1    1    2  502    0 -0.44461880474E+02  0.34755246001E+01  0.67887832391E+03  0.68034161769E+03  0.00000000000E+00 0. -1.
         22    1    3    3    0    0  0.74571207207E+02 -0.24785744061E+02 -0.35015153206E+03  0.35886110608E+03  0.00000000000E+00 0.  1.
         22    1    3    3    0    0 -0.22582426022E+02  0.49697501368E+02 -0.14043980499E+03  0.15067563317E+03  0.00000000000E+00 0.  1.
</event>
<event>
 7    1  0.6315518E-006  0.5901602E+02  0.7818608E-02  0.1442537E+00
          2   -1    0    0  502    0  0.00000000000E+00  0.00000000000E+00  0.11580161723E+03  0.11580161723E+03  0.00000000000E+00 0. -1.
          1   -1    0    0  501    0 -0.00000000000E+00 -0.00000000000E+00 -0.18579892767E+03  0.18579892767E+03  0.00000000000E+00 0. -1.
         25    2    1    2    0    0 -0.19732219022E+02  0.58237145191E+02  0.18186918316E+02  0.14048486593E+03  0.12499723201E+03 0.  0.
          2    1    1    2  501    0  0.43253016804E+02  0.17923178666E+00 -0.88096301693E+02  0.98141805356E+02  0.00000000000E+00 0. -1.
          1    1    1    2  502    0 -0.23520797782E+02 -0.58416376978E+02 -0.87927066911E-01  0.62973873620E+02  0.00000000000E+00 0. -1.
         22    1    3    3    0    0  0.52830788815E+02  0.28838689953E+02  0.15469705130E+02  0.62145587629E+02  0.00000000000E+00 0. -1.
         22    1    3    3    0    0 -0.72563007837E+02  0.29398455239E+02  0.27172131869E+01  0.78339278298E+02  0.00000000000E+00 0. -1.
</event>
<event>
 7    1  0.6315518E-006  0.5148093E+02  0.7818608E-02  0.1463152E+00
          2   -1    0    0  502    0  0.00000000000E+00  0.00000000000E+00  0.73517349746E+03  0.73517349746E+03  0.00000000000E+00 0. -1.
          1   -1    0    0  501    0 -0.00000000000E+00 -0.00000000000E+00 -0.13015786815E+03  0.13015786815E+03  0.00000000000E+00 0. -1.
         25    2    1    2    0    0  0.21623705257E+02  0.84436177367E+00  0.65092936683E+02  0.14258688948E+03  0.12500253226E+03 0.  0.
          2    1    1    2  501    0 -0.38606044315E+02  0.38249910766E+02 -0.82539668486E+02  0.98824486869E+02  0.00000000000E+00 0. -1.
          1    1    1    2  502    0  0.16982339058E+02 -0.39094272539E+02  0.62246236112E+03  0.62391998926E+03  0.00000000000E+00 0. -1.
         22    1    3    3    0    0  0.24816147596E+02 -0.59130202978E+02  0.48125775017E+02  0.80176756649E+02  0.00000000000E+00 0.  1.
         22    1    3    3    0    0 -0.31924423391E+01  0.59974564752E+02  0.16967161666E+02  0.62410132834E+02  0.00000000000E+00 0.  1.
</event>
<event>
 7    1  0.6315518E-006  0.5684117E+02  0.7818608E-02  0.1462009E+00
          2   -1    0    0  502    0  0.00000000000E+00  0.00000000000E+00  0.44155899706E+03  0.44155899706E+03  0.00000000000E+00 0. -1.
          1   -1    0    0  501    0 -0.00000000000E+00 -0.00000000000E+00 -0.69429808474E+03  0.69429808474E+03  0.00000000000E+00 0. -1.
         25    2    1    2    0    0  0.20401103832E+02 -0.70392333012E+02  0.29006379299E+03  0.32424232959E+03  0.12499919484E+03 0.  0.
          2    1    1    2  501    0 -0.34384508594E+02  0.18243308231E+02 -0.67120000531E+03  0.67232771761E+03  0.00000000000E+00 0. -1.
          1    1    1    2  502    0  0.13983404762E+02  0.52149024781E+02  0.12839712464E+03  0.13928703461E+03  0.00000000000E+00 0. -1.
         22    1    3    3    0    0 -0.43540694130E+02  0.74077152792E+01  0.91459879949E+02  0.10156562377E+03  0.00000000000E+00 0. -1.
         22    1    3    3    0    0  0.63941797962E+02 -0.77800048291E+02  0.19860391304E+03  0.22267670582E+03  0.00000000000E+00 0. -1.
</event>
<event>
 7    1  0.6315518E-006  0.5959189E+02  0.7818608E-02  0.1408178E+00
          2   -1    0    0  502    0  0.00000000000E+00  0.00000000000E+00  0.47308099268E+03  0.47308099268E+03  0.00000000000E+00 0. -1.
          1   -1    0    0  501    0 -0.00000000000E+00 -0.00000000000E+00 -0.82713239655E+03  0.82713239655E+03  0.00000000000E+00 0. -1.
         25    2    1    2    0    0  0.17293361731E+02 -0.14054228657E+01  0.25079912731E+03  0.28075946205E+03  0.12499855078E+03 0.  0.
          2    1    1    2  501    0  0.41432802796E+02 -0.42831250161E+02 -0.80449629597E+03  0.80670036778E+03  0.00000000000E+00 0. -1.
          1    1    1    2  502    0 -0.58726164528E+02  0.44236673027E+02  0.19964576480E+03  0.21275355941E+03  0.00000000000E+00 0. -1.
         22    1    3    3    0    0  0.64658088568E+02 -0.14407790354E+02  0.19734213525E+03  0.20816380854E+03  0.00000000000E+00 0.  1.
         22    1    3    3    0    0 -0.47364726837E+02  0.13002367488E+02  0.53456992055E+02  0.72595653508E+02  0.00000000000E+00 0.  1.
</event>
<event>
 7    1  0.6315518E-006  0.6374383E+02  0.7818608E-02  0.1486157E+00
          2   -1    0    0  502    0  0.00000000000E+00  0.00000000000E+00  0.44042203871E+03  0.44042203871E+03  0.00000000000E+00 0. -1.
          1   -1    0    0  501    0 -0.00000000000E+00 -0.00000000000E+00 -0.86172433249E+03  0.86172433249E+03  0.00000000000E+00 0. -1.
         25    2    1    2    0    0  0.38535290637E+02  0.68533358348E+02 -0.15949579889E+02  0.14852877767E+03  0.12499847546E+03 0.  0.
          2    1    1    2  501    0 -0.98835137139E+01 -0.62773798616E+02 -0.77761633863E+03  0.78020856425E+03  0.00000000000E+00 0. -1.
          1    1    1    2  502    0 -0.28651776924E+02 -0.57595597322E+01  0.37226362473E+03  0.37340902928E+03  0.00000000000E+00 0. -1.
         22    1    3    3    0    0  0.10892190013E+02 -0.17932033845E+02 -0.47899995282E+02  0.52293471764E+02  0.00000000000E+00 0.  1.
         22    1    3    3    0    0  0.27643100625E+02  0.86465392194E+02  0.31950415393E+02  0.96235305908E+02  0.00000000000E+00 0.  1.
</event>
<event>
 7    1  0.6315518E-006  0.1939472E+03  0.7818608E-02  0.1298541E+00
          2   -1    0    0  502    0  0.00000000000E+00  0.00000000000E+00  0.12230265730E+04  0.12230265730E+04  0.00000000000E+00 0. -1.
          1   -1    0    0  501    0 -0.00000000000E+00 -0.00000000000E+00 -0.85642119010E+03  0.85642119010E+03  0.00000000000E+00 0. -1.
         25    2    1    2    0    0 -0.11519977629E+03 -0.19890818160E+03  0.88209326897E+01  0.26179909510E+03  0.12500201668E+03 0.  0.
          2    1    1    2  501    0  0.35916418632E+02  0.24461064131E+02 -0.72083355228E+03  0.72214219020E+03  0.00000000000E+00 0. -1.
          1    1    1    2  502    0  0.79283357657E+02  0.17444711747E+03  0.10786180025E+04  0.10955064778E+04  0.00000000000E+00 0. -1.
         22    1    3    3    0    0 -0.59821873631E+02 -0.88681453607E+01  0.19569891054E+02  0.63563206360E+02  0.00000000000E+00 0.  1.
         22    1    3    3    0    0 -0.55377902658E+02 -0.19004003624E+03 -0.10748958364E+02  0.19823588874E+03  0.00000000000E+00 0.  1.
</event>
<event>
 7    1  0.6315518E-006  0.8900613E+02  0.7818608E-02  0.1387487E+00
          2   -1    0    0  502    0  0.00000000000E+00  0.00000000000E+00  0.33773674558E+04  0.33773674558E+04  0.00000000000E+00 0. -1.
          1   -1    0    0  501    0 -0.00000000000E+00 -0.00000000000E+00 -0.54898984730E+03  0.54898984730E+03  0.00000000000E+00 0. -1.
         25    2    1    2    0    0 -0.36333920791E+02 -0.75247147569E+02  0.20985308389E+03  0.25816031216E+03  0.12500457167E+03 0.  0.
          2    1    1    2  501    0  0.73114020468E+02  0.51210362461E+02 -0.52088584768E+03  0.52847916470E+03  0.00000000000E+00 0. -1.
          1    1    1    2  502    0 -0.36780099677E+02  0.24036785108E+02  0.31394103723E+04  0.31397178263E+04  0.00000000000E+00 0. -1.
         22    1    3    3    0    0 -0.19168186614E+02 -0.58550858690E+02  0.22264479482E+03  0.23101153022E+03  0.00000000000E+00 0. -1.
         22    1    3    3    0    0 -0.17165734177E+02 -0.16696288878E+02 -0.12791710935E+02  0.27148781939E+02  0.00000000000E+00 0. -1.
</event>
<event>
 7    1  0.6315518E-006  0.9277643E+02  0.7818608E-02  0.1320458E+00
          2   -1    0    0  502    0  0.00000000000E+00  0.00000000000E+00  0.17093681018E+04  0.17093681018E+04  0.00000000000E+00 0. -1.
          1   -1    0    0  501    0 -0.00000000000E+00 -0.00000000000E+00 -0.51015714242E+03  0.51015714242E+03  0.00000000000E+00 0. -1.
         25    2    1    2    0    0 -0.47182088669E+02 -0.13293411995E+03 -0.11601266460E+03  0.22131758490E+03  0.12499962120E+03 0.  0.
          2    1    1    2  501    0  0.61768990129E+02  0.41554580364E+02 -0.33612388373E+03  0.34426945334E+03  0.00000000000E+00 0. -1.
          1    1    1    2  502    0 -0.14586901460E+02  0.91379539587E+02  0.16513475077E+04  0.16539382060E+04  0.00000000000E+00 0. -1.
         22    1    3    3    0    0 -0.58991437004E+02 -0.72408353095E+02 -0.40367695787E+01  0.93483981229E+02  0.00000000000E+00 0.  1.
         22    1    3    3    0    0  0.11809348335E+02 -0.60525766856E+02 -0.11197589502E+03  0.12783360367E+03  0.00000000000E+00 0.  1.
</event>
<event>
 7    1  0.6315518E-006  0.8004626E+02  0.7818608E-02  0.1485628E+00
          2   -1    0    0  502    0  0.00000000000E+00  0.00000000000E+00  0.35183432125E+03  0.35183432125E+03  0.00000000000E+00 0. -1.
          1   -1    0    0  501    0 -0.00000000000E+00 -0.00000000000E+00 -0.53763521665E+03  0.53763521665E+03  0.00000000000E+00 0. -1.
         25    2    1    2    0    0 -0.35240937176E+02  0.92418316226E+02 -0.34894956099E+01  0.15943671734E+03  0.12499928572E+03 0.  0.
          2    1    1    2  501    0  0.17297430881E+02 -0.15698867937E+02 -0.45019605968E+03  0.45080167227E+03  0.00000000000E+00 0. -1.
          1    1    1    2  502    0  0.17943506295E+02 -0.76719448289E+02  0.26788465990E+03  0.27923114828E+03  0.00000000000E+00 0. -1.
         22    1    3    3    0    0 -0.59430790950E+02 -0.26275853769E+01 -0.13026121429E+02  0.60898300119E+02  0.00000000000E+00 0.  1.
         22    1    3    3    0    0  0.24189853774E+02  0.95045901603E+02  0.95366258189E+01  0.98538417224E+02  0.00000000000E+00 0.  1.
</event>
<event>
 7    1  0.6315518E-006  0.1363185E+03  0.7818608E-02  0.1239203E+00
          2   -1    0    0  502    0  0.00000000000E+00  0.00000000000E+00  0.11884432267E+03  0.11884432267E+03  0.00000000000E+00 0. -1.
          1   -1    0    0  501    0 -0.00000000000E+00 -0.00000000000E+00 -0.81487904808E+03  0.81487904808E+03  0.00000000000E+00 0. -1.
         25    2    1    2    0    0  0.66356357899E+02 -0.12436718693E+03 -0.16250783797E+03  0.24880520895E+03  0.12499948472E+03 0.  0.
          2    1    1    2  501    0  0.73475618331E+02  0.81710045242E+02 -0.52726103484E+03  0.53859019379E+03  0.00000000000E+00 0. -1.
          1    1    1    2  502    0 -0.13983197623E+03  0.42657141684E+02 -0.62658526037E+01  0.14632796801E+03  0.00000000000E+00 0. -1.
         22    1    3    3    0    0  0.60465894804E+02 -0.81051669622E+02 -0.24510168747E+02  0.10404924774E+03  0.00000000000E+00 0.  1.
         22    1    3    3    0    0  0.58904630952E+01 -0.43315517304E+02 -0.13799766922E+03  0.14475596121E+03  0.00000000000E+00 0.  1.
</event>
<event>
 7    1  0.6315518E-006  0.1296560E+03  0.7818608E-02  0.1300765E+00
          2   -1    0    0  502    0  0.00000000000E+00  0.00000000000E+00  0.43106904655E+03  0.43106904655E+03  0.00000000000E+00 0. -1.
          1   -1    0    0  501    0 -0.00000000000E+00 -0.00000000000E+00 -0.11452365931E+03  0.11452365931E+03  0.00000000000E+00 0. -1.
         25    2    1    2    0    0  0.48400420891E+02  0.62034132816E+02  0.23391912656E+03  0.27665065744E+03  0.12500637629E+03 0.  0.
          2    1    1    2  501    0 -0.76146455661E+02 -0.11935497917E+03 -0.25115477034E+02  0.14378692899E+03  0.00000000000E+00 0. -1.
          1    1    1    2  502    0  0.27746034770E+02  0.57320846352E+02  0.10774173771E+03  0.12515511942E+03  0.00000000000E+00 0. -1.
         22    1    3    3    0    0  0.82366345946E+02  0.50787373842E+02  0.10469387569E+03  0.14256359947E+03  0.00000000000E+00 0. -1.
         22    1    3    3    0    0 -0.33965925056E+02  0.11246758975E+02  0.12922525088E+03  0.13408705798E+03  0.00000000000E+00 0. -1.
</event>
<event>
 7    1  0.6315518E-006  0.9983820E+02  0.7818608E-02  0.1332440E+00
          2   -1    0    0  502    0  0.00000000000E+00  0.00000000000E+00  0.34055671260E+04  0.34055671260E+04  0.00000000000E+00 0. -1.
          1   -1    0    0  501    0 -0.00000000000E+00 -0.00000000000E+00 -0.70324240385E+02  0.70324240385E+02  0.00000000000E+00 0. -1.
         25    2    1    2    0    0 -0.10097617012E+03  0.12202238575E+03  0.65666128332E+03  0.68696119540E+03  0.12500397362E+03 0.  0.
          2    1    1    2  501    0  0.61062223174E+02 -0.74287888673E+02 -0.12639441957E+02  0.96989901512E+02  0.00000000000E+00 0. -1.
          1    1    1    2  502    0  0.39913946950E+02 -0.47734497073E+02  0.26912210443E+04  0.26919402695E+04  0.00000000000E+00 0. -1.
         22    1    3    3    0    0  0.27503529066E+02  0.12599807652E+02  0.14717793591E+03  0.15025493032E+03  0.00000000000E+00 0.  1.
         22    1    3    3    0    0 -0.12847969919E+03  0.10942257809E+03  0.50948334740E+03  0.53670626508E+03  0.00000000000E+00 0.  1.
</event>
<event>
 7    1  0.6315518E-006  0.6039463E+02  0.7818608E-02  0.1540949E+00
          2   -1    0    0  502    0  0.00000000000E+00  0.00000000000E+00  0.60904777349E+03  0.60904777349E+03  0.00000000000E+00 0. -1.
          1   -1    0    0  501    0 -0.00000000000E+00 -0.00000000000E+00 -0.30295970515E+03  0.30295970515E+03  0.00000000000E+00 0. -1.
         25    2    1    2    0    0  0.71129810598E+02  0.37915690440E+01  0.35735967006E+03  0.38523370151E+03  0.12500098016E+03 0.  0.
          2    1    1    2  501    0 -0.14284894556E+02 -0.15816252410E+02 -0.28506909476E+03  0.28586465476E+03  0.00000000000E+00 0. -1.
          1    1    1    2  502    0 -0.56844916042E+02  0.12024683366E+02  0.23379749304E+03  0.24090912237E+03  0.00000000000E+00 0. -1.
         22    1    3    3    0    0 -0.34917863575E+02 -0.70577803762E+01  0.66264032574E+02  0.75232914827E+02  0.00000000000E+00 0.  1.
         22    1    3    3    0    0  0.10604767417E+03  0.10849349420E+02  0.29109563748E+03  0.31000078668E+03  0.00000000000E+00 0.  1.
</event>
<event>
 7    1  0.6315518E-006  0.5304024E+02  0.7818608E-02  0.1483994E+00
          2   -1    0    0  502    0  0.00000000000E+00  0.00000000000E+00  0.33632977822E+03  0.33632977822E+03  0.00000000000E+00 0. -1.
          1   -1    0    0  501    0 -0.00000000000E+00 -0.00000000000E+00 -0.11939967190E+04  0.11939967190E+04  0.00000000000E+00 0. -1.
         25    2    1    2    0    0  0.36268390585E+02  0.58385202013E+02 -0.29717188224E+03  0.32963748504E+03  0.12500206391E+03 0.  0.
          2    1    1    2  501    0  0.10780935872E+02 -0.33990831154E+02 -0.87803399000E+03  0.87875781235E+03  0.00000000000E+00 0. -1.
          1    1    1    2  502    0 -0.47049326458E+02 -0.24394370859E+02  0.31753893144E+03  0.32193119984E+03  0.00000000000E+00 0. -1.
         22    1    3    3    0    0  0.40978650000E+02  0.59994905819E+02 -0.65223718101E+02  0.97635914924E+02  0.00000000000E+00 0. -1.
         22    1    3    3    0    0 -0.47102594142E+01 -0.16097038062E+01 -0.23194816414E+03  0.23200157012E+03  0.00000000000E+00 0. -1.
</event>
<event>
 7    1  0.6315518E-006  0.6403533E+02  0.7818608E-02  0.1531214E+00
          2   -1    0    0  502    0  0.00000000000E+00  0.00000000000E+00  0.48851626406E+03  0.48851626406E+03  0.00000000000E+00 0. -1.
          1   -1    0    0  501    0 -0.00000000000E+00 -0.00000000000E+00 -0.94392665548E+02  0.94392665548E+02  0.00000000000E+00 0. -1.
         25    2    1    2    0    0  0.39098771922E+02  0.34996164118E+02  0.93060355297E+01  0.13588634797E+03  0.12500020720E+03 0.  0.
          2    1    1    2  501    0 -0.43469534508E+02 -0.55968181486E+02  0.99710059628E+01  0.71564367733E+02  0.00000000000E+00 0. -1.
          1    1    1    2  502    0  0.43707625855E+01  0.20972017368E+02  0.37484655702E+03  0.37545821390E+03  0.00000000000E+00 0. -1.
         22    1    3    3    0    0 -0.22059278635E+01  0.57460540670E+02  0.48070179209E+02  0.74948795728E+02  0.00000000000E+00 0. -1.
         22    1    3    3    0    0  0.41304699786E+02 -0.22464376552E+02 -0.38764143679E+02  0.60937552244E+02  0.00000000000E+00 0. -1.
</event>
<event>
 7    1  0.6315518E-006  0.1490314E+03  0.7818608E-02  0.1369512E+00
          2   -1    0    0  502    0  0.00000000000E+00  0.00000000000E+00  0.42198095427E+03  0.42198095427E+03  0.00000000000E+00 0. -1.
          1   -1    0    0  501    0 -0.00000000000E+00 -0.00000000000E+00 -0.17609362511E+04  0.17609362511E+04  0.00000000000E+00 0. -1.
         25    2    1    2    0    0  0.16470962901E+03  0.66122457696E+02 -0.53935467993E+03  0.58140364911E+03  0.12500116452E+03 0.  0.
          2    1    1    2  501    0 -0.30177116809E+02 -0.36256406527E+01 -0.11866356067E+04  0.11870247962E+04  0.00000000000E+00 0. -1.
          1    1    1    2  502    0 -0.13453251220E+03 -0.62496817043E+02  0.38703498976E+03  0.41448876014E+03  0.00000000000E+00 0. -1.
         22    1    3    3    0    0  0.17301685670E+03  0.75765130641E+02 -0.53590634363E+03  0.56821720923E+03  0.00000000000E+00 0.  1.
         22    1    3    3    0    0 -0.83072276857E+01 -0.96426729457E+01 -0.34483362996E+01  0.13186439876E+02  0.00000000000E+00 0.  1.
</event>
<event>
 7    1  0.6315518E-006  0.4786285E+02  0.7818608E-02  0.1535308E+00
          2   -1    0    0  502    0  0.00000000000E+00  0.00000000000E+00  0.99352310236E+02  0.99352310236E+02  0.00000000000E+00 0. -1.
          1   -1    0    0  501    0 -0.00000000000E+00 -0.00000000000E+00 -0.24492781793E+04  0.24492781793E+04  0.00000000000E+00 0. -1.
         25    2    1    2    0    0 -0.10261616076E+02  0.72571987615E+02 -0.84721757833E+02  0.16785067206E+03  0.12499631079E+03 0.  0.
          2    1    1    2  501    0  0.15435399391E+02 -0.45155034593E+02 -0.23193644300E+04  0.23198552946E+04  0.00000000000E+00 0. -1.
          1    1    1    2  502    0 -0.51737833146E+01 -0.27416953022E+02  0.54160318822E+02  0.60924522827E+02  0.00000000000E+00 0. -1.
         22    1    3    3    0    0  0.12946762161E+02  0.28349617747E+02 -0.10824740835E+03  0.11264466651E+03  0.00000000000E+00 0.  1.
         22    1    3    3    0    0 -0.23208378237E+02  0.44222369868E+02  0.23525650521E+02  0.55206005557E+02  0.00000000000E+00 0.  1.
</event>
<event>
 7    1  0.6315518E-006  0.1295326E+03  0.7818608E-02  0.1335784E+00
          2   -1    0    0  502    0  0.00000000000E+00  0.00000000000E+00  0.12686395635E+03  0.12686395635E+03  0.00000000000E+00 0. -1.
          1   -1    0    0  501    0 -0.00000000000E+00 -0.00000000000E+00 -0.15812508877E+04  0.15812508877E+04  0.00000000000E+00 0. -1.
         25    2    1    2    0    0  0.63028315041E+02  0.63904641620E+02 -0.66153926757E+03  0.67919896177E+03  0.12498262045E+03 0.  0.
          2    1    1    2  501    0  0.45166527903E+02  0.11377067307E+02 -0.87326909452E+03  0.87451035691E+03  0.00000000000E+00 0. -1.
          1    1    1    2  502    0 -0.10819484294E+03 -0.75281708927E+02  0.80421430742E+02  0.15440552536E+03  0.00000000000E+00 0. -1.
         22    1    3    3    0    0 -0.43643232788E+01 -0.20382881489E+02 -0.32744072077E+03  0.32810354279E+03  0.00000000000E+00 0. -1.
         22    1    3    3    0    0  0.67392638320E+02  0.84287523110E+02 -0.33409854680E+03  0.35109541897E+03  0.00000000000E+00 0. -1.
</event>
<event>
 7    1  0.6315518E-006  0.1247218E+03  0.7818608E-02  0.1238632E+00
          2   -1    0    0  502    0  0.00000000000E+00  0.00000000000E+00  0.11360073807E+04  0.11360073807E+04  0.00000000000E+00 0. -1.
          1   -1    0    0  501    0 -0.00000000000E+00 -0.00000000000E+00 -0.16896358532E+03  0.16896358532E+03  0.00000000000E+00 0. -1.
         25    2    1    2    0    0 -0.82347817875E+02 -0.30935470678E+02  0.36806786251E+03  0.39854252501E+03  0.12499610543E+03 0.  0.
          2    1    1    2  501    0  0.41757467920E+02 -0.11752380931E+03 -0.11885416000E+03  0.17228419322E+03  0.00000000000E+00 0. -1.
          1    1    1    2  502    0  0.40590349955E+02  0.14845927999E+03  0.71783009286E+03  0.73414424778E+03  0.00000000000E+00 0. -1.
         22    1    3    3    0    0 -0.14388099734E+02  0.39094872846E+02  0.46206586075E+02  0.62213142451E+02  0.00000000000E+00 0. -1.
         22    1    3    3    0    0 -0.67959718140E+02 -0.70030343525E+02  0.32186127643E+03  0.33632938256E+03  0.00000000000E+00 0. -1.
</event>
<event>
 7    1  0.6315518E-006  0.6724842E+02  0.7818608E-02  0.1455872E+00
          2   -1    0    0  502    0  0.00000000000E+00  0.00000000000E+00  0.26496335127E+02  0.26496335127E+02  0.00000000000E+00 0. -1.
          1   -1    0    0  501    0 -0.00000000000E+00 -0.00000000000E+00 -0.12628979334E+04  0.12628979334E+04  0.00000000000E+00 0. -1.
         25    2    1    2    0    0  0.88014166647E+02 -0.44958119343E+02 -0.36639276396E+03  0.39954140837E+03  0.12498781338E+03 0.  0.
          2    1    1    2  501    0 -0.55572397016E+02  0.33508562353E+02 -0.84458702204E+03  0.84707635598E+03  0.00000000000E+00 0. -1.
          1    1    1    2  502    0 -0.32441769631E+02  0.11449556989E+02 -0.25421812319E+02  0.42776504224E+02  0.00000000000E+00 0. -1.
         22    1    3    3    0    0  0.24199074299E+02  0.13831083929E+02 -0.55585659927E+01  0.28421677211E+02  0.00000000000E+00 0. -1.
         22    1    3    3    0    0  0.63815092348E+02 -0.58789203272E+02 -0.36083419797E+03  0.37111973116E+03  0.00000000000E+00 0. -1.
</event>
<event>
 7    1  0.6315518E-006  0.7205869E+02  0.7818608E-02  0.1425133E+00
          2   -1    0    0  502    0  0.00000000000E+00  0.00000000000E+00  0.11376076420E+04  0.11376076420E+04  0.00000000000E+00 0. -1.
          1   -1    0    0  501    0 -0.00000000000E+00 -0.00000000000E+00 -0.41056430927E+03  0.41056430927E+03  0.00000000000E+00 0. -1.
         25    2    1    2    0    0 -0.10855809356E+02  0.74446008598E+02 -0.31733515496E+03  0.34926719079E+03  0.12500365272E+03 0.  0.
          2    1    1    2  501    0 -0.35509905101E+02 -0.19248912674E+02 -0.70739655053E+02  0.81459025260E+02  0.00000000000E+00 0. -1.
          1    1    1    2  502    0  0.46365714457E+02 -0.55197095924E+02  0.11151181427E+04  0.11174457352E+04  0.00000000000E+00 0. -1.
         22    1    3    3    0    0  0.48356936503E+01  0.64530969307E+02 -0.51283744889E+02  0.82569076673E+02  0.00000000000E+00 0.  1.
         22    1    3    3    0    0 -0.15691503006E+02  0.99150392905E+01 -0.26605141007E+03  0.26669811412E+03  0.00000000000E+00 0.  1.
</event>
<event>
 7    1  0.6315518E-006  0.5138808E+02  0.7818608E-02  0.1473521E+00
          2   -1    0    0  502    0  0.00000000000E+00  0.00000000000E+00  0.27989730528E+03  0.27989730528E+03  0.00000000000E+00 0. -1.
          1   -1    0    0  501    0 -0.00000000000E+00 -0.00000000000E+00 -0.19427306784E+03  0.19427306784E+03  0.00000000000E+00 0. -1.
         25    2    1    2    0    0 -0.50129304171E+02 -0.65892707581E+02  0.27425266793E+02  0.15242953694E+03  0.12501128918E+03 0.  0.
          2    1    1    2  501    0  0.14930999299E+02  0.47666881351E+02 -0.12483847202E+03  0.13446081368E+03  0.00000000000E+00 0. -1.
          1    1    1    2  502    0  0.35198304872E+02  0.18225826229E+02  0.18303744267E+03  0.18728002250E+03  0.00000000000E+00 0. -1.
         22    1    3    3    0    0 -0.14723682236E+02 -0.41233375831E+02  0.75844780784E+02  0.87575161280E+02  0.00000000000E+00 0. -1.
         22    1    3    3    0    0 -0.35405621935E+02 -0.24659331749E+02 -0.48419513990E+02  0.64854375658E+02  0.00000000000E+00 0. -1.
</event>
<event>
 7    1  0.6315518E-006  0.1509765E+03  0.7818608E-02  0.1231698E+00
          2   -1    0    0  502    0  0.00000000000E+00  0.00000000000E+00  0.38182705234E+04  0.38182705234E+04  0.00000000000E+00 0. -1.
          1   -1    0    0  501    0 -0.00000000000E+00 -0.00000000000E+00 -0.48499930402E+03  0.48499930402E+03  0.00000000000E+00 0. -1.
         25    2    1    2    0    0 -0.17044079561E+03  0.11373016475E+03  0.43169652039E+02  0.24387073215E+03  0.12499879984E+03 0.  0.
          2    1    1    2  501    0  0.20106962921E+02 -0.10523453247E+03 -0.37561262703E+03  0.39059370497E+03  0.00000000000E+00 0. -1.
          1    1    1    2  502    0  0.15033383269E+03 -0.84956322832E+01  0.36657141944E+04  0.36688053903E+04  0.00000000000E+00 0. -1.
         22    1    3    3    0    0 -0.14394666719E+02  0.60074646294E+02  0.48856160234E+02  0.78759722892E+02  0.00000000000E+00 0. -1.
         22    1    3    3    0    0 -0.15604612889E+03  0.53655518458E+02 -0.56865081952E+01  0.16511100926E+03  0.00000000000E+00 0. -1.
</event>
<event>
 7    1  0.6315518E-006  0.1571741E+03  0.7818608E-02  0.1339827E+00
          2   -1    0    0  502    0  0.00000000000E+00  0.00000000000E+00  0.12935395788E+04  0.12935395788E+04  0.00000000000E+00 0. -1.
          1   -1    0    0  501    0 -0.00000000000E+00 -0.00000000000E+00 -0.19922954873E+03  0.19922954873E+03  0.00000000000E+00 0. -1.
         25    2    1    2    0    0 -0.17801096135E+03  0.16563297178E+02  0.33335400492E+03  0.39838883218E+03  0.12500609518E+03 0.  0.
          2    1    1    2  501    0  0.14985167055E+03 -0.40657813590E+02 -0.13009020799E+03  0.20256367687E+03  0.00000000000E+00 0. -1.
          1    1    1    2  502    0  0.28159290796E+02  0.24094516412E+02  0.89104623311E+03  0.89181661844E+03  0.00000000000E+00 0. -1.
         22    1    3    3    0    0 -0.12926552255E+03  0.43420531114E+02  0.30878084123E+03  0.33755077508E+03  0.00000000000E+00 0. -1.
         22    1    3    3    0    0 -0.48745438796E+02 -0.26857233936E+02  0.24573163689E+02  0.60838057101E+02  0.00000000000E+00 0. -1.
</event>
<event>
 7    1  0.6315518E-006  0.1109028E+03  0.7818608E-02  0.1385175E+00
          2   -1    0    0  502    0  0.00000000000E+00  0.00000000000E+00  0.46881835022E+03  0.46881835022E+03  0.00000000000E+00 0. -1.
          1   -1    0    0  501    0 -0.00000000000E+00 -0.00000000000E+00 -0.33977993382E+03  0.33977993382E+03  0.00000000000E+00 0. -1.
         25    2    1    2    0    0 -0.13196038625E+03  0.45150799488E+01  0.50181277270E+02  0.18861065861E+03  0.12498756125E+03 0.  0.
          2    1    1    2  501    0  0.25323434623E+02 -0.25486008750E+02 -0.26085353534E+03  0.26331612158E+03  0.00000000000E+00 0. -1.
          1    1    1    2  502    0  0.10663695163E+03  0.20970928801E+02  0.33971067448E+03  0.35667150385E+03  0.00000000000E+00 0. -1.
         22    1    3    3    0    0 -0.14721570093E+03  0.12937447920E+02  0.13991427601E+02  0.14844392950E+03  0.00000000000E+00 0. -1.
         22    1    3    3    0    0  0.15255314682E+02 -0.84223679716E+01  0.36189849670E+02  0.40166729110E+02  0.00000000000E+00 0. -1.
</event>
<event>
 7    1  0.6315518E-006  0.4021733E+03  0.7818608E-02  0.1165553E+00
          2   -1    0    0  502    0  0.00000000000E+00  0.00000000000E+00  0.24475227271E+04  0.24475227271E+04  0.00000000000E+00 0. -1.
          1   -1    0    0  501    0 -0.00000000000E+00 -0.00000000000E+00 -0.16825895010E+04  0.16825895010E+04  0.00000000000E+00 0. -1.
         25    2    1    2    0    0 -0.32272495267E+03 -0.28414473835E+03 -0.92894612195E+03  0.10312398256E+04  0.12500021237E+03 0.  0.
          2    1    1    2  501    0  0.75849371340E+02 -0.32893455146E+02 -0.68314246986E+03  0.68812698004E+03  0.00000000000E+00 0. -1.
          1    1    1    2  502    0  0.24687558133E+03  0.31703819350E+03  0.23770218179E+04  0.24107454224E+04  0.00000000000E+00 0. -1.
         22    1    3    3    0    0 -0.18782819060E+03 -0.14160257346E+03 -0.36605206824E+03  0.43511473735E+03  0.00000000000E+00 0.  1.
         22    1    3    3    0    0 -0.13489676207E+03 -0.14254216489E+03 -0.56289405371E+03  0.59612508829E+03  0.00000000000E+00 0.  1.
</event>
<event>
 7    1  0.6315518E-006  0.6176205E+02  0.7818608E-02  0.1432243E+00
          2   -1    0    0  502    0  0.00000000000E+00  0.00000000000E+00  0.32086932154E+04  0.32086932154E+04  0.00000000000E+00 0. -1.
          1   -1    0    0  501    0 -0.00000000000E+00 -0.00000000000E+00 -0.14537545003E+02  0.14537545003E+02  0.00000000000E+00 0. -1.
         25    2    1    2    0    0 -0.10951609897E+01 -0.61927689370E+01  0.19979108236E+04  0.20018272530E+04  0.12500056792E+03 0.  0.
          2    1    1    2  501    0 -0.60849671740E+02 -0.10576799780E+02  0.70080481530E+02  0.93412125209E+02  0.00000000000E+00 0. -1.
          1    1    1    2  502    0  0.61944832730E+02  0.16769568717E+02  0.11261643652E+04  0.11279913822E+04  0.00000000000E+00 0. -1.
         22    1    3    3    0    0 -0.26309889468E+02  0.47171278499E+02  0.13922812175E+04  0.13933285070E+04  0.00000000000E+00 0.  1.
         22    1    3    3    0    0  0.25214728479E+02 -0.53364047436E+02  0.60562960612E+03  0.60849874602E+03  0.00000000000E+00 0.  1.
</event>
<event>
 7    1  0.6315518E-006  0.4865524E+02  0.7818608E-02  0.1561885E+00
          2   -1    0    0  502    0  0.00000000000E+00  0.00000000000E+00  0.22091334606E+04  0.22091334606E+04  0.00000000000E+00 0. -1.
          1   -1    0    0  501    0 -0.00000000000E+00 -0.00000000000E+00 -0.14606274282E+03  0.14606274282E+03  0.00000000000E+00 0. -1.
         25    2    1    2    0    0  0.27681716267E+02  0.33150205714E+02 -0.88930561003E+02  0.15936942681E+03  0.12499902387E+03 0.  0.
          2    1    1    2  501    0 -0.17980904928E+02  0.14552067226E+02 -0.15457756751E+02  0.27821176222E+02  0.00000000000E+00 0. -1.
          1    1    1    2  502    0 -0.97008113388E+01 -0.47702272940E+02  0.21674590355E+04  0.21680056004E+04  0.00000000000E+00 0. -1.
         22    1    3    3    0    0  0.72160212266E+02 -0.54412776715E+01 -0.39243174525E+02  0.82320899435E+02  0.00000000000E+00 0. -1.
         22    1    3    3    0    0 -0.44478495999E+02  0.38591483386E+02 -0.49687386477E+02  0.77048527379E+02  0.00000000000E+00 0. -1.
</event>
<event>
 7    1  0.6315518E-006  0.2733081E+03  0.7818608E-02  0.1263887E+00
          2   -1    0    0  502    0  0.00000000000E+00  0.00000000000E+00  0.14674211053E+04  0.14674211053E+04  0.00000000000E+00 0. -1.
          1   -1    0    0  501    0 -0.00000000000E+00 -0.00000000000E+00 -0.20855647362E+03  0.20855647362E+03  0.00000000000E+00 0. -1.
         25    2    1    2    0    0  0.29811201120E+03  0.56699470727E+02  0.99645832197E+03  0.10491142033E+04  0.12500329162E+03 0.  0.
          2    1    1    2  501    0 -0.25966162210E+03 -0.75629277636E+02 -0.79803993811E+02  0.28197982739E+03  0.00000000000E+00 0. -1.
          1    1    1    2  502    0 -0.38450389102E+02  0.18929806908E+02  0.34221030347E+03  0.34488354819E+03  0.00000000000E+00 0. -1.
         22    1    3    3    0    0  0.21896431372E+03  0.82777041269E+01  0.52987339750E+03  0.57339315347E+03  0.00000000000E+00 0. -1.
         22    1    3    3    0    0  0.79147697482E+02  0.48421766601E+02  0.46658492447E+03  0.47572104982E+03  0.00000000000E+00 0. -1.
</event>
<event>
 7    1  0.6315518E-006  0.1637159E+03  0.7818608E-02  0.1196091E+00
          2   -1    0    0  502    0  0.00000000000E+00  0.00000000000E+00  0.11464260599E+04  0.11464260599E+04  0.00000000000E+00 0. -1.
          1   -1    0    0  501    0 -0.00000000000E+00 -0.00000000000E+00 -0.14971996215E+04  0.14971996215E+04  0.00000000000E+00 0. -1.
         25    2    1    2    0    0 -0.47691840964E+02 -0.26925708422E+01  0.22774008223E+02  0.13573945643E+03  0.12499913179E+03 0.  0.
          2    1    1    2  501    0 -0.10568957280E+03  0.98027257820E+02 -0.14294253485E+04  0.14366754874E+04  0.00000000000E+00 0. -1.
          1    1    1    2  502    0  0.15338141377E+03 -0.95334686978E+02  0.10558777787E+04  0.10712107375E+04  0.00000000000E+00 0. -1.
         22    1    3    3    0    0 -0.88499695501E+02 -0.42536072691E+01  0.31398803042E+02  0.94000926118E+02  0.00000000000E+00 0.  1.
         22    1    3    3    0    0  0.40807854537E+02  0.15610364269E+01 -0.86247948184E+01  0.41738530308E+02  0.00000000000E+00 0.  1.
</event>
<event>
 7    1  0.6315518E-006  0.4368279E+02  0.7818608E-02  0.1508872E+00
          2   -1    0    0  502    0  0.00000000000E+00  0.00000000000E+00  0.18033700267E+03  0.18033700267E+03  0.00000000000E+00 0. -1.
          1   -1    0    0  501    0 -0.00000000000E+00 -0.00000000000E+00 -0.20419086820E+03  0.20419086820E+03  0.00000000000E+00 0. -1.
         25    2    1    2    0    0  0.33074444089E+02 -0.91274780996E+01 -0.69030281964E+02  0.14686109746E+03  0.12500308961E+03 0.  0.
          2    1    1    2  501    0  0.20097823537E+01  0.36408449899E+02 -0.89075457174E+02  0.96249942961E+02  0.00000000000E+00 0. -1.
          1    1    1    2  502    0 -0.35084226443E+02 -0.27280971800E+02  0.13425187361E+03  0.14141683045E+03  0.00000000000E+00 0. -1.
         22    1    3    3    0    0  0.39776527123E+02  0.10768816956E+02  0.26537703992E+02  0.49014174091E+02  0.00000000000E+00 0.  1.
         22    1    3    3    0    0 -0.67020830343E+01 -0.19896295056E+02 -0.95567985956E+02  0.97846923373E+02  0.00000000000E+00 0.  1.
</event>
<event>
 7    1  0.6315518E-006  0.6618872E+02  0.7818608E-02  0.1447456E+00
          2   -1    0    0  502    0  0.00000000000E+00  0.00000000000E+00  0.17036891522E+04  0.17036891522E+04  0.00000000000E+00 0. -1.
          1   -1    0    0  501    0 -0.00000000000E+00 -0.00000000000E+00 -0.76618941976E+03  0.76618941976E+03  0.00000000000E+00 0. -1.
         25    2    1    2    0    0  0.47066874579E+02  0.30457372684E+02 -0.34612783341E+02  0.14129841329E+03  0.12499701834E+03 0.  0.
          2    1    1    2  501    0 -0.66778154361E+02  0.10722660789E+01 -0.67637950558E+03  0.67966882172E+03  0.00000000000E+00 0. -1.
          1    1    1    2  502    0  0.19711279782E+02 -0.31529638763E+02  0.16484920214E+04  0.16489113370E+04  0.00000000000E+00 0. -1.
         22    1    3    3    0    0  0.62943854112E+02 -0.64174267654E+00  0.28555860268E+02  0.69121471048E+02  0.00000000000E+00 0.  1.
         22    1    3    3    0    0 -0.15876979533E+02  0.31099115361E+02 -0.63168643610E+02  0.72176942238E+02  0.00000000000E+00 0.  1.
</event>
<event>
 7    1  0.6315518E-006  0.1393926E+03  0.7818608E-02  0.1292626E+00
          2   -1    0    0  502    0  0.00000000000E+00  0.00000000000E+00  0.56042724912E+03  0.56042724912E+03  0.00000000000E+00 0. -1.
          1   -1    0    0  501    0 -0.00000000000E+00 -0.00000000000E+00 -0.10151456942E+04  0.10151456942E+04  0.00000000000E+00 0. -1.
         25    2    1    2    0    0  0.18223689235E+03 -0.70224583223E+02 -0.14250064721E+02  0.23232364438E+03  0.12501773622E+03 0.  0.
          2    1    1    2  501    0 -0.11838420203E+03  0.68561154062E+02 -0.88431287680E+03  0.89483222741E+03  0.00000000000E+00 0. -1.
          1    1    1    2  502    0 -0.63852690325E+02  0.16634291602E+01  0.44384449642E+03  0.44841707155E+03  0.00000000000E+00 0. -1.
         22    1    3    3    0    0  0.10058960571E+03 -0.68455875268E+02  0.46796392267E+02  0.13036248680E+03  0.00000000000E+00 0. -1.
         22    1    3    3    0    0  0.81647286643E+02 -0.17687079546E+01 -0.61046456988E+02  0.10196115758E+03  0.00000000000E+00 0. -1.
</event>
<event>
 7    1  0.6315518E-006  0.6395252E+02  0.7818608E-02  0.1431596E+00
          2   -1    0    0  502    0  0.00000000000E+00  0.00000000000E+00  0.11492127804E+04  0.11492127804E+04  0.00000000000E+00 0. -1.
          1   -1    0    0  501    0 -0.00000000000E+00 -0.00000000000E+00 -0.71478854196E+03  0.71478854196E+03  0.00000000000E+00 0. -1.
         25    2    1    2    0    0  0.84328281488E+02 -0.61512796147E+02  0.80987628848E+02  0.18188013123E+03  0.12500521173E+03 0.  0.
          2    1    1    2  501    0 -0.57087667954E+02  0.27816175515E+02 -0.66236179762E+03  0.66539904749E+03  0.00000000000E+00 0. -1.
          1    1    1    2  502    0 -0.27240613533E+02  0.33696620632E+02  0.10157984073E+04  0.10167221437E+04  0.00000000000E+00 0. -1.
         22    1    3    3    0    0 -0.85212298949E+01 -0.44877385114E+01  0.71896594322E+02  0.72538758129E+02  0.00000000000E+00 0.  1.
         22    1    3    3    0    0  0.92849511383E+02 -0.57025057635E+02  0.90910345259E+01  0.10934137310E+03  0.00000000000E+00 0.  1.
</event>
<event>
 7    1  0.6315518E-006  0.4497629E+02  0.7818608E-02  0.1497315E+00
          2   -1    0    0  502    0  0.00000000000E+00  0.00000000000E+00  0.78900268768E+02  0.78900268768E+02  0.00000000000E+00 0. -1.
          1   -1    0    0  501    0 -0.00000000000E+00 -0.00000000000E+00 -0.27304746912E+04  0.27304746912E+04  0.00000000000E+00 0. -1.
         25    2    1    2    0    0 -0.68562522118E+02  0.41191468661E+02 -0.10287797491E+03  0.18056954343E+03  0.12499570298E+03 0.  0.
          2    1    1    2  501    0  0.30073217456E+02 -0.23763927424E+02 -0.25774266781E+04  0.25777116603E+04  0.00000000000E+00 0. -1.
          1    1    1    2  502    0  0.38489304662E+02 -0.17427541236E+02  0.28730230644E+02  0.51093756172E+02  0.00000000000E+00 0. -1.
         22    1    3    3    0    0 -0.32096627261E+02  0.72023483377E+02 -0.10668787580E+03  0.13266453363E+03  0.00000000000E+00 0.  1.
         22    1    3    3    0    0 -0.36465894857E+02 -0.30832014716E+02  0.38099008956E+01  0.47905009801E+02  0.00000000000E+00 0.  1.
</event>
<event>
 7    1  0.6315518E-006  0.3982189E+02  0.7818608E-02  0.1585643E+00
          2   -1    0    0  502    0  0.00000000000E+00  0.00000000000E+00  0.55692930417E+03  0.55692930417E+03  0.00000000000E+00 0. -1.
          1   -1    0    0  501    0 -0.00000000000E+00 -0.00000000000E+00 -0.13130319194E+04  0.13130319194E+04  0.00000000000E+00 0. -1.
         25    2    1    2    0    0 -0.21108390592E+02 -0.69400863103E+00 -0.64293906117E+03  0.65531849970E+03  0.12500261545E+03 0.  0.
          2    1    1    2  501    0 -0.13631284586E+02  0.20209734341E+02 -0.66295811622E+03  0.66340614193E+03  0.00000000000E+00 0. -1.
          1    1    1    2  502    0  0.34739675178E+02 -0.19515725709E+02  0.54979456221E+03  0.55123658189E+03  0.00000000000E+00 0. -1.
         22    1    3    3    0    0  0.50997655373E+02 -0.19552547341E+01 -0.34621811717E+03  0.34995938126E+03  0.00000000000E+00 0. -1.
         22    1    3    3    0    0 -0.72106045965E+02  0.12612461030E+01 -0.29672094400E+03  0.30535911844E+03  0.00000000000E+00 0. -1.
</event>
<event>
 7    1  0.6315518E-006  0.1479556E+03  0.7818608E-02  0.1296931E+00
          2   -1    0    0  502    0  0.00000000000E+00  0.00000000000E+00  0.12892460195E+04  0.12892460195E+04  0.00000000000E+00 0. -1.
          1   -1    0    0  501    0 -0.00000000000E+00 -0.00000000000E+00 -0.11239587648E+03  0.11239587648E+03  0.00000000000E+00 0. -1.
         25    2    1    2    0    0  0.14754611488E+02  0.19864901926E+03  0.27380209190E+03  0.36092910415E+03  0.12499240490E+03 0.  0.
          2    1    1    2  501    0  0.16431907554E+01 -0.57794480504E+02 -0.50446130544E+02  0.76731441661E+02  0.00000000000E+00 0. -1.
          1    1    1    2  502    0 -0.16397802244E+02 -0.14085453876E+03  0.95349418168E+03  0.96398135019E+03  0.00000000000E+00 0. -1.
         22    1    3    3    0    0  0.27261739732E+02  0.97289108822E+02  0.45468214300E+02  0.11079590092E+03  0.00000000000E+00 0.  1.
         22    1    3    3    0    0 -0.12507128244E+02  0.10135991044E+03  0.22833387760E+03  0.25013320323E+03  0.00000000000E+00 0.  1.
</event>
<event>
 7    1  0.6315518E-006  0.7077840E+02  0.7818608E-02  0.1436852E+00
          2   -1    0    0  502    0  0.00000000000E+00  0.00000000000E+00  0.50528360398E+03  0.50528360398E+03  0.00000000000E+00 0. -1.
          1   -1    0    0  501    0 -0.00000000000E+00 -0.00000000000E+00 -0.85717218925E+02  0.85717218925E+02  0.00000000000E+00 0. -1.
         25    2    1    2    0    0  0.52613548313E+02  0.12761888211E+02  0.12986379270E+03  0.18820609532E+03  0.12500351357E+03 0.  0.
          2    1    1    2  501    0 -0.54713832692E+02 -0.50334402432E+02 -0.30522195196E+02  0.80366410618E+02  0.00000000000E+00 0. -1.
          1    1    1    2  502    0  0.21002843796E+01  0.37572514221E+02  0.32022478755E+03  0.32242831697E+03  0.00000000000E+00 0. -1.
         22    1    3    3    0    0  0.88175994891E+02 -0.14660729293E+02  0.70914224364E+02  0.11409982592E+03  0.00000000000E+00 0. -1.
         22    1    3    3    0    0 -0.35562446578E+02  0.27422617504E+02  0.58949568338E+02  0.74106269402E+02  0.00000000000E+00 0. -1.
</event>
<event>
 7    1  0.6315518E-006  0.1022393E+03  0.7818608E-02  0.1299537E+00
          2   -1    0    0  502    0  0.00000000000E+00  0.00000000000E+00  0.42736305030E+03  0.42736305030E+03  0.00000000000E+00 0. -1.
          1   -1    0    0  501    0 -0.00000000000E+00 -0.00000000000E+00 -0.14236294050E+03  0.14236294050E+03  0.00000000000E+00 0. -1.
         25    2    1    2    0    0  0.66092033745E+02  0.56889732846E+02  0.22617688040E+03  0.27273606698E+03  0.12499752948E+03 0.  0.
          2    1    1    2  501    0 -0.10573631011E+03  0.14523541258E+02 -0.81729241545E+02  0.13442756209E+03  0.00000000000E+00 0. -1.
          1    1    1    2  502    0  0.39644276361E+02 -0.71413274104E+02  0.14055247095E+03  0.16256236175E+03  0.00000000000E+00 0. -1.
         22    1    3    3    0    0 -0.36066085624E+02  0.28153225051E+02  0.78927305313E+02  0.91229853321E+02  0.00000000000E+00 0.  1.
         22    1    3    3    0    0  0.10215811937E+03  0.28736507794E+02  0.14724957508E+03  0.18150621365E+03  0.00000000000E+00 0.  1.
</event>
<event>
 7    1  0.6315518E-006  0.1460481E+03  0.7818608E-02  0.1267239E+00
          2   -1    0    0  502    0  0.00000000000E+00  0.00000000000E+00  0.21086409888E+04  0.21086409888E+04  0.00000000000E+00 0. -1.
          1   -1    0    0  501    0 -0.00000000000E+00 -0.00000000000E+00 -0.25221301730E+03  0.25221301730E+03  0.00000000000E+00 0. -1.
         25    2    1    2    0    0 -0.13961619234E+03  0.16585512362E+03  0.46695548523E+03  0.52978663614E+03  0.12500340574E+03 0.  0.
          2    1    1    2  501    0  0.47898195839E+02 -0.61086273945E+02 -0.21085684267E+03  0.22469174024E+03  0.00000000000E+00 0. -1.
          1    1    1    2  502    0  0.91717996502E+02 -0.10476884967E+03  0.16003293289E+04  0.16063756297E+04  0.00000000000E+00 0. -1.
         22    1    3    3    0    0 -0.14982342037E+03  0.98908423260E+02  0.37315491503E+03  0.41409482500E+03  0.00000000000E+00 0. -1.
         22    1    3    3    0    0  0.10207228034E+02  0.66946700355E+02  0.93800570205E+02  0.11569181113E+03  0.00000000000E+00 0. -1.
</event>
<event>
 7    1  0.6315518E-006  0.3948237E+02  0.7818608E-02  0.1598279E+00
          2   -1    0    0  502    0  0.00000000000E+00  0.00000000000E+00  0.41923515923E+03  0.41923515923E+03  0.00000000000E+00 0. -1.
          1   -1    0    0  501    0 -0.00000000000E+00 -0.00000000000E+00 -0.10171225171E+04  0.10171225171E+04  0.00000000000E+00 0. -1.
         25    2    1    2    0    0  0.42370612569E+02 -0.28527274181E+02  0.13360550076E+02  0.13568227317E+03  0.12498840255E+03 0.  0.
          2    1    1    2  501    0 -0.38984577779E+02  0.60116812132E+01 -0.95517817041E+03  0.95599229853E+03  0.00000000000E+00 0. -1.
          1    1    1    2  502    0 -0.33860347896E+01  0.22515592968E+02  0.34393026248E+03  0.34468310462E+03  0.00000000000E+00 0. -1.
         22    1    3    3    0    0  0.48566072803E+02  0.38470074115E+02 -0.13198700714E+02  0.63346789425E+02  0.00000000000E+00 0.  1.
         22    1    3    3    0    0 -0.61954602340E+01 -0.66997348296E+02  0.26559250790E+02  0.72335483746E+02  0.00000000000E+00 0.  1.
</event>
<event>
 7    1  0.6315518E-006  0.9851097E+02  0.7818608E-02  0.1421909E+00
          2   -1    0    0  502    0  0.00000000000E+00  0.00000000000E+00  0.15467755468E+04  0.15467755468E+04  0.00000000000E+00 0. -1.
          1   -1    0    0  501    0 -0.00000000000E+00 -0.00000000000E+00 -0.32995651446E+03  0.32995651446E+03  0.00000000000E+00 0. -1.
         25    2    1    2    0    0  0.10571256471E+03 -0.48761738464E+01  0.59024315207E+03  0.61254453029E+03  0.12499959845E+03 0.  0.
          2    1    1    2  501    0 -0.95587419628E+02 -0.23664437513E+02 -0.31095137693E+03  0.32617130347E+03  0.00000000000E+00 0. -1.
          1    1    1    2  502    0 -0.10125145082E+02  0.28540611359E+02  0.93752725717E+03  0.93801622747E+03  0.00000000000E+00 0. -1.
         22    1    3    3    0    0  0.12029136694E+03 -0.13940005105E+02  0.58010097271E+03  0.59260566589E+03  0.00000000000E+00 0. -1.
         22    1    3    3    0    0 -0.14578802227E+02  0.90638312583E+01  0.10142179357E+02  0.19938864400E+02  0.00000000000E+00 0. -1.
</event>
<event>
 7    1  0.6315518E-006  0.1494458E+03  0.7818608E-02  0.1297115E+00
          2   -1    0    0  502    0  0.00000000000E+00  0.00000000000E+00  0.10343558775E+04  0.10343558775E+04  0.00000000000E+00 0. -1.
          1   -1    0    0  501    0 -0.00000000000E+00 -0.00000000000E+00 -0.25219848985E+03  0.25219848985E+03  0.00000000000E+00 0. -1.
         25    2    1    2    0    0  0.13390416777E+03  0.77899534235E+02  0.12264206388E+03  0.23380439607E+03  0.12499902483E+03 0.  0.
          2    1    1    2  501    0 -0.92983049689E+02 -0.11778525016E+03 -0.16685290316E+03  0.22440834204E+03  0.00000000000E+00 0. -1.
          1    1    1    2  502    0 -0.40921118081E+02  0.39885715923E+02  0.82636822694E+03  0.82834162925E+03  0.00000000000E+00 0. -1.
         22    1    3    3    0    0  0.79063739877E+02  0.91874223988E+02  0.12881426411E+03  0.17687583960E+03  0.00000000000E+00 0. -1.
         22    1    3    3    0    0  0.54840427893E+02 -0.13974689753E+02 -0.61722002358E+01  0.56928556463E+02  0.00000000000E+00 0. -1.
</event>
<event>
 7    1  0.6315518E-006  0.1778326E+03  0.7818608E-02  0.1373969E+00
          2   -1    0    0  502    0  0.00000000000E+00  0.00000000000E+00  0.27928896672E+04  0.27928896672E+04  0.00000000000E+00 0. -1.
          1   -1    0    0  501    0 -0.00000000000E+00 -0.00000000000E+00 -0.54461814028E+03  0.54461814028E+03  0.00000000000E+00 0. -1.
         25    2    1    2    0    0  0.17685879544E+03  0.66387873972E+02  0.20745521391E+03  0.30716252145E+03  0.12499906187E+03 0.  0.
          2    1    1    2  501    0 -0.47603966292E+01 -0.24085518704E+02 -0.49136095546E+03  0.49197394457E+03  0.00000000000E+00 0. -1.
          1    1    1    2  502    0 -0.17209839881E+03 -0.42302355268E+02  0.25321772684E+04  0.25383713414E+04  0.00000000000E+00 0. -1.
         22    1    3    3    0    0  0.61450868970E+02  0.60503448311E+02  0.16095110633E+03  0.18259828911E+03  0.00000000000E+00 0.  1.
         22    1    3    3    0    0  0.11540792647E+03  0.58844256604E+01  0.46504107582E+02  0.12456423235E+03  0.00000000000E+00 0.  1.
</event>
<event>
 7    1  0.6315518E-006  0.8264323E+02  0.7818608E-02  0.1388365E+00
          2   -1    0    0  502    0  0.00000000000E+00  0.00000000000E+00  0.14393795519E+04  0.14393795519E+04  0.00000000000E+00 0. -1.
          1   -1    0    0  501    0 -0.00000000000E+00 -0.00000000000E+00 -0.34549605641E+03  0.34549605641E+03  0.00000000000E+00 0. -1.
         25    2    1    2    0    0  0.55027757910E+02 -0.40780120799E+02  0.21072201518E+03  0.25439941283E+03  0.12499688464E+03 0.  0.
          2    1    1    2  501    0 -0.26697819326E+02 -0.38665559210E+02 -0.32046834763E+03  0.32389467556E+03  0.00000000000E+00 0. -1.
          1    1    1    2  502    0 -0.28329938583E+02  0.79445680009E+02  0.12036298280E+04  0.12065815199E+04  0.00000000000E+00 0. -1.
         22    1    3    3    0    0  0.54726322756E+02 -0.44034240286E+02  0.34697851273E+02  0.78344914340E+02  0.00000000000E+00 0.  1.
         22    1    3    3    0    0  0.30143515349E+00  0.32541194865E+01  0.17602416391E+03  0.17605449849E+03  0.00000000000E+00 0.  1.
</event>
<event>
 7    1  0.6315518E-006  0.5351150E+02  0.7818608E-02  0.1532823E+00
          2   -1    0    0  502    0  0.00000000000E+00  0.00000000000E+00  0.97947268044E+03  0.97947268044E+03  0.00000000000E+00 0. -1.
          1   -1    0    0  501    0 -0.00000000000E+00 -0.00000000000E+00 -0.38481669052E+03  0.38481669052E+03  0.00000000000E+00 0. -1.
         25    2    1    2    0    0  0.28087131251E+02  0.61672464538E+02  0.66434831432E+02  0.15694450681E+03  0.12500244624E+03 0.  0.
          2    1    1    2  501    0 -0.23894945814E+02 -0.85119635234E+01 -0.33826732536E+03  0.33921704758E+03  0.00000000000E+00 0. -1.
          1    1    1    2  502    0 -0.41921854367E+01 -0.53160501014E+02  0.86648848384E+03  0.86812781658E+03  0.00000000000E+00 0. -1.
         22    1    3    3    0    0  0.42289902845E+02  0.68066916110E+02 -0.83375096330E+01  0.80567083963E+02  0.00000000000E+00 0. -1.
         22    1    3    3    0    0 -0.14202771594E+02 -0.63944515720E+01  0.74772341065E+02  0.76377422844E+02  0.00000000000E+00 0. -1.
</event>
<event>
 7    1  0.6315518E-006  0.8625150E+02  0.7818608E-02  0.1323002E+00
          2   -1    0    0  502    0  0.00000000000E+00  0.00000000000E+00  0.11580868144E+04  0.11580868144E+04  0.00000000000E+00 0. -1.
          1   -1    0    0  501    0 -0.00000000000E+00 -0.00000000000E+00 -0.10322700477E+04  0.10322700477E+04  0.00000000000E+00 0. -1.
         25    2    1    2    0    0  0.12582814054E+03 -0.62327247851E+02  0.12884657016E+02  0.18843522442E+03  0.12499765053E+03 0.  0.
          2    1    1    2  501    0 -0.40426519572E+02  0.67036452814E+02 -0.94113746097E+03  0.94438758459E+03  0.00000000000E+00 0. -1.
          1    1    1    2  502    0 -0.85401620968E+02 -0.47092049628E+01  0.10540695707E+04  0.10575340531E+04  0.00000000000E+00 0. -1.
         22    1    3    3    0    0  0.89241102915E+02  0.79865926985E-01 -0.41021736576E+02  0.98217939806E+02  0.00000000000E+00 0.  1.
         22    1    3    3    0    0  0.36587037625E+02 -0.62407113778E+02  0.53906393592E+02  0.90217284610E+02  0.00000000000E+00 0.  1.
</event>
<event>
 7    1  0.6315518E-006  0.3177955E+02  0.7818608E-02  0.1624578E+00
          2   -1    0    0  502    0  0.00000000000E+00  0.00000000000E+00  0.97648333085E+03  0.97648333085E+03  0.00000000000E+00 0. -1.
          1   -1    0    0  501    0 -0.00000000000E+00 -0.00000000000E+00 -0.13386473821E+04  0.13386473821E+04  0.00000000000E+00 0. -1.
         25    2    1    2    0    0  0.22409318864E+02  0.30674437221E+02 -0.14873192346E+03  0.19796765150E+03  0.12500762903E+03 0.  0.
          2    1    1    2  501    0  0.83607013718E+01 -0.22713430823E+02 -0.11649065409E+04  0.11651579508E+04  0.00000000000E+00 0. -1.
          1    1    1    2  502    0 -0.30770020236E+02 -0.79610063988E+01  0.95147441315E+03  0.95200511062E+03  0.00000000000E+00 0. -1.
         22    1    3    3    0    0 -0.69873843989E+01 -0.32872601131E+02 -0.11582709641E+03  0.12060409491E+03  0.00000000000E+00 0. -1.
         22    1    3    3    0    0  0.29396703263E+02  0.63547038352E+02 -0.32904827048E+02  0.77363556595E+02  0.00000000000E+00 0. -1.
</event>
<event>
 7    1  0.6315518E-006  0.1069683E+03  0.7818608E-02  0.1289538E+00
          2   -1    0    0  502    0  0.00000000000E+00  0.00000000000E+00  0.15763061570E+04  0.15763061570E+04  0.00000000000E+00 0. -1.
          1   -1    0    0  501    0 -0.00000000000E+00 -0.00000000000E+00 -0.11613196937E+03  0.11613196937E+03  0.00000000000E+00 0. -1.
         25    2    1    2    0    0  0.53480235542E+02  0.62784893128E+02  0.35715868887E+03  0.38728528005E+03  0.12500192284E+03 0.  0.
          2    1    1    2  501    0  0.62561909428E+02 -0.58533221024E+02 -0.79543002484E+02  0.11690688482E+03  0.00000000000E+00 0. -1.
          1    1    1    2  502    0 -0.11604214497E+03 -0.42516721043E+01  0.11825585012E+04  0.11882459615E+04  0.00000000000E+00 0. -1.
         22    1    3    3    0    0  0.33457889435E+02  0.89989973786E+02  0.33076658209E+03  0.34441857902E+03  0.00000000000E+00 0. -1.
         22    1    3    3    0    0  0.20022346107E+02 -0.27205080658E+02  0.26392106779E+02  0.42866701033E+02  0.00000000000E+00 0. -1.
</event>
<event>
 7    1  0.6315518E-006  0.1824850E+03  0.7818608E-02  0.1196686E+00
          2   -1    0    0  502    0  0.00000000000E+00  0.00000000000E+00  0.15926233816E+04  0.15926233816E+04  0.00000000000E+00 0. -1.
          1   -1    0    0  501    0 -0.00000000000E+00 -0.00000000000E+00 -0.46027181228E+03  0.46027181228E+03  0.00000000000E+00 0. -1.
         25    2    1    2    0    0  0.63126623810E+02 -0.14739669609E+03  0.52406630616E+03  0.56212226994E+03  0.12500078586E+03 0.  0.
          2    1    1    2  501    0  0.62605348168E+02  0.17385935610E+03 -0.41771282775E+03  0.45676089127E+03  0.00000000000E+00 0. -1.
          1    1    1    2  502    0 -0.12573197198E+03 -0.26462660018E+02  0.10259980909E+04  0.10340120326E+04  0.00000000000E+00 0. -1.
         22    1    3    3    0    0  0.11922785523E+02 -0.14537785616E+01 -0.33714819889E+01  0.12475302704E+02  0.00000000000E+00 0.  1.
         22    1    3    3    0    0  0.51203838286E+02 -0.14594291752E+03  0.52743778815E+03  0.54964696724E+03  0.00000000000E+00 0.  1.
</event>
<event>
 7    1  0.6315518E-006  0.6219352E+02  0.7818608E-02  0.1502229E+00
          2   -1    0    0  502    0  0.00000000000E+00  0.00000000000E+00  0.84388037848E+03  0.84388037848E+03  0.00000000000E+00 0. -1.
          1   -1    0    0  501    0 -0.00000000000E+00 -0.00000000000E+00 -0.26642840413E+02  0.26642840413E+02  0.00000000000E+00 0. -1.
         25    2    1    2    0    0  0.66941770993E+02  0.51385783028E+02  0.50829486887E+03  0.53019865395E+03  0.12500095812E+03 0.  0.
          2    1    1    2  501    0 -0.52247038991E+02 -0.28976112503E+02  0.44420107520E+02  0.74448063314E+02  0.00000000000E+00 0. -1.
          1    1    1    2  502    0 -0.14694732002E+02 -0.22409670525E+02  0.26452256167E+03  0.26587650162E+03  0.00000000000E+00 0. -1.
         22    1    3    3    0    0  0.66055457899E+02  0.88817908528E+01  0.46415134449E+03  0.46891223094E+03  0.00000000000E+00 0.  1.
         22    1    3    3    0    0  0.88631309394E+00  0.42503992175E+02  0.44143524380E+02  0.61286423019E+02  0.00000000000E+00 0.  1.
</event>
<event>
 7    1  0.6315518E-006  0.5846858E+02  0.7818608E-02  0.1448061E+00
          2   -1    0    0  502    0  0.00000000000E+00  0.00000000000E+00  0.16346145560E+03  0.16346145560E+03  0.00000000000E+00 0. -1.
          1   -1    0    0  501    0 -0.00000000000E+00 -0.00000000000E+00 -0.34360441118E+04  0.34360441118E+04  0.00000000000E+00 0. -1.
         25    2    1    2    0    0 -0.37592835459E+02 -0.86324486326E+02 -0.50890895124E+03  0.53242706375E+03  0.12500047740E+03 0.  0.
          2    1    1    2  501    0  0.30613318187E+02  0.28616984513E+02 -0.29096514291E+04  0.29099531862E+04  0.00000000000E+00 0. -1.
          1    1    1    2  502    0  0.69795172720E+01  0.57707501813E+02  0.14597772415E+03  0.15712531742E+03  0.00000000000E+00 0. -1.
         22    1    3    3    0    0  0.20527911781E+02  0.11915646955E+02 -0.22771366531E+03  0.22894735459E+03  0.00000000000E+00 0. -1.
         22    1    3    3    0    0 -0.58120747240E+02 -0.98240133281E+02 -0.28119528593E+03  0.30347970917E+03  0.00000000000E+00 0. -1.
</event>
<event>
 7    1  0.6315518E-006  0.8283624E+02  0.7818608E-02  0.1481464E+00
          2   -1    0    0  502    0  0.00000000000E+00  0.00000000000E+00  0.23208116240E+04  0.23208116240E+04  0.00000000000E+00 0. -1.
          1   -1    0    0  501    0 -0.00000000000E+00 -0.00000000000E+00 -0.29023756218E+03  0.29023756218E+03  0.00000000000E+00 0. -1.
         25    2    1    2    0    0 -0.43846298748E+02 -0.50929809144E+02  0.42595164435E+02  0.14815283365E+03  0.12497428020E+03 0.  0.
          2    1    1    2  501    0  0.52353861938E+01 -0.22645607962E+02 -0.23611230536E+03  0.23725356388E+03  0.00000000000E+00 0. -1.
          1    1    1    2  502    0  0.38610912554E+02  0.73575417106E+02  0.22240912027E+04  0.22256427886E+04  0.00000000000E+00 0. -1.
         22    1    3    3    0    0 -0.25164772565E+02 -0.89364789941E+02  0.48940004844E+02  0.10494977624E+03  0.00000000000E+00 0.  1.
         22    1    3    3    0    0 -0.18681526182E+02  0.38434980797E+02 -0.63448404089E+01  0.43203057405E+02  0.00000000000E+00 0.  1.
</event>
<event>
 7    1  0.6315518E-006  0.7925958E+02  0.7818608E-02  0.1358836E+00
          2   -1    0    0  502    0  0.00000000000E+00  0.00000000000E+00  0.14997403171E+04  0.14997403171E+04  0.00000000000E+00 0. -1.
          1   -1    0    0  501    0 -0.00000000000E+00 -0.00000000000E+00 -0.40915070831E+02  0.40915070831E+02  0.00000000000E+00 0. -1.
         25    2    1    2    0    0 -0.32740813206E+02 -0.35033168611E+02  0.41220602372E+03  0.43340260204E+03  0.12499890286E+03 0.  0.
          2    1    1    2  501    0  0.35079290987E+02 -0.51702271454E+02  0.57169724935E+01  0.62740459866E+02  0.00000000000E+00 0. -1.
          1    1    1    2  502    0 -0.23384777809E+01  0.86735440065E+02  0.10409022501E+04  0.10445123260E+04  0.00000000000E+00 0. -1.
         22    1    3    3    0    0  0.14819407064E+02  0.39638108445E+02  0.93534601427E+02  0.10266214556E+03  0.00000000000E+00 0.  1.
         22    1    3    3    0    0 -0.47560220270E+02 -0.74671277055E+02  0.31867142229E+03  0.33074045648E+03  0.00000000000E+00 0.  1.
</event>
<event>
 7    1  0.6315518E-006  0.6174734E+02  0.7818608E-02  0.1495432E+00
          2   -1    0    0  502    0  0.00000000000E+00  0.00000000000E+00  0.12726908154E+04  0.12726908154E+04  0.00000000000E+00 0. -1.
          1   -1    0    0  501    0 -0.00000000000E+00 -0.00000000000E+00 -0.90713967066E+02  0.90713967066E+02  0.00000000000E+00 0. -1.
         25    2    1    2    0    0  0.57001535746E+02  0.35187292754E+02 -0.47468882914E+01  0.14188231915E+03  0.12498295440E+03 0.  0.
          2    1    1    2  501    0 -0.59927168744E+02 -0.70549334040E+01  0.35617620825E+02  0.70068912880E+02  0.00000000000E+00 0. -1.
          1    1    1    2  502    0  0.29256329977E+01 -0.28132359350E+02  0.11511061158E+04  0.11514535504E+04  0.00000000000E+00 0. -1.
         22    1    3    3    0    0  0.30541912815E+02  0.34696698349E+02 -0.62860683505E+02  0.78026500918E+02  0.00000000000E+00 0. -1.
         22    1    3    3    0    0  0.26459622931E+02  0.49059440492E+00  0.58113795213E+02  0.63855818236E+02  0.00000000000E+00 0. -1.
</event>
<event>
 7    1  0.6315518E-006  0.7500300E+02  0.7818608E-02  0.1439073E+00
          2   -1    0    0  502    0  0.00000000000E+00  0.00000000000E+00  0.52890648039E+03  0.52890648039E+03  0.00000000000E+00 0. -1.
          1   -1    0    0  501    0 -0.00000000000E+00 -0.00000000000E+00 -0.46762208788E+02  0.46762208788E+02  0.00000000000E+00 0. -1.
         25    2    1    2    0    0 -0.52796794053E+02  0.19522649106E+01  0.22891262739E+03  0.26611898027E+03  0.12500803127E+03 0.  0.
          2    1    1    2  501    0 -0.26790588556E+02  0.22406543729E+02 -0.76149874724E+01  0.35746004969E+02  0.00000000000E+00 0. -1.
          1    1    1    2  502    0  0.79587382609E+02 -0.24358808640E+02  0.26084663168E+03  0.27380370394E+03  0.00000000000E+00 0. -1.
         22    1    3    3    0    0  0.28868032310E+02 -0.25296080881E+02  0.27916008492E+02  0.47461126488E+02  0.00000000000E+00 0.  1.
         22    1    3    3    0    0 -0.81664826363E+02  0.27248345791E+02  0.20099661890E+03  0.21865785379E+03  0.00000000000E+00 0.  1.
</event>
<event>
 7    1  0.6315518E-006  0.1126106E+03  0.7818608E-02  0.1321543E+00
          2   -1    0    0  502    0  0.00000000000E+00  0.00000000000E+00  0.91986942183E+03  0.91986942183E+03  0.00000000000E+00 0. -1.
          1   -1    0    0  501    0 -0.00000000000E+00 -0.00000000000E+00 -0.18244187964E+03  0.18244187964E+03  0.00000000000E+00 0. -1.
         25    2    1    2    0    0  0.16330517666E+03  0.44060177528E+02  0.14158226962E+03  0.25353647814E+03  0.12500130682E+03 0.  0.
          2    1    1    2  501    0 -0.58070174352E+02 -0.17818793660E+02 -0.11481140755E+03  0.12988962184E+03  0.00000000000E+00 0. -1.
          1    1    1    2  502    0 -0.10523500231E+03 -0.26241383868E+02  0.71065668012E+03  0.71888520150E+03  0.00000000000E+00 0. -1.
         22    1    3    3    0    0  0.87886766787E+02 -0.33404964415E+02  0.31288248079E+02  0.99090513631E+02  0.00000000000E+00 0. -1.
         22    1    3    3    0    0  0.75418409872E+02  0.77465141943E+02  0.11029402154E+03  0.15444596450E+03  0.00000000000E+00 0. -1.
</event>
<event>
 7    1  0.6315518E-006  0.6731628E+02  0.7818608E-02  0.1524974E+00
          2   -1    0    0  502    0  0.00000000000E+00  0.00000000000E+00  0.90466361384E+03  0.90466361384E+03  0.00000000000E+00 0. -1.
          1   -1    0    0  501    0 -0.00000000000E+00 -0.00000000000E+00 -0.53151629500E+02  0.53151629500E+02  0.00000000000E+00 0. -1.
         25    2    1    2    0    0  0.38107557722E+02 -0.41300019820E+02  0.12306656818E+03  0.18419584245E+03  0.12499940231E+03 0.  0.
          2    1    1    2  501    0  0.20247796120E+02  0.64065386050E+01 -0.15677296780E+02  0.26396867598E+02  0.00000000000E+00 0. -1.
          1    1    1    2  502    0 -0.58355353843E+02  0.34893481215E+02  0.74412271294E+03  0.74722253330E+03  0.00000000000E+00 0. -1.
         22    1    3    3    0    0  0.27412529811E+02  0.33277111829E+02  0.94049915965E+02  0.10346110214E+03  0.00000000000E+00 0.  1.
         22    1    3    3    0    0  0.10695027911E+02 -0.74577131650E+02  0.29016652216E+02  0.80734740310E+02  0.00000000000E+00 0.  1.
</event>
<event>
 7    1  0.6315518E-006  0.4946441E+02  0.7818608E-02  0.1487088E+00
          2   -1    0    0  502    0  0.00000000000E+00  0.00000000000E+00  0.22277095898E+04  0.22277095898E+04  0.00000000000E+00 0. -1.
          1   -1    0    0  501    0 -0.00000000000E+00 -0.00000000000E+00 -0.58865585310E+02  0.58865585310E+02  0.00000000000E+00 0. -1.
         25    2    1    2    0    0  0.32436776849E+02  0.49539831635E+02  0.48072994655E+03  0.50022889840E+03  0.12498531861E+03 0.  0.
          2    1    1    2  501    0  0.14760583279E+02 -0.34382528988E+02 -0.41582978621E+02  0.55939049236E+02  0.00000000000E+00 0. -1.
          1    1    1    2  502    0 -0.47197360128E+02 -0.15157302646E+02  0.17296970366E+04  0.17304072275E+04  0.00000000000E+00 0. -1.
         22    1    3    3    0    0 -0.39241745491E+02 -0.21473351709E+01  0.71727666474E+02  0.81788653096E+02  0.00000000000E+00 0. -1.
         22    1    3    3    0    0  0.71678522339E+02  0.51687166806E+02  0.40900228008E+03  0.41844024530E+03  0.00000000000E+00 0. -1.
</event>
<event>
 7    1  0.6315518E-006  0.4115841E+02  0.7818608E-02  0.1518513E+00
          2   -1    0    0  502    0  0.00000000000E+00  0.00000000000E+00  0.90779538054E+02  0.90779538054E+02  0.00000000000E+00 0. -1.
          1   -1    0    0  501    0 -0.00000000000E+00 -0.00000000000E+00 -0.19248678854E+04  0.19248678854E+04  0.00000000000E+00 0. -1.
         25    2    1    2    0    0  0.14163778516E+02 -0.71245376597E+01 -0.41022825924E+03  0.42914206869E+03  0.12499727508E+03 0.  0.
          2    1    1    2  501    0 -0.41423665410E+01  0.41976291520E+02 -0.15008288658E+04  0.15014214774E+04  0.00000000000E+00 0. -1.
          1    1    1    2  502    0 -0.10021411975E+02 -0.34851753860E+02  0.76968777727E+02  0.85083877379E+02  0.00000000000E+00 0. -1.
         22    1    3    3    0    0  0.76788815748E+00 -0.64196240926E+02 -0.16614616069E+03  0.17811876294E+03  0.00000000000E+00 0. -1.
         22    1    3    3    0    0  0.13395890358E+02  0.57071703267E+02 -0.24408209856E+03  0.25102330575E+03  0.00000000000E+00 0. -1.
</event>
<event>
 7    1  0.6315518E-006  0.1314984E+03  0.7818608E-02  0.1387825E+00
          2   -1    0    0  502    0  0.00000000000E+00  0.00000000000E+00  0.12331626269E+03  0.12331626269E+03  0.00000000000E+00 0. -1.
          1   -1    0    0  501    0 -0.00000000000E+00 -0.00000000000E+00 -0.19953388311E+04  0.19953388311E+04  0.00000000000E+00 0. -1.
         25    2    1    2    0    0 -0.22552200005E+00  0.11860538378E+03 -0.20410651960E+03  0.26711760417E+03  0.12500022076E+03 0.  0.
          2    1    1    2  501    0  0.27693599404E+02 -0.12979274220E+03 -0.17547585193E+04  0.17597700283E+04  0.00000000000E+00 0. -1.
          1    1    1    2  502    0 -0.27468077404E+02  0.11187358418E+02  0.86842470535E+02  0.91767461299E+02  0.00000000000E+00 0. -1.
         22    1    3    3    0    0  0.77217973175E+01 -0.26118822202E+02 -0.28521560029E+02  0.39437271882E+02  0.00000000000E+00 0. -1.
         22    1    3    3    0    0 -0.79473193175E+01  0.14472420598E+03 -0.17558495957E+03  0.22768033229E+03  0.00000000000E+00 0. -1.
</event>
<event>
 7    1  0.6315518E-006  0.1934656E+03  0.7818608E-02  0.1271080E+00
          2   -1    0    0  502    0  0.00000000000E+00  0.00000000000E+00  0.13808750849E+04  0.13808750849E+04  0.00000000000E+00 0. -1.
          1   -1    0    0  501    0 -0.00000000000E+00 -0.00000000000E+00 -0.17201418403E+04  0.17201418403E+04  0.00000000000E+00 0. -1.
         25    2    1    2    0    0 -0.29104575810E+02 -0.17272639755E+03 -0.24503653762E+03  0.32609938112E+03  0.12496566271E+03 0.  0.
          2    1    1    2  501    0 -0.56440798359E+02 -0.14964044744E+01 -0.14269862055E+04  0.14281027392E+04  0.00000000000E+00 0. -1.
          1    1    1    2  502    0  0.85545374169E+02  0.17422280203E+03  0.13327559878E+04  0.13468148049E+04  0.00000000000E+00 0. -1.
         22    1    3    3    0    0 -0.48423894311E+02 -0.65267785118E+02 -0.33215249580E+02  0.87795273900E+02  0.00000000000E+00 0. -1.
         22    1    3    3    0    0  0.19319318501E+02 -0.10745861243E+03 -0.21182128804E+03  0.23830410722E+03  0.00000000000E+00 0. -1.
</event>
<event>
 7    1  0.6315518E-006  0.6988745E+02  0.7818608E-02  0.1383892E+00
          2   -1    0    0  502    0  0.00000000000E+00  0.00000000000E+00  0.25322832614E+04  0.25322832614E+04  0.00000000000E+00 0. -1.
          1   -1    0    0  501    0 -0.00000000000E+00 -0.00000000000E+00 -0.17407955452E+02  0.17407955452E+02  0.00000000000E+00 0. -1.
         25    2    1    2    0    0 -0.80818257053E+02  0.32796316756E+02  0.18094872372E+04  0.18158951463E+04  0.12499572568E+03 0.  0.
          2    1    1    2  501    0  0.50542860292E+02  0.27643293876E+02  0.54162696821E+02  0.79071677292E+02  0.00000000000E+00 0. -1.
          1    1    1    2  502    0  0.30275396760E+02 -0.60439610632E+02  0.65122537190E+03  0.65472439330E+03  0.00000000000E+00 0. -1.
         22    1    3    3    0    0  0.42748396104E+01 -0.18923390311E+02  0.10158545972E+04  0.10160398277E+04  0.00000000000E+00 0. -1.
         22    1    3    3    0    0 -0.85093096663E+02  0.51719707066E+02  0.79363264006E+03  0.79985531852E+03  0.00000000000E+00 0. -1.
</event>
<event>
 7    1  0.6315518E-006  0.8740050E+02  0.7818608E-02  0.1378723E+00
          2   -1    0    0  502    0  0.00000000000E+00  0.00000000000E+00  0.95943884240E+03  0.95943884240E+03  0.00000000000E+00 0. -1.
          1   -1    0    0  501    0 -0.00000000000E+00 -0.00000000000E+00 -0.19619902194E+04  0.19619902194E+04  0.00000000000E+00 0. -1.
         25    2    1    2    0    0  0.44851613442E+02 -0.12635757333E+02  0.17136302951E+03  0.21715894142E+03  0.12498555262E+03 0.  0.
          2    1    1    2  501    0  0.36745516656E+02 -0.30952553861E+02 -0.19359970517E+04  0.19365931110E+04  0.00000000000E+00 0. -1.
          1    1    1    2  502    0 -0.81597130098E+02  0.43588311195E+02  0.76208264520E+03  0.76767700931E+03  0.00000000000E+00 0. -1.
         22    1    3    3    0    0  0.60422363693E+02 -0.46968737461E+02  0.53402245230E+02  0.93320545051E+02  0.00000000000E+00 0.  1.
         22    1    3    3    0    0 -0.15570750251E+02  0.34332980128E+02  0.11796078428E+03  0.12383839637E+03  0.00000000000E+00 0.  1.
</event>
<event>
 7    1  0.6315518E-006  0.9302405E+02  0.7818608E-02  0.1470586E+00
          2   -1    0    0  502    0  0.00000000000E+00  0.00000000000E+00  0.14606663594E+04  0.14606663594E+04  0.00000000000E+00 0. -1.
          1   -1    0    0  501    0 -0.00000000000E+00 -0.00000000000E+00 -0.38871872525E+03  0.38871872525E+03  0.00000000000E+00 0. -1.
         25    2    1    2    0    0 -0.81797650222E+02  0.29811960638E+02  0.13808956974E+03  0.20560609855E+03  0.12500211963E+03 0.  0.
          2    1    1    2  501    0 -0.11065016331E+02 -0.19430223754E+02 -0.35291252269E+03  0.35362015900E+03  0.00000000000E+00 0. -1.
          1    1    1    2  502    0  0.92862666553E+02 -0.10381736884E+02  0.12867705871E+04  0.12901588271E+04  0.00000000000E+00 0. -1.
         22    1    3    3    0    0 -0.46392115419E+02  0.16531769047E+02 -0.12112434046E+02  0.50717243807E+02  0.00000000000E+00 0.  1.
         22    1    3    3    0    0 -0.35405534803E+02  0.13280191592E+02  0.15020200378E+03  0.15488885475E+03  0.00000000000E+00 0.  1.
</event>
<event>
 7    1  0.6315518E-006  0.1241002E+03  0.7818608E-02  0.1298765E+00
          2   -1    0    0  502    0  0.00000000000E+00  0.00000000000E+00  0.12588361482E+04  0.12588361482E+04  0.00000000000E+00 0. -1.
          1   -1    0    0  501    0 -0.00000000000E+00 -0.00000000000E+00 -0.46634662045E+03  0.46634662045E+03  0.00000000000E+00 0. -1.
         25    2    1    2    0    0  0.17019716272E+03  0.43586620576E+02  0.30065399236E+02  0.21770604253E+03  0.12500050013E+03 0.  0.
          2    1    1    2  501    0 -0.12046156296E+03  0.24505611954E+01 -0.36173676271E+03  0.38127480758E+03  0.00000000000E+00 0. -1.
          1    1    1    2  502    0 -0.49735599757E+02 -0.46037181771E+02  0.11241608912E+04  0.11262019185E+04  0.00000000000E+00 0. -1.
         22    1    3    3    0    0  0.63067474706E+02 -0.37216591917E+02 -0.17583346626E+02  0.75311056016E+02  0.00000000000E+00 0. -1.
         22    1    3    3    0    0  0.10712968801E+03  0.80803212493E+02  0.47648745862E+02  0.14239498651E+03  0.00000000000E+00 0. -1.
</event>
<event>
 7    1  0.6315518E-006  0.7491416E+02  0.7818608E-02  0.1427286E+00
          2   -1    0    0  502    0  0.00000000000E+00  0.00000000000E+00  0.20768091608E+04  0.20768091608E+04  0.00000000000E+00 0. -1.
          1   -1    0    0  501    0 -0.00000000000E+00 -0.00000000000E+00 -0.41630405356E+04  0.41630405356E+04  0.00000000000E+00 0. -1.
         25    2    1    2    0    0  0.70352643722E+02  0.35043085893E+02 -0.37220927690E+03  0.40042724409E+03  0.12499887862E+03 0.  0.
          2    1    1    2  501    0 -0.42879550253E+02 -0.61612920847E+02 -0.37761721891E+04  0.37769182158E+04  0.00000000000E+00 0. -1.
          1    1    1    2  502    0 -0.27473093469E+02  0.26569834954E+02  0.20621500912E+04  0.20625042365E+04  0.00000000000E+00 0. -1.
         22    1    3    3    0    0  0.61971744236E+02 -0.37049416760E+02 -0.22496076561E+03  0.23626362909E+03  0.00000000000E+00 0. -1.
         22    1    3    3    0    0  0.83808994861E+01  0.72092502653E+02 -0.14724851129E+03  0.16416361501E+03  0.00000000000E+00 0. -1.
</event>
<event>
 7    1  0.6315518E-006  0.4619746E+02  0.7818608E-02  0.1537529E+00
          2   -1    0    0  502    0  0.00000000000E+00  0.00000000000E+00  0.80783229973E+03  0.80783229973E+03  0.00000000000E+00 0. -1.
          1   -1    0    0  501    0 -0.00000000000E+00 -0.00000000000E+00 -0.63843684538E+03  0.63843684538E+03  0.00000000000E+00 0. -1.
         25    2    1    2    0    0  0.14052575502E+02 -0.59964113875E+02  0.24284263741E+03  0.27998178063E+03  0.12499632437E+03 0.  0.
          2    1    1    2  501    0  0.14673299750E+02  0.24420393220E+02 -0.61858328916E+03  0.61923900633E+03  0.00000000000E+00 0. -1.
          1    1    1    2  502    0 -0.28725875251E+02  0.35543720655E+02  0.54513610609E+03  0.54704835815E+03  0.00000000000E+00 0. -1.
         22    1    3    3    0    0  0.13806125733E+02 -0.68997050288E+02  0.25517178625E+03  0.26469575470E+03  0.00000000000E+00 0.  1.
         22    1    3    3    0    0  0.24644976819E+00  0.90329364137E+01 -0.12329148835E+02  0.15286025930E+02  0.00000000000E+00 0.  1.
</event>
<event>
 7    1  0.6315518E-006  0.4925111E+02  0.7818608E-02  0.1463190E+00
          2   -1    0    0  502    0  0.00000000000E+00  0.00000000000E+00  0.15981083719E+04  0.15981083719E+04  0.00000000000E+00 0. -1.
          1   -1    0    0  501    0 -0.00000000000E+00 -0.00000000000E+00 -0.99673094942E+03  0.99673094942E+03  0.00000000000E+00 0. -1.
         25    2    1    2    0    0 -0.34572477238E+01 -0.84780376542E+01  0.44553368150E+03  0.46282570730E+03  0.12499417706E+03 0.  0.
          2    1    1    2  501    0 -0.25953876225E+02  0.41927634916E+02 -0.98703565066E+03  0.98826661683E+03  0.00000000000E+00 0. -1.
          1    1    1    2  502    0  0.29411123949E+02 -0.33449597261E+02  0.11428793917E+04  0.11437469972E+04  0.00000000000E+00 0. -1.
         22    1    3    3    0    0 -0.41998299358E+02 -0.38900932060E+02  0.35723668700E+03  0.36179440322E+03  0.00000000000E+00 0.  1.
         22    1    3    3    0    0  0.38541051634E+02  0.30422894405E+02  0.88296994507E+02  0.10103130408E+03  0.00000000000E+00 0.  1.
</event>
<event>
 7    1  0.6315518E-006  0.1138253E+03  0.7818608E-02  0.1350221E+00
          2   -1    0    0  502    0  0.00000000000E+00  0.00000000000E+00  0.75860168171E+03  0.75860168171E+03  0.00000000000E+00 0. -1.
          1   -1    0    0  501    0 -0.00000000000E+00 -0.00000000000E+00 -0.85555604166E+03  0.85555604166E+03  0.00000000000E+00 0. -1.
         25    2    1    2    0    0  0.33614003464E+02  0.15640568157E+03  0.30382527958E+03  0.36541859404E+03  0.12501323893E+03 0.  0.
          2    1    1    2  501    0 -0.21137745379E+02 -0.11129902129E+03 -0.81955944465E+03  0.82735237942E+03  0.00000000000E+00 0. -1.
          1    1    1    2  502    0 -0.12476258084E+02 -0.45106660278E+02  0.41877980512E+03  0.42138674990E+03  0.00000000000E+00 0. -1.
         22    1    3    3    0    0 -0.55775030415E+00  0.31051768912E+02 -0.39837695229E+01  0.31311241712E+02  0.00000000000E+00 0. -1.
         22    1    3    3    0    0  0.34171753768E+02  0.12535391265E+03  0.30780904910E+03  0.33410735233E+03  0.00000000000E+00 0. -1.
</event>
<event>
 7    1  0.6315518E-006  0.1490510E+03  0.7818608E-02  0.1273817E+00
          2   -1    0    0  502    0  0.00000000000E+00  0.00000000000E+00  0.12059720836E+04  0.12059720836E+04  0.00000000000E+00 0. -1.
          1   -1    0    0  501    0 -0.00000000000E+00 -0.00000000000E+00 -0.77500411707E+03  0.77500411707E+03  0.00000000000E+00 0. -1.
         25    2    1    2    0    0  0.55888892666E+02 -0.17722909031E+03  0.14755296239E+03  0.26819720025E+03  0.12499657089E+03 0.  0.
          2    1    1    2  501    0  0.91608108229E+01  0.14784584954E+03 -0.70570656330E+03  0.72108534111E+03  0.00000000000E+00 0. -1.
          1    1    1    2  502    0 -0.65049703489E+02  0.29383240769E+02  0.98912156742E+03  0.99169365930E+03  0.00000000000E+00 0. -1.
         22    1    3    3    0    0  0.74480264865E+01 -0.17505759284E+03  0.12073988715E+03  0.21278805008E+03  0.00000000000E+00 0.  1.
         22    1    3    3    0    0  0.48440866180E+02 -0.21714974617E+01  0.26813075248E+02  0.55409150162E+02  0.00000000000E+00 0.  1.
</event>
<event>
 7    1  0.6315518E-006  0.1207181E+03  0.7818608E-02  0.1248069E+00
          2   -1    0    0  502    0  0.00000000000E+00  0.00000000000E+00  0.19841369345E+03  0.19841369345E+03  0.00000000000E+00 0. -1.
          1   -1    0    0  501    0 -0.00000000000E+00 -0.00000000000E+00 -0.15640128162E+04  0.15640128162E+04  0.00000000000E+00 0. -1.
         25    2    1    2    0    0  0.54975391977E+02  0.69522098235E+02 -0.77319380702E+02  0.17163538741E+03  0.12499921485E+03 0.  0.
          2    1    1    2  501    0 -0.95040632257E+02  0.61982009739E+02 -0.14055336990E+04  0.14101061912E+04  0.00000000000E+00 0. -1.
          1    1    1    2  502    0  0.40065240280E+02 -0.13150410797E+03  0.11725395697E+03  0.18068493107E+03  0.00000000000E+00 0. -1.
         22    1    3    3    0    0  0.49694899248E+02  0.10552965924E+03 -0.62571567242E+02  0.13236802113E+03  0.00000000000E+00 0. -1.
         22    1    3    3    0    0  0.52804927289E+01 -0.36007561003E+02 -0.14747813460E+02  0.39267366281E+02  0.00000000000E+00 0. -1.
</event>
<event>
 7    1  0.9524666E-006  0.6106126E+02  0.7818608E-02  0.1420619E+00
          2   -1    0    0  502    0  0.00000000000E+00  0.00000000000E+00  0.10963875675E+04  0.10963875675E+04  0.00000000000E+00 0. -1.
          1   -1    0    0  501    0 -0.00000000000E+00 -0.00000000000E+00 -0.13278021039E+04  0.13278021039E+04  0.00000000000E+00 0. -1.
         25    2    1    2    0    0  0.40267156686E+02 -0.53755743727E+02 -0.23468265848E+03  0.27424660565E+03  0.12499650647E+03 0.  0.
          2    1    1    2  501    0 -0.48880117932E+02 -0.67413560873E+01 -0.10719023705E+04  0.10730374662E+04  0.00000000000E+00 0. -1.
          1    1    1    2  502    0  0.86129612457E+01  0.60497099815E+02  0.10751704926E+04  0.10769055996E+04  0.00000000000E+00 0. -1.
         22    1    3    3    0    0  0.77695743367E+02 -0.40227472712E+02 -0.20979353483E+03  0.22730641292E+03  0.00000000000E+00 0. -1.
         22    1    3    3    0    0 -0.37428586680E+02 -0.13528271015E+02 -0.24889123644E+02  0.46940192728E+02  0.00000000000E+00 0. -1.
</event>
<event>
 7    1  0.6315518E-006  0.7015868E+02  0.7818608E-02  0.1518081E+00
          2   -1    0    0  502    0  0.00000000000E+00  0.00000000000E+00  0.21603590490E+04  0.21603590490E+04  0.00000000000E+00 0. -1.
          1   -1    0    0  501    0 -0.00000000000E+00 -0.00000000000E+00 -0.12401652723E+02  0.12401652723E+02  0.00000000000E+00 0. -1.
         25    2    1    2    0    0  0.48992817721E+02 -0.46966295898E+02  0.94190401411E+03  0.95258986393E+03  0.12505258064E+03 0.  0.
          2    1    1    2  501    0 -0.63730779679E+02  0.31538577015E+02  0.17497553413E+03  0.18887226282E+03  0.00000000000E+00 0. -1.
          1    1    1    2  502    0  0.14737961958E+02  0.15427718883E+02  0.10310778480E+04  0.10312985750E+04  0.00000000000E+00 0. -1.
         22    1    3    3    0    0  0.73135268128E+02  0.15759706465E+02  0.46751315832E+03  0.47346139124E+03  0.00000000000E+00 0.  1.
         22    1    3    3    0    0 -0.24142450407E+02 -0.62726002363E+02  0.47439085579E+03  0.47912847269E+03  0.00000000000E+00 0.  1.
</event>
<event>
 7    1  0.6315518E-006  0.2846784E+03  0.7818608E-02  0.1130294E+00
          2   -1    0    0  502    0  0.00000000000E+00  0.00000000000E+00  0.99664549643E+03  0.99664549643E+03  0.00000000000E+00 0. -1.
          1   -1    0    0  501    0 -0.00000000000E+00 -0.00000000000E+00 -0.29502154697E+03  0.29502154697E+03  0.00000000000E+00 0. -1.
         25    2    1    2    0    0  0.12344404260E+03  0.16177306223E+03  0.12971626627E+03  0.27177382555E+03  0.12500298878E+03 0.  0.
          2    1    1    2  501    0 -0.95774735038E+02 -0.33725268915E+03 -0.66839159030E+02  0.35690285707E+03  0.00000000000E+00 0. -1.
          1    1    1    2  502    0 -0.27669307562E+02  0.17547962692E+03  0.63874684222E+03  0.66299036078E+03  0.00000000000E+00 0. -1.
         22    1    3    3    0    0  0.13830493386E+03  0.93710448595E+02  0.74695862411E+02  0.18300102395E+03  0.00000000000E+00 0. -1.
         22    1    3    3    0    0 -0.14860891257E+02  0.68062613635E+02  0.55020403855E+02  0.88772801602E+02  0.00000000000E+00 0. -1.
</event>
<event>
 7    1  0.1168428E-005  0.5152725E+02  0.7818608E-02  0.1455508E+00
          2   -1    0    0  502    0  0.00000000000E+00  0.00000000000E+00  0.22186843076E+04  0.22186843076E+04  0.00000000000E+00 0. -1.
          1   -1    0    0  501    0 -0.00000000000E+00 -0.00000000000E+00 -0.21678468886E+04  0.21678468886E+04  0.00000000000E+00 0. -1.
         25    2    1    2    0    0 -0.12172534143E+01  0.52769098936E+02 -0.23974275963E+03  0.27548925017E+03  0.12502670377E+03 0.  0.
          2    1    1    2  501    0  0.41029350458E+02 -0.31752865546E+02 -0.19096483162E+04  0.19103529370E+04  0.00000000000E+00 0. -1.
          1    1    1    2  502    0 -0.39812097043E+02 -0.21016233390E+02  0.22002284948E+04  0.22006890091E+04  0.00000000000E+00 0. -1.
         22    1    3    3    0    0  0.37413916866E+02  0.40338687725E+02 -0.22606615629E+03  0.23266481884E+03  0.00000000000E+00 0. -1.
         22    1    3    3    0    0 -0.38631170280E+02  0.12430411211E+02 -0.13676603331E+02  0.42824431330E+02  0.00000000000E+00 0. -1.
</event>
<event>
 7    1  0.6315518E-006  0.8042857E+02  0.7818608E-02  0.1446551E+00
          2   -1    0    0  502    0  0.00000000000E+00  0.00000000000E+00  0.28022340843E+03  0.28022340843E+03  0.00000000000E+00 0. -1.
          1   -1    0    0  501    0 -0.00000000000E+00 -0.00000000000E+00 -0.20401956091E+04  0.20401956091E+04  0.00000000000E+00 0. -1.
         25    2    1    2    0    0 -0.10504196235E+03 -0.24773971787E+02 -0.71471834177E+03  0.73355063327E+03  0.12500663975E+03 0.  0.
          2    1    1    2  501    0  0.75211976126E+02  0.17080782022E+02 -0.13140505960E+04  0.13163121071E+04  0.00000000000E+00 0. -1.
          1    1    1    2  502    0  0.29829986222E+02  0.76931897644E+01  0.26879673708E+03  0.27055627716E+03  0.00000000000E+00 0. -1.
         22    1    3    3    0    0 -0.51737434520E+02 -0.74652994294E+02 -0.34964129335E+03  0.36124626739E+03  0.00000000000E+00 0. -1.
         22    1    3    3    0    0 -0.53304527828E+02  0.49879022507E+02 -0.36507704842E+03  0.37230436588E+03  0.00000000000E+00 0. -1.
</event>
<event>
 7    1  0.6315518E-006  0.1526948E+03  0.7818608E-02  0.1404320E+00
          2   -1    0    0  502    0  0.00000000000E+00  0.00000000000E+00  0.11206002295E+04  0.11206002295E+04  0.00000000000E+00 0. -1.
          1   -1    0    0  501    0 -0.00000000000E+00 -0.00000000000E+00 -0.21034781441E+03  0.21034781441E+03  0.00000000000E+00 0. -1.
         25    2    1    2    0    0 -0.64352495358E+02  0.11749412421E+03  0.14431866715E+03  0.23323628436E+03  0.12500069508E+03 0.  0.
          2    1    1    2  501    0  0.74572130686E+02 -0.13742442604E+03 -0.12887610657E+03  0.20262163358E+03  0.00000000000E+00 0. -1.
          1    1    1    2  502    0 -0.10219635328E+02  0.19930301830E+02  0.89480985449E+03  0.89509012595E+03  0.00000000000E+00 0. -1.
         22    1    3    3    0    0 -0.77305547942E-01 -0.21333865440E+02  0.47809897838E+02  0.52353854892E+02  0.00000000000E+00 0. -1.
         22    1    3    3    0    0 -0.64275189810E+02  0.13882798965E+03  0.96508769307E+02  0.18088242947E+03  0.00000000000E+00 0. -1.
</event>
<event>
 7    1  0.6315518E-006  0.1508826E+03  0.7818608E-02  0.1344883E+00
          2   -1    0    0  502    0  0.00000000000E+00  0.00000000000E+00  0.28364225405E+04  0.28364225405E+04  0.00000000000E+00 0. -1.
          1   -1    0    0  501    0 -0.00000000000E+00 -0.00000000000E+00 -0.44558988299E+03  0.44558988299E+03  0.00000000000E+00 0. -1.
         25    2    1    2    0    0  0.45136544134E+02  0.14327965594E+03  0.58540541759E+03  0.61716874867E+03  0.12502557324E+03 0.  0.
          2    1    1    2  501    0 -0.36066044261E+02  0.80674116590E+01 -0.42633664635E+03  0.42793548428E+03  0.00000000000E+00 0. -1.
          1    1    1    2  502    0 -0.90704998724E+01 -0.15134706760E+03  0.22317638863E+04  0.22369081905E+04  0.00000000000E+00 0. -1.
         22    1    3    3    0    0  0.72699548728E+02  0.14252550255E+03  0.41926775020E+03  0.44875849810E+03  0.00000000000E+00 0.  1.
         22    1    3    3    0    0 -0.27563004595E+02  0.75415339620E+00  0.16613766739E+03  0.16841025057E+03  0.00000000000E+00 0.  1.
</event>
<event>
 7    1  0.6315518E-006  0.8508089E+02  0.7818608E-02  0.1436012E+00
          2   -1    0    0  502    0  0.00000000000E+00  0.00000000000E+00  0.15276962577E+04  0.15276962577E+04  0.00000000000E+00 0. -1.
          1   -1    0    0  501    0 -0.00000000000E+00 -0.00000000000E+00 -0.74822339387E+02  0.74822339387E+02  0.00000000000E+00 0. -1.
         25    2    1    2    0    0  0.38181960522E+02  0.39284052472E+02  0.11279835174E+04  0.11362099968E+04  0.12500096973E+03 0.  0.
          2    1    1    2  501    0 -0.64594291664E+02 -0.56455088726E+02 -0.43767019084E+02  0.96307588062E+02  0.00000000000E+00 0. -1.
          1    1    1    2  502    0  0.26412331142E+02  0.17171036255E+02  0.36865742000E+03  0.37000101222E+03  0.00000000000E+00 0. -1.
         22    1    3    3    0    0 -0.19009052445E+02  0.25178473545E+02  0.90584471521E+03  0.90639392522E+03  0.00000000000E+00 0.  1.
         22    1    3    3    0    0  0.57191012966E+02  0.14105578927E+02  0.22213880216E+03  0.22981607156E+03  0.00000000000E+00 0.  1.
</event>
<event>
 7    1  0.6315518E-006  0.1255852E+03  0.7818608E-02  0.1278039E+00
          2   -1    0    0  502    0  0.00000000000E+00  0.00000000000E+00  0.42394220734E+03  0.42394220734E+03  0.00000000000E+00 0. -1.
          1   -1    0    0  501    0 -0.00000000000E+00 -0.00000000000E+00 -0.65961058648E+03  0.65961058648E+03  0.00000000000E+00 0. -1.
         25    2    1    2    0    0  0.10846643983E+03  0.15968273849E+03  0.22175835924E+02  0.23104312763E+03  0.12500245430E+03 0.  0.
          2    1    1    2  501    0 -0.40143737562E+02 -0.11551078247E+03 -0.54267735273E+03  0.55628497166E+03  0.00000000000E+00 0. -1.
          1    1    1    2  502    0 -0.68322702271E+02 -0.44171956028E+02  0.28483313766E+03  0.29622469453E+03  0.00000000000E+00 0. -1.
         22    1    3    3    0    0 -0.19952008888E+02 -0.54922953856E+01  0.49342440115E+00  0.20700034660E+02  0.00000000000E+00 0.  1.
         22    1    3    3    0    0  0.12841844872E+03  0.16517503388E+03  0.21682411523E+02  0.21034309297E+03  0.00000000000E+00 0.  1.
</event>
<event>
 7    1  0.6315518E-006  0.4804172E+02  0.7818608E-02  0.1461439E+00
          2   -1    0    0  502    0  0.00000000000E+00  0.00000000000E+00  0.14209296050E+04  0.14209296050E+04  0.00000000000E+00 0. -1.
          1   -1    0    0  501    0 -0.00000000000E+00 -0.00000000000E+00 -0.21806917518E+04  0.21806917518E+04  0.00000000000E+00 0. -1.
         25    2    1    2    0    0 -0.25396080984E+02  0.68984904218E+02  0.15528699785E+03  0.21246750695E+03  0.12499804746E+03 0.  0.
          2    1    1    2  501    0  0.39909106734E+02 -0.23363478255E+02 -0.21513897342E+04  0.21518867017E+04  0.00000000000E+00 0. -1.
          1    1    1    2  502    0 -0.14513025750E+02 -0.45621425963E+02  0.12363405895E+04  0.12372671480E+04  0.00000000000E+00 0. -1.
         22    1    3    3    0    0 -0.20150014946E+02  0.78076454724E+01  0.14920888989E+03  0.15076563021E+03  0.00000000000E+00 0. -1.
         22    1    3    3    0    0 -0.52460660376E+01  0.61177258745E+02  0.60781079571E+01  0.61701876736E+02  0.00000000000E+00 0. -1.
</event>
<event>
 7    1  0.6315518E-006  0.2652324E+03  0.7818608E-02  0.1256661E+00
          2   -1    0    0  502    0  0.00000000000E+00  0.00000000000E+00  0.77634825554E+03  0.77634825554E+03  0.00000000000E+00 0. -1.
          1   -1    0    0  501    0 -0.00000000000E+00 -0.00000000000E+00 -0.43142721246E+03  0.43142721246E+03  0.00000000000E+00 0. -1.
         25    2    1    2    0    0 -0.65281331938E+02  0.25198008653E+03  0.15434471279E+03  0.32741790489E+03  0.12499831108E+03 0.  0.
          2    1    1    2  501    0  0.44790574482E+02  0.15543813426E+02 -0.30936058396E+03  0.31297248538E+03  0.00000000000E+00 0. -1.
          1    1    1    2  502    0  0.20490757455E+02 -0.26752389995E+03  0.49993691425E+03  0.56738507772E+03  0.00000000000E+00 0. -1.
         22    1    3    3    0    0 -0.18771757246E+02  0.78749545668E+01  0.57015754692E+02  0.60540813197E+02  0.00000000000E+00 0.  1.
         22    1    3    3    0    0 -0.46509574692E+02  0.24410513196E+03  0.97328958099E+02  0.26687709170E+03  0.00000000000E+00 0.  1.
</event>
<event>
 7    1  0.6315518E-006  0.8051535E+02  0.7818608E-02  0.1477880E+00
          2   -1    0    0  502    0  0.00000000000E+00  0.00000000000E+00  0.10726709249E+03  0.10726709249E+03  0.00000000000E+00 0. -1.
          1   -1    0    0  501    0 -0.00000000000E+00 -0.00000000000E+00 -0.11373429617E+04  0.11373429617E+04  0.00000000000E+00 0. -1.
         25    2    1    2    0    0  0.18307555924E+02 -0.59783563222E+02 -0.40389738871E+03  0.42739564074E+03  0.12499876833E+03 0.  0.
          2    1    1    2  501    0  0.21992140228E+02 -0.10857680769E+02 -0.70413261652E+03  0.70455963914E+03  0.00000000000E+00 0. -1.
          1    1    1    2  502    0 -0.40299696152E+02  0.70641243991E+02  0.77954135985E+02  0.11265477433E+03  0.00000000000E+00 0. -1.
         22    1    3    3    0    0  0.86821785271E+01 -0.87981985298E+02 -0.37709021710E+03  0.38731542932E+03  0.00000000000E+00 0.  1.
         22    1    3    3    0    0  0.96253773969E+01  0.28198422076E+02 -0.26807171612E+02  0.40080211420E+02  0.00000000000E+00 0.  1.
</event>
<event>
 7    1  0.6315518E-006  0.2757707E+03  0.7818608E-02  0.1253579E+00
          2   -1    0    0  502    0  0.00000000000E+00  0.00000000000E+00  0.96442005670E+03  0.96442005670E+03  0.00000000000E+00 0. -1.
          1   -1    0    0  501    0 -0.00000000000E+00 -0.00000000000E+00 -0.71233520167E+03  0.71233520167E+03  0.00000000000E+00 0. -1.
         25    2    1    2    0    0 -0.23601094095E+03  0.83684322949E+01 -0.19073103933E+03  0.32828937522E+03  0.12499755842E+03 0.  0.
          2    1    1    2  501    0 -0.42926229579E+02 -0.19171387020E+02 -0.42976139949E+03  0.43232518289E+03  0.00000000000E+00 0. -1.
          1    1    1    2  502    0  0.27893717053E+03  0.10802954725E+02  0.87257729385E+03  0.91614070026E+03  0.00000000000E+00 0. -1.
         22    1    3    3    0    0 -0.78665690554E+02 -0.25805624503E+02 -0.13411796315E+03  0.15761297271E+03  0.00000000000E+00 0.  1.
         22    1    3    3    0    0 -0.15734525040E+03  0.34174056798E+02 -0.56613076180E+02  0.17067640251E+03  0.00000000000E+00 0.  1.
</event>
<event>
 7    1  0.6315518E-006  0.1210485E+03  0.7818608E-02  0.1343781E+00
          2   -1    0    0  502    0  0.00000000000E+00  0.00000000000E+00  0.43963678587E+03  0.43963678587E+03  0.00000000000E+00 0. -1.
          1   -1    0    0  501    0 -0.00000000000E+00 -0.00000000000E+00 -0.44778218776E+03  0.44778218776E+03  0.00000000000E+00 0. -1.
         25    2    1    2    0    0  0.10597250068E+02  0.79532145868E+02 -0.80279934865E+01  0.14875028773E+03  0.12499814193E+03 0.  0.
          2    1    1    2  501    0  0.51421447846E+01  0.46220040281E+02 -0.35696661958E+03  0.35998319582E+03  0.00000000000E+00 0. -1.
          1    1    1    2  502    0 -0.15739394853E+02 -0.12575218615E+03  0.35684921118E+03  0.37868549008E+03  0.00000000000E+00 0. -1.
         22    1    3    3    0    0 -0.52131356260E+02  0.39397347870E+02 -0.28843194715E+02  0.71426600129E+02  0.00000000000E+00 0.  1.
         22    1    3    3    0    0  0.62728606328E+02  0.40134797999E+02  0.20815201228E+02  0.77323687602E+02  0.00000000000E+00 0.  1.
</event>
<event>
 7    1  0.6315518E-006  0.1171846E+03  0.7818608E-02  0.1327580E+00
          2   -1    0    0  502    0  0.00000000000E+00  0.00000000000E+00  0.12696536041E+04  0.12696536041E+04  0.00000000000E+00 0. -1.
          1   -1    0    0  501    0 -0.00000000000E+00 -0.00000000000E+00 -0.63775018987E+03  0.63775018987E+03  0.00000000000E+00 0. -1.
         25    2    1    2    0    0  0.13001786717E+03  0.46591960783E+02  0.33389274444E+03  0.38234065375E+03  0.12499821649E+03 0.  0.
          2    1    1    2  501    0 -0.85692248214E+02 -0.79704030776E+02 -0.60709298866E+03  0.61826999831E+03  0.00000000000E+00 0. -1.
          1    1    1    2  502    0 -0.44325618952E+02  0.33112069993E+02  0.90510365842E+03  0.90679314188E+03  0.00000000000E+00 0. -1.
         22    1    3    3    0    0  0.15221467821E+03  0.41158319715E+02  0.25154426140E+03  0.29688016267E+03  0.00000000000E+00 0. -1.
         22    1    3    3    0    0 -0.22196811044E+02  0.54336410682E+01  0.82348483039E+02  0.85460491074E+02  0.00000000000E+00 0. -1.
</event>
<event>
 7    1  0.6315518E-006  0.1031407E+03  0.7818608E-02  0.1390259E+00
          2   -1    0    0  502    0  0.00000000000E+00  0.00000000000E+00  0.19911804573E+03  0.19911804573E+03  0.00000000000E+00 0. -1.
          1   -1    0    0  501    0 -0.00000000000E+00 -0.00000000000E+00 -0.17428722600E+04  0.17428722600E+04  0.00000000000E+00 0. -1.
         25    2    1    2    0    0  0.79637837841E+02  0.87863250743E+02 -0.16431530964E+03  0.23809135188E+03  0.12500333919E+03 0.  0.
          2    1    1    2  501    0  0.85838788220E+01 -0.36072796629E+02 -0.15252938876E+04  0.15257445307E+04  0.00000000000E+00 0. -1.
          1    1    1    2  502    0 -0.88221716663E+02 -0.51790454114E+02  0.14585498294E+03  0.17815442312E+03  0.00000000000E+00 0. -1.
         22    1    3    3    0    0  0.15009908747E+02  0.10445099315E+03 -0.97715143290E+02  0.14381778944E+03  0.00000000000E+00 0. -1.
         22    1    3    3    0    0  0.64627929094E+02 -0.16587742407E+02 -0.66600166348E+02  0.94273562438E+02  0.00000000000E+00 0. -1.
</event>
<event>
 7    1  0.6315518E-006  0.9183896E+02  0.7818608E-02  0.1415260E+00
          2   -1    0    0  502    0  0.00000000000E+00  0.00000000000E+00  0.36457450404E+03  0.36457450404E+03  0.00000000000E+00 0. -1.
          1   -1    0    0  501    0 -0.00000000000E+00 -0.00000000000E+00 -0.93233469801E+03  0.93233469801E+03  0.00000000000E+00 0. -1.
         25    2    1    2    0    0 -0.75899194985E+02 -0.35244294562E+02  0.65079258224E+02  0.16389971493E+03  0.12499983441E+03 0.  0.
          2    1    1    2  501    0  0.63237152377E+02  0.67004623474E+02 -0.87933771436E+03  0.88415121608E+03  0.00000000000E+00 0. -1.
          1    1    1    2  502    0  0.12662042608E+02 -0.31760328912E+02  0.24649826216E+03  0.24885827104E+03  0.00000000000E+00 0. -1.
         22    1    3    3    0    0 -0.16536884892E+02  0.46453414928E+02  0.24559277604E+02  0.55086717426E+02  0.00000000000E+00 0. -1.
         22    1    3    3    0    0 -0.59362310094E+02 -0.81697709490E+02  0.40519980620E+02  0.10881299750E+03  0.00000000000E+00 0. -1.
</event>
<event>
 7    1  0.6597594E-006  0.5964014E+02  0.7818608E-02  0.1436206E+00
          2   -1    0    0  502    0  0.00000000000E+00  0.00000000000E+00  0.34731087491E+04  0.34731087491E+04  0.00000000000E+00 0. -1.
          1   -1    0    0  501    0 -0.00000000000E+00 -0.00000000000E+00 -0.45866170272E+03  0.45866170272E+03  0.00000000000E+00 0. -1.
         25    2    1    2    0    0  0.41265480087E+02  0.52159689782E+02 -0.14132116610E+03  0.20004535807E+03  0.12499200059E+03 0.  0.
          2    1    1    2  501    0  0.17404193220E+02 -0.41363917539E+02 -0.28597010487E+03  0.28946982657E+03  0.00000000000E+00 0. -1.
          1    1    1    2  502    0 -0.58669673307E+02 -0.10795772243E+02  0.34417383174E+04  0.34422552672E+04  0.00000000000E+00 0. -1.
         22    1    3    3    0    0 -0.37200057397E+02 -0.10664495294E+02 -0.23930515435E+02  0.45499948342E+02  0.00000000000E+00 0.  1.
         22    1    3    3    0    0  0.78465537483E+02  0.62824185076E+02 -0.11739065067E+03  0.15454540972E+03  0.00000000000E+00 0.  1.
</event>
<event>
 7    1  0.6315518E-006  0.6860953E+02  0.7818608E-02  0.1455840E+00
          2   -1    0    0  502    0  0.00000000000E+00  0.00000000000E+00  0.43747386207E+03  0.43747386207E+03  0.00000000000E+00 0. -1.
          1   -1    0    0  501    0 -0.00000000000E+00 -0.00000000000E+00 -0.94618778890E+03  0.94618778890E+03  0.00000000000E+00 0. -1.
         25    2    1    2    0    0  0.51924659822E+02 -0.65850242890E+02  0.34945697619E+02  0.15452803553E+03  0.12500114878E+03 0.  0.
          2    1    1    2  501    0 -0.33727348881E+02  0.23441324731E+00 -0.88268933809E+03  0.88333349115E+03  0.00000000000E+00 0. -1.
          1    1    1    2  502    0 -0.18197310941E+02  0.65615829643E+02  0.33902971364E+03  0.34580012428E+03  0.00000000000E+00 0. -1.
         22    1    3    3    0    0 -0.52162891538E+00 -0.82156268398E+02 -0.11039218374E+02  0.82896253692E+02  0.00000000000E+00 0. -1.
         22    1    3    3    0    0  0.52446288737E+02  0.16306025508E+02  0.45984915993E+02  0.71631781837E+02  0.00000000000E+00 0. -1.
</event>
<event>
 7    1  0.6315518E-006  0.7729915E+02  0.7818608E-02  0.1363250E+00
          2   -1    0    0  502    0  0.00000000000E+00  0.00000000000E+00  0.11295033879E+04  0.11295033879E+04  0.00000000000E+00 0. -1.
          1   -1    0    0  501    0 -0.00000000000E+00 -0.00000000000E+00 -0.45773394492E+03  0.45773394492E+03  0.00000000000E+00 0. -1.
         25    2    1    2    0    0 -0.18822115350E+02 -0.43827813531E+01  0.12484257740E+03  0.17771736853E+03  0.12499725255E+03 0.  0.
          2    1    1    2  501    0  0.62007551095E+02  0.48498743993E+02 -0.42671866661E+03  0.43391921482E+03  0.00000000000E+00 0. -1.
          1    1    1    2  502    0 -0.43185435746E+02 -0.44115962640E+02  0.97364553215E+03  0.97560074943E+03  0.00000000000E+00 0. -1.
         22    1    3    3    0    0 -0.55110917850E+01  0.60154733171E+02  0.54984285936E+02  0.81683754538E+02  0.00000000000E+00 0. -1.
         22    1    3    3    0    0 -0.13311023565E+02 -0.64537514524E+02  0.69858291465E+02  0.96033613989E+02  0.00000000000E+00 0. -1.
</event>
<event>
 7    1  0.6315518E-006  0.5017264E+02  0.7818608E-02  0.1471209E+00
          2   -1    0    0  502    0  0.00000000000E+00  0.00000000000E+00  0.88336872927E+03  0.88336872927E+03  0.00000000000E+00 0. -1.
          1   -1    0    0  501    0 -0.00000000000E+00 -0.00000000000E+00 -0.11491978235E+03  0.11491978235E+03  0.00000000000E+00 0. -1.
         25    2    1    2    0    0 -0.12519118252E+02  0.14323859109E+02  0.13656379620E+03  0.18610665651E+03  0.12499646357E+03 0.  0.
          2    1    1    2  501    0  0.18492791207E+02  0.36898253532E+02 -0.84448288803E+02  0.93994563259E+02  0.00000000000E+00 0. -1.
          1    1    1    2  502    0 -0.59736729557E+01 -0.51222112641E+02  0.71633343953E+03  0.71818729185E+03  0.00000000000E+00 0. -1.
         22    1    3    3    0    0 -0.43935983682E+02  0.28002356460E+02  0.75804571057E+01  0.52649463049E+02  0.00000000000E+00 0. -1.
         22    1    3    3    0    0  0.31416865431E+02 -0.13678497351E+02  0.12898333909E+03  0.13345719346E+03  0.00000000000E+00 0. -1.
</event>
<event>
 7    1  0.6315518E-006  0.6277039E+02  0.7818608E-02  0.1440018E+00
          2   -1    0    0  502    0  0.00000000000E+00  0.00000000000E+00  0.18332076985E+04  0.18332076985E+04  0.00000000000E+00 0. -1.
          1   -1    0    0  501    0 -0.00000000000E+00 -0.00000000000E+00 -0.71430038390E+03  0.71430038390E+03  0.00000000000E+00 0. -1.
         25    2    1    2    0    0 -0.55880760421E+02 -0.83208159630E+02  0.85262901252E+02  0.18149724469E+03  0.12500092114E+03 0.  0.
          2    1    1    2  501    0  0.44977015350E+02  0.43230873953E+02 -0.66446940469E+03  0.66739151189E+03  0.00000000000E+00 0. -1.
          1    1    1    2  502    0  0.10903745071E+02  0.39977285677E+02  0.16981138180E+04  0.16986193258E+04  0.00000000000E+00 0. -1.
         22    1    3    3    0    0 -0.54226596016E+02 -0.14588320506E+02  0.96786242100E+02  0.11189691448E+03  0.00000000000E+00 0. -1.
         22    1    3    3    0    0 -0.16541644055E+01 -0.68619839125E+02 -0.11523340847E+02  0.69600330212E+02  0.00000000000E+00 0. -1.
</event>
<event>
 7    1  0.6315518E-006  0.7595747E+02  0.7818608E-02  0.1477793E+00
          2   -1    0    0  502    0  0.00000000000E+00  0.00000000000E+00  0.34713020569E+04  0.34713020569E+04  0.00000000000E+00 0. -1.
          1   -1    0    0  501    0 -0.00000000000E+00 -0.00000000000E+00 -0.41535525505E+03  0.41535525505E+03  0.00000000000E+00 0. -1.
         25    2    1    2    0    0 -0.66925452713E+02 -0.31126489423E+02 -0.37576687615E+03  0.40283225559E+03  0.12500082548E+03 0.  0.
          2    1    1    2  501    0 -0.87493850735E+01  0.24498689248E+02 -0.19038616774E+02  0.32236725061E+02  0.00000000000E+00 0. -1.
          1    1    1    2  502    0  0.75674837786E+02  0.66278001751E+01  0.34507522948E+04  0.34515883313E+04  0.00000000000E+00 0. -1.
         22    1    3    3    0    0  0.14612076891E+02  0.15263649386E+02 -0.69077624140E+01  0.22230811169E+02  0.00000000000E+00 0. -1.
         22    1    3    3    0    0 -0.81537529604E+02 -0.46390138809E+02 -0.36885911374E+03  0.38060144443E+03  0.00000000000E+00 0. -1.
</event>
<event>
 7    1  0.6315518E-006  0.6025504E+02  0.7818608E-02  0.1432878E+00
          2   -1    0    0  502    0  0.00000000000E+00  0.00000000000E+00  0.23933131717E+04  0.23933131717E+04  0.00000000000E+00 0. -1.
          1   -1    0    0  501    0 -0.00000000000E+00 -0.00000000000E+00 -0.30070267498E+04  0.30070267498E+04  0.00000000000E+00 0. -1.
         25    2    1    2    0    0 -0.50001384220E+02  0.75821421224E+02 -0.23281164492E+03  0.27941979131E+03  0.12500052571E+03 0.  0.
          2    1    1    2  501    0 -0.20322259929E+01 -0.45500331065E+02 -0.27503398755E+04  0.27507169685E+04  0.00000000000E+00 0. -1.
          1    1    1    2  502    0  0.52033610213E+02 -0.30321090159E+02  0.23694379423E+04  0.23702031617E+04  0.00000000000E+00 0. -1.
         22    1    3    3    0    0  0.10106864560E+02  0.58302002833E+02 -0.28398753975E+02  0.65633539239E+02  0.00000000000E+00 0.  1.
         22    1    3    3    0    0 -0.60108248780E+02  0.17519418391E+02 -0.20441289094E+03  0.21378625207E+03  0.00000000000E+00 0.  1.
</event>
<event>
 7    1  0.6315518E-006  0.7470735E+02  0.7818608E-02  0.1479002E+00
          2   -1    0    0  502    0  0.00000000000E+00  0.00000000000E+00  0.37941077678E+03  0.37941077678E+03  0.00000000000E+00 0. -1.
          1   -1    0    0  501    0 -0.00000000000E+00 -0.00000000000E+00 -0.50455325349E+03  0.50455325349E+03  0.00000000000E+00 0. -1.
         25    2    1    2    0    0 -0.72392081553E+02  0.46268672054E+02 -0.15405163664E+03  0.21619171948E+03  0.12500219731E+03 0.  0.
          2    1    1    2  501    0  0.47971657161E+02 -0.55825971952E+02 -0.31468508458E+03  0.32317877636E+03  0.00000000000E+00 0. -1.
          1    1    1    2  502    0  0.24420424391E+02  0.95572998974E+01  0.34359424451E+03  0.34459353443E+03  0.00000000000E+00 0. -1.
         22    1    3    3    0    0 -0.11585261540E+02  0.14227231141E+02  0.21144784444E+02  0.27995254957E+02  0.00000000000E+00 0.  1.
         22    1    3    3    0    0 -0.60806820012E+02  0.32041440913E+02 -0.17519642109E+03  0.18819646452E+03  0.00000000000E+00 0.  1.
</event>
<event>
 7    1  0.6315518E-006  0.7778932E+02  0.7818608E-02  0.1349195E+00
          2   -1    0    0  502    0  0.00000000000E+00  0.00000000000E+00  0.25617593792E+04  0.25617593792E+04  0.00000000000E+00 0. -1.
          1   -1    0    0  501    0 -0.00000000000E+00 -0.00000000000E+00 -0.10731375054E+02  0.10731375054E+02  0.00000000000E+00 0. -1.
         25    2    1    2    0    0  0.98896752731E+02  0.69268823782E+02  0.16920860941E+04  0.17009878587E+04  0.12500243158E+03 0.  0.
          2    1    1    2  501    0 -0.29907217006E+02 -0.65678263774E+02  0.31324852586E+03  0.32145406346E+03  0.00000000000E+00 0. -1.
          1    1    1    2  502    0 -0.68989535725E+02 -0.35905600076E+01  0.54569338420E+03  0.55004883212E+03  0.00000000000E+00 0. -1.
         22    1    3    3    0    0  0.12188584767E+03  0.75832601030E+02  0.15722843404E+04  0.15788238630E+04  0.00000000000E+00 0.  1.
         22    1    3    3    0    0 -0.22989094935E+02 -0.65637772484E+01  0.11980175369E+03  0.12216399570E+03  0.00000000000E+00 0.  1.
</event>
<event>
 7    1  0.6315518E-006  0.3153856E+02  0.7818608E-02  0.1594156E+00
          2   -1    0    0  502    0  0.00000000000E+00  0.00000000000E+00  0.12991907395E+04  0.12991907395E+04  0.00000000000E+00 0. -1.
          1   -1    0    0  501    0 -0.00000000000E+00 -0.00000000000E+00 -0.14869375411E+03  0.14869375411E+03  0.00000000000E+00 0. -1.
         25    2    1    2    0    0 -0.16508961951E+02  0.85705401919E+01  0.25118927107E+03  0.28118860990E+03  0.12499993781E+03 0.  0.
          2    1    1    2  501    0  0.17590545682E+02  0.23336079038E+02 -0.13184715640E+03  0.13504692715E+03  0.00000000000E+00 0. -1.
          1    1    1    2  502    0 -0.10815837309E+01 -0.31906619230E+02  0.10311548707E+04  0.10316489566E+04  0.00000000000E+00 0. -1.
         22    1    3    3    0    0  0.22779535989E+01  0.74368044084E+01  0.26020384639E+03  0.26032006609E+03  0.00000000000E+00 0.  1.
         22    1    3    3    0    0 -0.18786915550E+02  0.11337357835E+01 -0.90145753178E+01  0.20868543813E+02  0.00000000000E+00 0.  1.
</event>
<event>
 7    1  0.6315518E-006  0.1455343E+03  0.7818608E-02  0.1341174E+00
          2   -1    0    0  502    0  0.00000000000E+00  0.00000000000E+00  0.12174102955E+04  0.12174102955E+04  0.00000000000E+00 0. -1.
          1   -1    0    0  501    0 -0.00000000000E+00 -0.00000000000E+00 -0.14048559673E+04  0.14048559673E+04  0.00000000000E+00 0. -1.
         25    2    1    2    0    0 -0.15447229344E+02 -0.13996864409E+03  0.53428219121E+03  0.56649271915E+03  0.12500681091E+03 0.  0.
          2    1    1    2  501    0  0.38754492420E+02 -0.79458868015E+01 -0.13800599414E+04  0.13806268467E+04  0.00000000000E+00 0. -1.
          1    1    1    2  502    0 -0.23307263076E+02  0.14791453089E+03  0.65833207845E+03  0.67514669700E+03  0.00000000000E+00 0. -1.
         22    1    3    3    0    0 -0.69402539524E+02 -0.75258748708E+02  0.33010380623E+03  0.34561411232E+03  0.00000000000E+00 0. -1.
         22    1    3    3    0    0  0.53955310181E+02 -0.64709895385E+02  0.20417838499E+03  0.22087860683E+03  0.00000000000E+00 0. -1.
</event>
<event>
 7    1  0.6315518E-006  0.1733646E+03  0.7818608E-02  0.1187986E+00
          2   -1    0    0  502    0  0.00000000000E+00  0.00000000000E+00  0.32225986592E+04  0.32225986592E+04  0.00000000000E+00 0. -1.
          1   -1    0    0  501    0 -0.00000000000E+00 -0.00000000000E+00 -0.45040240858E+03  0.45040240858E+03  0.00000000000E+00 0. -1.
         25    2    1    2    0    0  0.20767183790E+03 -0.36572586808E+02 -0.31418763474E+03  0.39850287441E+03  0.12500209889E+03 0.  0.
          2    1    1    2  501    0 -0.12271180199E+03 -0.85629100390E+02 -0.31624222861E+02  0.15293992498E+03  0.00000000000E+00 0. -1.
          1    1    1    2  502    0 -0.84960035915E+02  0.12220168720E+03  0.31180081083E+04  0.31215582684E+04  0.00000000000E+00 0. -1.
         22    1    3    3    0    0  0.13502312998E+03 -0.23241398686E+02 -0.29007729114E+03  0.32080561572E+03  0.00000000000E+00 0.  1.
         22    1    3    3    0    0  0.72648707925E+02 -0.13331188122E+02 -0.24110343602E+02  0.77697258693E+02  0.00000000000E+00 0.  1.
</event>
<event>
 7    1  0.6315518E-006  0.1679092E+03  0.7818608E-02  0.1386894E+00
          2   -1    0    0  502    0  0.00000000000E+00  0.00000000000E+00  0.83807297541E+03  0.83807297541E+03  0.00000000000E+00 0. -1.
          1   -1    0    0  501    0 -0.00000000000E+00 -0.00000000000E+00 -0.66722832536E+03  0.66722832536E+03  0.00000000000E+00 0. -1.
         25    2    1    2    0    0  0.10103892985E+03  0.15931750042E+03 -0.45237120572E+03  0.50582181851E+03  0.12500029211E+03 0.  0.
          2    1    1    2  501    0 -0.19480190749E+02 -0.12969521741E+02 -0.17871171690E+03  0.18023752129E+03  0.00000000000E+00 0. -1.
          1    1    1    2  502    0 -0.81558739103E+02 -0.14634797868E+03  0.80192757267E+03  0.81924196096E+03  0.00000000000E+00 0. -1.
         22    1    3    3    0    0 -0.12044557477E+02 -0.12742938867E+02 -0.18028830105E+02  0.25149404978E+02  0.00000000000E+00 0. -1.
         22    1    3    3    0    0  0.11308348733E+03  0.17206043929E+03 -0.43434237562E+03  0.48067241353E+03  0.00000000000E+00 0. -1.
</event>
<event>
 7    1  0.6315518E-006  0.7562456E+02  0.7818608E-02  0.1432270E+00
          2   -1    0    0  502    0  0.00000000000E+00  0.00000000000E+00  0.61869296547E+03  0.61869296547E+03  0.00000000000E+00 0. -1.
          1   -1    0    0  501    0 -0.00000000000E+00 -0.00000000000E+00 -0.57712702612E+03  0.57712702612E+03  0.00000000000E+00 0. -1.
         25    2    1    2    0    0  0.84658445105E+02 -0.56094346994E+02 -0.21774602276E+03  0.27082954286E+03  0.12498673036E+03 0.  0.
          2    1    1    2  501    0 -0.48282965030E+02  0.53667016995E+02 -0.32835338326E+03  0.33619538623E+03  0.00000000000E+00 0. -1.
          1    1    1    2  502    0 -0.36375480075E+02  0.24273299989E+01  0.58766534536E+03  0.58879506250E+03  0.00000000000E+00 0. -1.
         22    1    3    3    0    0  0.19364684788E+02  0.87011388998E+01  0.11265857118E+02  0.24033734036E+02  0.00000000000E+00 0.  1.
         22    1    3    3    0    0  0.65293760317E+02 -0.64795485893E+02 -0.22901187988E+03  0.24679580882E+03  0.00000000000E+00 0.  1.
</event>
<event>
 7    1  0.6315518E-006  0.1237601E+03  0.7818608E-02  0.1395688E+00
          2   -1    0    0  502    0  0.00000000000E+00  0.00000000000E+00  0.20668740138E+03  0.20668740138E+03  0.00000000000E+00 0. -1.
          1   -1    0    0  501    0 -0.00000000000E+00 -0.00000000000E+00 -0.54058524379E+03  0.54058524379E+03  0.00000000000E+00 0. -1.
         25    2    1    2    0    0 -0.10489910725E+03  0.71846171572E+02 -0.18185226828E+03  0.25467767619E+03  0.12499910479E+03 0.  0.
          2    1    1    2  501    0  0.21886022017E+02  0.19912359971E+02 -0.29901368919E+03  0.30047410265E+03  0.00000000000E+00 0. -1.
          1    1    1    2  502    0  0.83013085233E+02 -0.91758531543E+02  0.14696811507E+03  0.19212086633E+03  0.00000000000E+00 0. -1.
         22    1    3    3    0    0 -0.75609966188E+02  0.38349604232E+02 -0.20390614392E+02  0.87197111690E+02  0.00000000000E+00 0.  1.
         22    1    3    3    0    0 -0.29289141062E+02  0.33496567341E+02 -0.16146165389E+03  0.16748056450E+03  0.00000000000E+00 0.  1.
</event>
<event>
 7    1  0.6315518E-006  0.5733748E+02  0.7818608E-02  0.1479924E+00
          2   -1    0    0  502    0  0.00000000000E+00  0.00000000000E+00  0.18566868082E+03  0.18566868082E+03  0.00000000000E+00 0. -1.
          1   -1    0    0  501    0 -0.00000000000E+00 -0.00000000000E+00 -0.66452655445E+03  0.66452655445E+03  0.00000000000E+00 0. -1.
         25    2    1    2    0    0 -0.76286839530E+02  0.33038341223E+01  0.67148980101E+02  0.16113427524E+03  0.12499868769E+03 0.  0.
          2    1    1    2  501    0  0.53030050624E+02  0.21424343426E+02 -0.61209654489E+03  0.61476285593E+03  0.00000000000E+00 0. -1.
          1    1    1    2  502    0  0.23256788906E+02 -0.24728177549E+02  0.66089691157E+02  0.74298104096E+02  0.00000000000E+00 0. -1.
         22    1    3    3    0    0  0.31605062367E+01 -0.47567552753E+02  0.41916342912E+02  0.63479450830E+02  0.00000000000E+00 0. -1.
         22    1    3    3    0    0 -0.79447345766E+02  0.50871386875E+02  0.25232637189E+02  0.97654824415E+02  0.00000000000E+00 0. -1.
</event>
<event>
 7    1  0.6315518E-006  0.1224688E+03  0.7818608E-02  0.1261149E+00
          2   -1    0    0  502    0  0.00000000000E+00  0.00000000000E+00  0.10999124348E+04  0.10999124348E+04  0.00000000000E+00 0. -1.
          1   -1    0    0  501    0 -0.00000000000E+00 -0.00000000000E+00 -0.79403329688E+03  0.79403329688E+03  0.00000000000E+00 0. -1.
         25    2    1    2    0    0  0.30416085023E+02 -0.22949247733E+02  0.22346343045E+03  0.25886727035E+03  0.12499821084E+03 0.  0.
          2    1    1    2  501    0 -0.12424935106E+03 -0.61465745874E+01 -0.76850342446E+03  0.77850702953E+03  0.00000000000E+00 0. -1.
          1    1    1    2  502    0  0.93833266036E+02  0.29095822320E+02  0.85091913191E+03  0.85657143178E+03  0.00000000000E+00 0. -1.
         22    1    3    3    0    0 -0.34352408139E+02 -0.49684819726E+02  0.96293146848E+02  0.11367074991E+03  0.00000000000E+00 0.  1.
         22    1    3    3    0    0  0.64768493162E+02  0.26735571994E+02  0.12717028360E+03  0.14519652044E+03  0.00000000000E+00 0.  1.
</event>
<event>
 7    1  0.6315518E-006  0.2063884E+03  0.7818608E-02  0.1156845E+00
          2   -1    0    0  502    0  0.00000000000E+00  0.00000000000E+00  0.12949265209E+04  0.12949265209E+04  0.00000000000E+00 0. -1.
          1   -1    0    0  501    0 -0.00000000000E+00 -0.00000000000E+00 -0.31168172463E+03  0.31168172463E+03  0.00000000000E+00 0. -1.
         25    2    1    2    0    0  0.76256060649E+02  0.23263360249E+02  0.23625591104E+03  0.27890545666E+03  0.12496090402E+03 0.  0.
          2    1    1    2  501    0 -0.13102671274E+03 -0.19288868261E+03 -0.23417897102E+03  0.33047516367E+03  0.00000000000E+00 0. -1.
          1    1    1    2  502    0  0.54770652088E+02  0.16962532236E+03  0.98116785624E+03  0.99722762518E+03  0.00000000000E+00 0. -1.
         22    1    3    3    0    0  0.54713855758E+02 -0.48345357027E+02  0.12740974897E+03  0.14684728016E+03  0.00000000000E+00 0.  1.
         22    1    3    3    0    0  0.21542204891E+02  0.71608717276E+02  0.10884616207E+03  0.13205817650E+03  0.00000000000E+00 0.  1.
</event>
<event>
 7    1  0.6315518E-006  0.1656294E+03  0.7818608E-02  0.1299348E+00
          2   -1    0    0  502    0  0.00000000000E+00  0.00000000000E+00  0.36464546847E+04  0.36464546847E+04  0.00000000000E+00 0. -1.
          1   -1    0    0  501    0 -0.00000000000E+00 -0.00000000000E+00 -0.20052539631E+03  0.20052539631E+03  0.00000000000E+00 0. -1.
         25    2    1    2    0    0  0.14768538452E+03 -0.69176765738E+02  0.16064971787E+03  0.26082367997E+03  0.12499704982E+03 0.  0.
          2    1    1    2  501    0 -0.16610535124E+03  0.22148911075E+02 -0.10352558440E+03  0.19697489332E+03  0.00000000000E+00 0. -1.
          1    1    1    2  502    0  0.18419966721E+02  0.47027854663E+02  0.33888051549E+04  0.33891815077E+04  0.00000000000E+00 0. -1.
         22    1    3    3    0    0  0.64767485297E+01 -0.38274838819E+02 -0.70175471578E+01  0.39448162520E+02  0.00000000000E+00 0.  1.
         22    1    3    3    0    0  0.14120863599E+03 -0.30901926919E+02  0.16766726503E+03  0.22137551745E+03  0.00000000000E+00 0.  1.
</event>
<event>
 7    1  0.6315518E-006  0.1113298E+03  0.7818608E-02  0.1383825E+00
          2   -1    0    0  502    0  0.00000000000E+00  0.00000000000E+00  0.27145174575E+03  0.27145174575E+03  0.00000000000E+00 0. -1.
          1   -1    0    0  501    0 -0.00000000000E+00 -0.00000000000E+00 -0.77510412989E+03  0.77510412989E+03  0.00000000000E+00 0. -1.
         25    2    1    2    0    0  0.64405682350E+02 -0.10106408537E+03 -0.13328323908E+03  0.21849141654E+03  0.12494813329E+03 0.  0.
          2    1    1    2  501    0 -0.28730513912E+02  0.10710908759E+03 -0.59261030412E+03  0.60289698259E+03  0.00000000000E+00 0. -1.
          1    1    1    2  502    0 -0.35675168438E+02 -0.60450022147E+01  0.22224115906E+03  0.22516747651E+03  0.00000000000E+00 0. -1.
         22    1    3    3    0    0  0.35922228009E+02 -0.29272395641E+02  0.17132847500E+02  0.49404595688E+02  0.00000000000E+00 0.  1.
         22    1    3    3    0    0  0.28483454342E+02 -0.71791689731E+02 -0.15041608658E+03  0.16908682086E+03  0.00000000000E+00 0.  1.
</event>
<event>
 7    1  0.6315518E-006  0.7978025E+02  0.7818608E-02  0.1471032E+00
          2   -1    0    0  502    0  0.00000000000E+00  0.00000000000E+00  0.15371718042E+04  0.15371718042E+04  0.00000000000E+00 0. -1.
          1   -1    0    0  501    0 -0.00000000000E+00 -0.00000000000E+00 -0.15677560919E+03  0.15677560919E+03  0.00000000000E+00 0. -1.
         25    2    1    2    0    0  0.75190299161E+02  0.61498511064E+02  0.10884057150E+04  0.10998580018E+04  0.12499990293E+03 0.  0.
          2    1    1    2  501    0 -0.71119375977E+02 -0.35830472547E+02 -0.14013565419E+03  0.16118247416E+03  0.00000000000E+00 0. -1.
          1    1    1    2  502    0 -0.40709231844E+01 -0.25668038518E+02  0.43212613415E+03  0.43290693738E+03  0.00000000000E+00 0. -1.
         22    1    3    3    0    0  0.19475078658E+02 -0.14009741215E+01  0.77902191905E+03  0.77926657299E+03  0.00000000000E+00 0. -1.
         22    1    3    3    0    0  0.55715220503E+02  0.62899485186E+02  0.30938379598E+03  0.32059142884E+03  0.00000000000E+00 0. -1.
</event>
<event>
 7    1  0.6315518E-006  0.6965729E+02  0.7818608E-02  0.1388726E+00
          2   -1    0    0  502    0  0.00000000000E+00  0.00000000000E+00  0.64499497825E+03  0.64499497825E+03  0.00000000000E+00 0. -1.
          1   -1    0    0  501    0 -0.00000000000E+00 -0.00000000000E+00 -0.38384392223E+02  0.38384392223E+02  0.00000000000E+00 0. -1.
         25    2    1    2    0    0  0.12797348289E+02  0.34581410045E+02  0.29234638183E+03  0.32007995266E+03  0.12500049232E+03 0.  0.
          2    1    1    2  501    0 -0.68070260443E+02 -0.40464941156E+02  0.50908605808E+02  0.94141690896E+02  0.00000000000E+00 0. -1.
          1    1    1    2  502    0  0.55272912154E+02  0.58835311112E+01  0.26335559839E+03  0.26915772692E+03  0.00000000000E+00 0. -1.
         22    1    3    3    0    0  0.62136388794E+02  0.42529767261E+02  0.21676419919E+03  0.22946988902E+03  0.00000000000E+00 0. -1.
         22    1    3    3    0    0 -0.49339040505E+02 -0.79483572160E+01  0.75582182643E+02  0.90610063643E+02  0.00000000000E+00 0. -1.
</event>
<event>
 7    1  0.6315518E-006  0.6671842E+02  0.7818608E-02  0.1419699E+00
          2   -1    0    0  502    0  0.00000000000E+00  0.00000000000E+00  0.17832474101E+04  0.17832474101E+04  0.00000000000E+00 0. -1.
          1   -1    0    0  501    0 -0.00000000000E+00 -0.00000000000E+00 -0.23690486699E+03  0.23690486699E+03  0.00000000000E+00 0. -1.
         25    2    1    2    0    0 -0.26949414158E+02  0.50139927712E+02  0.52169100842E+02  0.14692829944E+03  0.12500410721E+03 0.  0.
          2    1    1    2  501    0 -0.15535835657E+02 -0.66368695711E+02 -0.18307835377E+03  0.19535570015E+03  0.00000000000E+00 0. -1.
          1    1    1    2  502    0  0.42485249814E+02  0.16228767999E+02  0.16772517961E+04  0.16778682775E+04  0.00000000000E+00 0. -1.
         22    1    3    3    0    0 -0.44856088459E+02  0.25454283216E+02  0.86686404215E+02  0.10086883504E+03  0.00000000000E+00 0. -1.
         22    1    3    3    0    0  0.17906674301E+02  0.24685644496E+02 -0.34517303374E+02  0.46059464401E+02  0.00000000000E+00 0. -1.
</event>
<event>
 7    1  0.6315518E-006  0.2593876E+03  0.7818608E-02  0.1255827E+00
          2   -1    0    0  502    0  0.00000000000E+00  0.00000000000E+00  0.76858362859E+03  0.76858362859E+03  0.00000000000E+00 0. -1.
          1   -1    0    0  501    0 -0.00000000000E+00 -0.00000000000E+00 -0.13443186874E+04  0.13443186874E+04  0.00000000000E+00 0. -1.
         25    2    1    2    0    0 -0.30440971878E+01  0.23477643305E+03 -0.45158485289E+03  0.52410237918E+03  0.12500073784E+03 0.  0.
          2    1    1    2  501    0  0.33683294560E+02 -0.27286277800E+03 -0.83354847197E+03  0.87771961074E+03  0.00000000000E+00 0. -1.
          1    1    1    2  502    0 -0.30639197372E+02  0.38086344957E+02  0.70939826610E+03  0.71108032601E+03  0.00000000000E+00 0. -1.
         22    1    3    3    0    0  0.94660299172E+01  0.69257771280E+02 -0.26637690148E+03  0.27539589366E+03  0.00000000000E+00 0.  1.
         22    1    3    3    0    0 -0.12510127105E+02  0.16551866177E+03 -0.18520795142E+03  0.24870648552E+03  0.00000000000E+00 0.  1.
</event>
<event>
 7    1  0.6315518E-006  0.9746569E+02  0.7818608E-02  0.1397709E+00
          2   -1    0    0  502    0  0.00000000000E+00  0.00000000000E+00  0.32679381666E+03  0.32679381666E+03  0.00000000000E+00 0. -1.
          1   -1    0    0  501    0 -0.00000000000E+00 -0.00000000000E+00 -0.22370738995E+03  0.22370738995E+03  0.00000000000E+00 0. -1.
         25    2    1    2    0    0  0.16297014047E+02  0.68571123688E+02  0.75954677189E+02  0.16236742149E+03  0.12500589948E+03 0.  0.
          2    1    1    2  501    0  0.16042454696E+01 -0.10092042298E+03 -0.16448434539E+03  0.19298343260E+03  0.00000000000E+00 0. -1.
          1    1    1    2  502    0 -0.17901259517E+02  0.32349299295E+02  0.19161609491E+03  0.19515035251E+03  0.00000000000E+00 0. -1.
         22    1    3    3    0    0  0.48922669627E+02  0.19246864458E+02 -0.14282710381E+02  0.54478116806E+02  0.00000000000E+00 0. -1.
         22    1    3    3    0    0 -0.32625655580E+02  0.49324259230E+02  0.90237387570E+02  0.10788930469E+03  0.00000000000E+00 0. -1.
</event>
<event>
 7    1  0.6315518E-006  0.5522647E+02  0.7818608E-02  0.1433763E+00
          2   -1    0    0  502    0  0.00000000000E+00  0.00000000000E+00  0.29640963390E+04  0.29640963390E+04  0.00000000000E+00 0. -1.
          1   -1    0    0  501    0 -0.00000000000E+00 -0.00000000000E+00 -0.14935151690E+02  0.14935151690E+02  0.00000000000E+00 0. -1.
         25    2    1    2    0    0 -0.10894612090E+02  0.13869158332E+01  0.80194540771E+03  0.81170371994E+03  0.12500350358E+03 0.  0.
          2    1    1    2  501    0  0.59658037279E+02 -0.90505772415E+01  0.83494026622E+02  0.10301576016E+03  0.00000000000E+00 0. -1.
          1    1    1    2  502    0 -0.48763425189E+02  0.76636614082E+01  0.20637217529E+04  0.20643120106E+04  0.00000000000E+00 0. -1.
         22    1    3    3    0    0 -0.11003909802E+02 -0.55150241351E+02  0.57809497825E+03  0.58082393118E+03  0.00000000000E+00 0. -1.
         22    1    3    3    0    0  0.10929771185E+00  0.56537157184E+02  0.22385042946E+03  0.23087978876E+03  0.00000000000E+00 0. -1.
</event>
<event>
 7    1  0.6315518E-006  0.1286960E+03  0.7818608E-02  0.1317521E+00
          2   -1    0    0  502    0  0.00000000000E+00  0.00000000000E+00  0.43357578430E+03  0.43357578430E+03  0.00000000000E+00 0. -1.
          1   -1    0    0  501    0 -0.00000000000E+00 -0.00000000000E+00 -0.21829944879E+04  0.21829944879E+04  0.00000000000E+00 0. -1.
         25    2    1    2    0    0  0.17580948135E+03  0.48587722354E+02  0.96320358270E+02  0.24119058001E+03  0.12500217588E+03 0.  0.
          2    1    1    2  501    0 -0.12528561747E+03 -0.26610906606E+02 -0.21057265862E+04  0.21096182313E+04  0.00000000000E+00 0. -1.
          1    1    1    2  502    0 -0.50523863881E+02 -0.21976815748E+02  0.25998752433E+03  0.26576146082E+03  0.00000000000E+00 0. -1.
         22    1    3    3    0    0  0.15368581990E+03  0.68247803979E+02  0.33099229717E+02  0.17138451795E+03  0.00000000000E+00 0. -1.
         22    1    3    3    0    0  0.22123661451E+02 -0.19660081624E+02  0.63221128553E+02  0.69806062065E+02  0.00000000000E+00 0. -1.
</event>
<event>
 7    1  0.6315518E-006  0.1391513E+03  0.7818608E-02  0.1283920E+00
          2   -1    0    0  502    0  0.00000000000E+00  0.00000000000E+00  0.95417947375E+03  0.95417947375E+03  0.00000000000E+00 0. -1.
          1   -1    0    0  501    0 -0.00000000000E+00 -0.00000000000E+00 -0.13532118367E+03  0.13532118367E+03  0.00000000000E+00 0. -1.
         25    2    1    2    0    0  0.62436641458E+02 -0.12791564995E+03  0.56030768941E+03  0.59146311574E+03  0.12499265087E+03 0.  0.
          2    1    1    2  501    0 -0.11400706907E+03  0.81419370640E+02 -0.73914739195E+02  0.15839859338E+03  0.00000000000E+00 0. -1.
          1    1    1    2  502    0  0.51570427613E+02  0.46496279313E+02  0.33246533986E+03  0.33963894830E+03  0.00000000000E+00 0. -1.
         22    1    3    3    0    0  0.68330858788E+02 -0.11764164119E+02  0.26913536817E+03  0.27792327758E+03  0.00000000000E+00 0. -1.
         22    1    3    3    0    0 -0.58942173300E+01 -0.11615148583E+03  0.29117232124E+03  0.31353983817E+03  0.00000000000E+00 0. -1.
</event>
<event>
 7    1  0.6315518E-006  0.4338947E+02  0.7818608E-02  0.1511867E+00
          2   -1    0    0  502    0  0.00000000000E+00  0.00000000000E+00  0.72532317029E+03  0.72532317029E+03  0.00000000000E+00 0. -1.
          1   -1    0    0  501    0 -0.00000000000E+00 -0.00000000000E+00 -0.80621395931E+03  0.80621395931E+03  0.00000000000E+00 0. -1.
         25    2    1    2    0    0 -0.69399398446E+02  0.36279137119E+02  0.21615513527E+02  0.14907533593E+03  0.12499509216E+03 0.  0.
          2    1    1    2  501    0  0.35317473788E+02 -0.24769702246E+02 -0.74135105495E+03  0.74260504225E+03  0.00000000000E+00 0. -1.
          1    1    1    2  502    0  0.34081924657E+02 -0.11509434873E+02  0.63884475240E+03  0.63985675143E+03  0.00000000000E+00 0. -1.
         22    1    3    3    0    0 -0.65620427880E+02  0.70869952109E+02 -0.15924750579E+02  0.97888652805E+02  0.00000000000E+00 0.  1.
         22    1    3    3    0    0 -0.37789705659E+01 -0.34590814989E+02  0.37540264107E+02  0.51186683125E+02  0.00000000000E+00 0.  1.
</event>
<event>
 7    1  0.6315518E-006  0.1582160E+03  0.7818608E-02  0.1264383E+00
          2   -1    0    0  502    0  0.00000000000E+00  0.00000000000E+00  0.69263144013E+03  0.69263144013E+03  0.00000000000E+00 0. -1.
          1   -1    0    0  501    0 -0.00000000000E+00 -0.00000000000E+00 -0.22927593799E+03  0.22927593799E+03  0.00000000000E+00 0. -1.
         25    2    1    2    0    0  0.40013138804E+02 -0.13101793961E+03  0.20650923877E+03  0.27755555727E+03  0.12499707956E+03 0.  0.
          2    1    1    2  501    0 -0.11255214136E+03  0.11812506134E+03 -0.15554944581E+03  0.22542658391E+03  0.00000000000E+00 0. -1.
          1    1    1    2  502    0  0.72539002556E+02  0.12892878269E+02  0.41239570918E+03  0.41892523695E+03  0.00000000000E+00 0. -1.
         22    1    3    3    0    0  0.24926846552E+02 -0.15223269188E+02 -0.10569822103E+02  0.31061499369E+02  0.00000000000E+00 0. -1.
         22    1    3    3    0    0  0.15086292252E+02 -0.11579467042E+03  0.21707906087E+03  0.24649405790E+03  0.00000000000E+00 0. -1.
</event>
<event>
 7    1  0.6315518E-006  0.6564640E+02  0.7818608E-02  0.1467930E+00
          2   -1    0    0  502    0  0.00000000000E+00  0.00000000000E+00  0.18759572138E+02  0.18759572138E+02  0.00000000000E+00 0. -1.
          1   -1    0    0  501    0 -0.00000000000E+00 -0.00000000000E+00 -0.15176155287E+04  0.15176155287E+04  0.00000000000E+00 0. -1.
         25    2    1    2    0    0  0.31596537042E+02 -0.33266708387E+02 -0.55962581082E+03  0.57524946275E+03  0.12500352484E+03 0.  0.
          2    1    1    2  501    0  0.32094530127E+02  0.35868969316E+01 -0.83380117313E+03  0.83442634246E+03  0.00000000000E+00 0. -1.
          1    1    1    2  502    0 -0.63691067169E+02  0.29679811456E+02 -0.10542897265E+03  0.12669929565E+03  0.00000000000E+00 0. -1.
         22    1    3    3    0    0 -0.15318274897E+02  0.96194998993E+01 -0.43476171847E+03  0.43513783583E+03  0.00000000000E+00 0.  1.
         22    1    3    3    0    0  0.46914811939E+02 -0.42886208287E+02 -0.12486409235E+03  0.14011162692E+03  0.00000000000E+00 0.  1.
</event>
<event>
 7    1  0.6315518E-006  0.1023834E+03  0.7818608E-02  0.1304008E+00
          2   -1    0    0  502    0  0.00000000000E+00  0.00000000000E+00  0.11361859266E+04  0.11361859266E+04  0.00000000000E+00 0. -1.
          1   -1    0    0  501    0 -0.00000000000E+00 -0.00000000000E+00 -0.43301512198E+03  0.43301512198E+03  0.00000000000E+00 0. -1.
         25    2    1    2    0    0 -0.46958264793E+02  0.15452824384E+03 -0.47106051252E+02  0.20959160122E+03  0.12500240981E+03 0.  0.
          2    1    1    2  501    0  0.57096291050E+02 -0.53551195930E+02 -0.29714480023E+03  0.30728284908E+03  0.00000000000E+00 0. -1.
          1    1    1    2  502    0 -0.10138026257E+02 -0.10097704791E+03  0.10474216561E+04  0.10523265982E+04  0.00000000000E+00 0. -1.
         22    1    3    3    0    0 -0.13009919138E+02  0.16739899187E+03 -0.39831660042E+02  0.17256373205E+03  0.00000000000E+00 0.  1.
         22    1    3    3    0    0 -0.33948345655E+02 -0.12870748033E+02 -0.72743912103E+01  0.37027869168E+02  0.00000000000E+00 0.  1.
</event>
<event>
 7    1  0.6315518E-006  0.9349287E+02  0.7818608E-02  0.1330977E+00
          2   -1    0    0  502    0  0.00000000000E+00  0.00000000000E+00  0.71620422175E+03  0.71620422175E+03  0.00000000000E+00 0. -1.
          1   -1    0    0  501    0 -0.00000000000E+00 -0.00000000000E+00 -0.48468693975E+03  0.48468693975E+03  0.00000000000E+00 0. -1.
         25    2    1    2    0    0  0.72630303068E-01  0.72093799933E+02 -0.24663589065E+03  0.28574860104E+03  0.12500191669E+03 0.  0.
          2    1    1    2  501    0 -0.67026867172E+02 -0.61065535224E+01 -0.21003924805E+03  0.22055923612E+03  0.00000000000E+00 0. -1.
          1    1    1    2  502    0  0.66954236869E+02 -0.65987246411E+02  0.68819242071E+03  0.69458332433E+03  0.00000000000E+00 0. -1.
         22    1    3    3    0    0  0.59060367765E+01  0.75745568815E+02 -0.25991524773E+03  0.27079181758E+03  0.00000000000E+00 0.  1.
         22    1    3    3    0    0 -0.58334064734E+01 -0.36517688821E+01  0.13279357080E+02  0.14956783461E+02  0.00000000000E+00 0.  1.
</event>
<event>
 7    1  0.6315518E-006  0.6735056E+02  0.7818608E-02  0.1383226E+00
          2   -1    0    0  502    0  0.00000000000E+00  0.00000000000E+00  0.25484176518E+04  0.25484176518E+04  0.00000000000E+00 0. -1.
          1   -1    0    0  501    0 -0.00000000000E+00 -0.00000000000E+00 -0.69971932412E+03  0.69971932412E+03  0.00000000000E+00 0. -1.
         25    2    1    2    0    0 -0.22568032746E+01 -0.41344645310E+02 -0.42754988004E+03  0.44736869783E+03  0.12500151605E+03 0.  0.
          2    1    1    2  501    0  0.69606978127E+02  0.41573500971E+02 -0.25553528818E+03  0.26808910998E+03  0.00000000000E+00 0. -1.
          1    1    1    2  502    0 -0.67350174853E+02 -0.22885566107E+00  0.25317834959E+04  0.25326791681E+04  0.00000000000E+00 0. -1.
         22    1    3    3    0    0 -0.22326985102E+02  0.37178605737E+02 -0.22618994668E+03  0.23030986728E+03  0.00000000000E+00 0. -1.
         22    1    3    3    0    0  0.20070181827E+02 -0.78523251047E+02 -0.20135993336E+03  0.21705883054E+03  0.00000000000E+00 0. -1.
</event>
<event>
 7    1  0.6315518E-006  0.4350630E+02  0.7818608E-02  0.1499344E+00
          2   -1    0    0  502    0  0.00000000000E+00  0.00000000000E+00  0.18914056980E+04  0.18914056980E+04  0.00000000000E+00 0. -1.
          1   -1    0    0  501    0 -0.00000000000E+00 -0.00000000000E+00 -0.85234946802E+03  0.85234946802E+03  0.00000000000E+00 0. -1.
         25    2    1    2    0    0  0.24841335037E+01  0.51606634322E+01 -0.23788490412E+02  0.12737272768E+03  0.12500046446E+03 0.  0.
          2    1    1    2  501    0  0.27501285151E+01 -0.43882982361E+02 -0.77593891276E+03  0.77718368208E+03  0.00000000000E+00 0. -1.
          1    1    1    2  502    0 -0.52342620188E+01  0.38722318929E+02  0.18387836332E+04  0.18391987563E+04  0.00000000000E+00 0. -1.
         22    1    3    3    0    0  0.53564997970E+02  0.23335871379E+02 -0.39970540901E+02  0.70791355690E+02  0.00000000000E+00 0. -1.
         22    1    3    3    0    0 -0.51080864466E+02 -0.18175207946E+02  0.16182050488E+02  0.56581371992E+02  0.00000000000E+00 0. -1.
</event>
<event>
 7    1  0.6315518E-006  0.6563612E+02  0.7818608E-02  0.1399191E+00
          2   -1    0    0  502    0  0.00000000000E+00  0.00000000000E+00  0.45759462009E+03  0.45759462009E+03  0.00000000000E+00 0. -1.
          1   -1    0    0  501    0 -0.00000000000E+00 -0.00000000000E+00 -0.10897433168E+04  0.10897433168E+04  0.00000000000E+00 0. -1.
         25    2    1    2    0    0  0.24751162080E+02  0.58093868254E+02 -0.41196938864E+03  0.43512271664E+03  0.12500193522E+03 0.  0.
          2    1    1    2  501    0 -0.54255154188E+02  0.69608186631E+00 -0.66265714801E+03  0.66487487702E+03  0.00000000000E+00 0. -1.
          1    1    1    2  502    0  0.29503992108E+02 -0.58789950120E+02  0.44247783997E+03  0.44734034320E+03  0.00000000000E+00 0. -1.
         22    1    3    3    0    0  0.48177669739E+02  0.12943524620E+01 -0.32549367473E+03  0.32904239164E+03  0.00000000000E+00 0.  1.
         22    1    3    3    0    0 -0.23426507659E+02  0.56799515792E+02 -0.86475713911E+02  0.10608032500E+03  0.00000000000E+00 0.  1.
</event>
<event>
 7    1  0.6315518E-006  0.6025215E+02  0.7818608E-02  0.1427735E+00
          2   -1    0    0  502    0  0.00000000000E+00  0.00000000000E+00  0.18323169036E+04  0.18323169036E+04  0.00000000000E+00 0. -1.
          1   -1    0    0  501    0 -0.00000000000E+00 -0.00000000000E+00 -0.24799872416E+02  0.24799872416E+02  0.00000000000E+00 0. -1.
         25    2    1    2    0    0  0.25648906977E+02 -0.21109510908E+02  0.26760881562E+03  0.29722396579E+03  0.12499651900E+03 0.  0.
          2    1    1    2  501    0  0.35393868908E+02  0.31464808942E+02  0.50623749118E+02  0.69321887833E+02  0.00000000000E+00 0. -1.
          1    1    1    2  502    0 -0.61042775884E+02 -0.10355298034E+02  0.14892844665E+04  0.14905709224E+04  0.00000000000E+00 0. -1.
         22    1    3    3    0    0  0.45766265082E+02 -0.63609340129E+01  0.23490477567E+02  0.51834496596E+02  0.00000000000E+00 0.  1.
         22    1    3    3    0    0 -0.20117358105E+02 -0.14748576896E+02  0.24411833805E+03  0.24538946919E+03  0.00000000000E+00 0.  1.
</event>
<event>
 7    1  0.6315518E-006  0.4537172E+02  0.7818608E-02  0.1553263E+00
          2   -1    0    0  502    0  0.00000000000E+00  0.00000000000E+00  0.23702517094E+03  0.23702517094E+03  0.00000000000E+00 0. -1.
          1   -1    0    0  501    0 -0.00000000000E+00 -0.00000000000E+00 -0.66627525308E+03  0.66627525308E+03  0.00000000000E+00 0. -1.
         25    2    1    2    0    0  0.48451661149E+02 -0.83058030099E+01  0.11487141638E+03  0.17673939615E+03  0.12499928807E+03 0.  0.
          2    1    1    2  501    0 -0.42046378373E+02 -0.17102840895E+02 -0.63262936658E+03  0.63425572174E+03  0.00000000000E+00 0. -1.
          1    1    1    2  502    0 -0.64052827763E+01  0.25408643904E+02  0.88507868057E+02  0.92305306134E+02  0.00000000000E+00 0. -1.
         22    1    3    3    0    0  0.80687051477E+02  0.25450182842E+02  0.55362708795E+02  0.10110955251E+03  0.00000000000E+00 0. -1.
         22    1    3    3    0    0 -0.32235390328E+02 -0.33755985852E+02  0.59508707586E+02  0.75629843640E+02  0.00000000000E+00 0. -1.
</event>
<event>
 7    1  0.6315518E-006  0.9650541E+02  0.7818608E-02  0.1417058E+00
          2   -1    0    0  502    0  0.00000000000E+00  0.00000000000E+00  0.10746421421E+04  0.10746421421E+04  0.00000000000E+00 0. -1.
          1   -1    0    0  501    0 -0.00000000000E+00 -0.00000000000E+00 -0.51759429410E+03  0.51759429410E+03  0.00000000000E+00 0. -1.
         25    2    1    2    0    0  0.35909039985E+02  0.99660578376E+02 -0.37117854416E+03  0.40573515697E+03  0.12500326365E+03 0.  0.
          2    1    1    2  501    0 -0.54093464718E+01 -0.89688355357E+02 -0.11323116067E+03  0.14454949969E+03  0.00000000000E+00 0. -1.
          1    1    1    2  502    0 -0.30499693514E+02 -0.99722230190E+01  0.10414575529E+04  0.10419517796E+04  0.00000000000E+00 0. -1.
         22    1    3    3    0    0 -0.16074070811E+02  0.59498635559E+02 -0.54364684999E+02  0.82182615929E+02  0.00000000000E+00 0.  1.
         22    1    3    3    0    0  0.51983110797E+02  0.40161942817E+02 -0.31681385916E+03  0.32355254104E+03  0.00000000000E+00 0.  1.
</event>
<event>
 7    1  0.6315518E-006  0.5366536E+02  0.7818608E-02  0.1494906E+00
          2   -1    0    0  502    0  0.00000000000E+00  0.00000000000E+00  0.26076857071E+03  0.26076857071E+03  0.00000000000E+00 0. -1.
          1   -1    0    0  501    0 -0.00000000000E+00 -0.00000000000E+00 -0.45738409272E+03  0.45738409272E+03  0.00000000000E+00 0. -1.
         25    2    1    2    0    0 -0.72205672848E+02 -0.43779036823E+02 -0.61459148002E+01  0.15098418877E+03  0.12501275828E+03 0.  0.
          2    1    1    2  501    0  0.25419285770E+02  0.20510720840E+02 -0.37447034549E+03  0.37589209810E+03  0.00000000000E+00 0. -1.
          1    1    1    2  502    0  0.46786387078E+02  0.23268315983E+02  0.18400073828E+03  0.19127637656E+03  0.00000000000E+00 0. -1.
         22    1    3    3    0    0 -0.56508806661E+02 -0.46159305977E+02  0.52717702770E+02  0.90017125836E+02  0.00000000000E+00 0. -1.
         22    1    3    3    0    0 -0.15696866186E+02  0.23802691538E+01 -0.58863617570E+02  0.60967062933E+02  0.00000000000E+00 0. -1.
</event>
<event>
 7    1  0.6315518E-006  0.5547975E+02  0.7818608E-02  0.1500573E+00
          2   -1    0    0  502    0  0.00000000000E+00  0.00000000000E+00  0.13720549304E+04  0.13720549304E+04  0.00000000000E+00 0. -1.
          1   -1    0    0  501    0 -0.00000000000E+00 -0.00000000000E+00 -0.49944764447E+03  0.49944764447E+03  0.00000000000E+00 0. -1.
         25    2    1    2    0    0  0.43569285889E+02 -0.73647669587E+02  0.48911990459E+03  0.51204216915E+03  0.12500655988E+03 0.  0.
          2    1    1    2  501    0 -0.25759510348E+02  0.49030699852E+02 -0.48614880439E+03  0.48929359480E+03  0.00000000000E+00 0. -1.
          1    1    1    2  502    0 -0.17809775541E+02  0.24616969735E+02  0.86963618570E+03  0.87016681090E+03  0.00000000000E+00 0. -1.
         22    1    3    3    0    0  0.76031535480E+02 -0.40401924115E+02  0.42014249380E+03  0.42887390333E+03  0.00000000000E+00 0.  1.
         22    1    3    3    0    0 -0.32462249591E+02 -0.33245745472E+02  0.68977410786E+02  0.83168265819E+02  0.00000000000E+00 0.  1.
</event>
<event>
 7    1  0.6315518E-006  0.7338187E+02  0.7818608E-02  0.1430534E+00
          2   -1    0    0  502    0  0.00000000000E+00  0.00000000000E+00  0.21960405258E+03  0.21960405258E+03  0.00000000000E+00 0. -1.
          1   -1    0    0  501    0 -0.00000000000E+00 -0.00000000000E+00 -0.36067425830E+03  0.36067425830E+03  0.00000000000E+00 0. -1.
         25    2    1    2    0    0 -0.86375134894E+02 -0.30068848151E+02 -0.28207798321E+03  0.32181578610E+03  0.12503044434E+03 0.  0.
          2    1    1    2  501    0  0.48697733444E+02  0.35502669225E+02 -0.40757649050E+02  0.72753657782E+02  0.00000000000E+00 0. -1.
          1    1    1    2  502    0  0.37677401451E+02 -0.54338210736E+01  0.18176542655E+03  0.18570886700E+03  0.00000000000E+00 0. -1.
         22    1    3    3    0    0 -0.79949200260E+02 -0.31275260634E+02 -0.29505188092E+03  0.30728753470E+03  0.00000000000E+00 0.  1.
         22    1    3    3    0    0 -0.64259346344E+01  0.12064124830E+01  0.12973897704E+02  0.14528251397E+02  0.00000000000E+00 0.  1.
</event>
<event>
 7    1  0.6315518E-006  0.3812013E+02  0.7818608E-02  0.1535810E+00
          2   -1    0    0  502    0  0.00000000000E+00  0.00000000000E+00  0.35427612965E+03  0.35427612965E+03  0.00000000000E+00 0. -1.
          1   -1    0    0  501    0 -0.00000000000E+00 -0.00000000000E+00 -0.69111266100E+03  0.69111266100E+03  0.00000000000E+00 0. -1.
         25    2    1    2    0    0 -0.30255311528E+02 -0.65931822331E+02 -0.71028023311E+02  0.16103911188E+03  0.12500490546E+03 0.  0.
          2    1    1    2  501    0  0.14873145229E+02  0.34585923841E+02 -0.57347436242E+03  0.57470883143E+03  0.00000000000E+00 0. -1.
          1    1    1    2  502    0  0.15382166299E+02  0.31345898490E+02  0.30766585438E+03  0.30964084734E+03  0.00000000000E+00 0. -1.
         22    1    3    3    0    0  0.11812881458E+02 -0.59503987408E+02 -0.94607360769E+02  0.11238692716E+03  0.00000000000E+00 0. -1.
         22    1    3    3    0    0 -0.42068192986E+02 -0.64278349236E+01  0.23579337457E+02  0.48652184718E+02  0.00000000000E+00 0. -1.
</event>
<event>
 7    1  0.6315518E-006  0.8836985E+02  0.7818608E-02  0.1395482E+00
          2   -1    0    0  502    0  0.00000000000E+00  0.00000000000E+00  0.24570994670E+03  0.24570994670E+03  0.00000000000E+00 0. -1.
          1   -1    0    0  501    0 -0.00000000000E+00 -0.00000000000E+00 -0.50356079170E+03  0.50356079170E+03  0.00000000000E+00 0. -1.
         25    2    1    2    0    0 -0.12562089608E+03 -0.84275474351E+01 -0.10822176507E+03  0.20781819387E+03  0.12499927271E+03 0.  0.
          2    1    1    2  501    0  0.84370718975E+02  0.38214383513E+01 -0.33808778434E+03  0.34847721809E+03  0.00000000000E+00 0. -1.
          1    1    1    2  502    0  0.41250177109E+02  0.46061090838E+01  0.18845870440E+03  0.19297532645E+03  0.00000000000E+00 0. -1.
         22    1    3    3    0    0 -0.11488209058E+02  0.38425015927E+02  0.49359398417E+01  0.40408220679E+02  0.00000000000E+00 0.  1.
         22    1    3    3    0    0 -0.11413268703E+03 -0.46852563362E+02 -0.11315770491E+03  0.16740997319E+03  0.00000000000E+00 0.  1.
</event>
<event>
 7    1  0.6315518E-006  0.4270785E+02  0.7818608E-02  0.1573142E+00
          2   -1    0    0  502    0  0.00000000000E+00  0.00000000000E+00  0.12062075868E+04  0.12062075868E+04  0.00000000000E+00 0. -1.
          1   -1    0    0  501    0 -0.00000000000E+00 -0.00000000000E+00 -0.31699584234E+03  0.31699584234E+03  0.00000000000E+00 0. -1.
         25    2    1    2    0    0  0.17529763693E+01  0.19442393725E+02 -0.60507408011E+02  0.14028269685E+03  0.12504802682E+03 0.  0.
          2    1    1    2  501    0  0.13362515715E+02  0.20601077376E+02 -0.21551067518E+03  0.21690507678E+03  0.00000000000E+00 0. -1.
          1    1    1    2  502    0 -0.15115492085E+02 -0.40043471101E+02  0.11652298276E+04  0.11660156555E+04  0.00000000000E+00 0. -1.
         22    1    3    3    0    0 -0.47166346538E+02  0.38149779576E+02 -0.63504054792E+02  0.87822747067E+02  0.00000000000E+00 0.  1.
         22    1    3    3    0    0  0.48919322907E+02 -0.18707385851E+02  0.29966467810E+01  0.52459949781E+02  0.00000000000E+00 0.  1.
</event>
<event>
 7    1  0.6315518E-006  0.5420927E+02  0.7818608E-02  0.1565593E+00
          2   -1    0    0  502    0  0.00000000000E+00  0.00000000000E+00  0.37979537560E+02  0.37979537560E+02  0.00000000000E+00 0. -1.
          1   -1    0    0  501    0 -0.00000000000E+00 -0.00000000000E+00 -0.13677599491E+04  0.13677599491E+04  0.00000000000E+00 0. -1.
         25    2    1    2    0    0 -0.28682525560E+02  0.28124109639E+02 -0.19530841723E+03  0.23533746283E+03  0.12499876301E+03 0.  0.
          2    1    1    2  501    0  0.48712668978E+02 -0.24938957127E+02 -0.11458436775E+04  0.11471497761E+04  0.00000000000E+00 0. -1.
          1    1    1    2  502    0 -0.20030143417E+02 -0.31851525125E+01  0.11371683204E+02  0.23252247649E+02  0.00000000000E+00 0. -1.
         22    1    3    3    0    0 -0.40441038260E+02  0.54318811981E+02 -0.42714880620E+02  0.80066047341E+02  0.00000000000E+00 0. -1.
         22    1    3    3    0    0  0.11758512700E+02 -0.26194702341E+02 -0.15259353661E+03  0.15527141549E+03  0.00000000000E+00 0. -1.
</event>
<event>
 7    1  0.6315518E-006  0.1824542E+03  0.7818608E-02  0.1331086E+00
          2   -1    0    0  502    0  0.00000000000E+00  0.00000000000E+00  0.19819370820E+04  0.19819370820E+04  0.00000000000E+00 0. -1.
          1   -1    0    0  501    0 -0.00000000000E+00 -0.00000000000E+00 -0.34124259370E+03  0.34124259370E+03  0.00000000000E+00 0. -1.
         25    2    1    2    0    0  0.20038214799E+03  0.73146039783E+02  0.13315092332E+04  0.13542688935E+04  0.12499619762E+03 0.  0.
          2    1    1    2  501    0 -0.17488929618E+03 -0.49966932283E+02 -0.30426926975E+03  0.35448941980E+03  0.00000000000E+00 0. -1.
          1    1    1    2  502    0 -0.25492851808E+02 -0.23179107500E+02  0.61345452481E+03  0.61442136237E+03  0.00000000000E+00 0. -1.
         22    1    3    3    0    0  0.19962652397E+03  0.28767753988E+02  0.10366588341E+04  0.10560965255E+04  0.00000000000E+00 0. -1.
         22    1    3    3    0    0  0.75562401876E+00  0.44378285795E+02  0.29485039905E+03  0.29817236800E+03  0.00000000000E+00 0. -1.
</event>
<event>
 7    1  0.6315518E-006  0.6923725E+02  0.7818608E-02  0.1415233E+00
          2   -1    0    0  502    0  0.00000000000E+00  0.00000000000E+00  0.24504237889E+03  0.24504237889E+03  0.00000000000E+00 0. -1.
          1   -1    0    0  501    0 -0.00000000000E+00 -0.00000000000E+00 -0.24220892776E+04  0.24220892776E+04  0.00000000000E+00 0. -1.
         25    2    1    2    0    0  0.27560764104E+02  0.46380915299E+02 -0.15301351562E+04  0.15361802683E+04  0.12500174214E+03 0.  0.
          2    1    1    2  501    0  0.38208681986E+02 -0.24450394485E+02 -0.88337257577E+03  0.88453650733E+03  0.00000000000E+00 0. -1.
          1    1    1    2  502    0 -0.65769446090E+02 -0.21930520814E+02  0.23646083331E+03  0.24641488079E+03  0.00000000000E+00 0. -1.
         22    1    3    3    0    0  0.53682180096E+02 -0.26380503917E+01 -0.29896567400E+03  0.30375847313E+03  0.00000000000E+00 0.  1.
         22    1    3    3    0    0 -0.26121415993E+02  0.49018965691E+02 -0.12311694822E+04  0.12324217952E+04  0.00000000000E+00 0.  1.
</event>
<event>
 7    1  0.6315518E-006  0.4771979E+02  0.7818608E-02  0.1525548E+00
          2   -1    0    0  502    0  0.00000000000E+00  0.00000000000E+00  0.10365086040E+04  0.10365086040E+04  0.00000000000E+00 0. -1.
          1   -1    0    0  501    0 -0.00000000000E+00 -0.00000000000E+00 -0.81937877971E+02  0.81937877971E+02  0.00000000000E+00 0. -1.
         25    2    1    2    0    0 -0.43970902009E+02  0.63114172328E+02  0.43324064897E+02  0.15303186924E+03  0.12499975773E+03 0.  0.
          2    1    1    2  501    0  0.14124284667E+02 -0.26290534148E+02 -0.18070869310E+02  0.34889022926E+02  0.00000000000E+00 0. -1.
          1    1    1    2  502    0  0.29846617342E+02 -0.36823638180E+02  0.92931753046E+03  0.93052558982E+03  0.00000000000E+00 0. -1.
         22    1    3    3    0    0  0.22214580164E+02  0.65435296334E+02  0.51666071688E+02  0.86282376775E+02  0.00000000000E+00 0. -1.
         22    1    3    3    0    0 -0.66185482173E+02 -0.23211240068E+01 -0.83420067913E+01  0.66749492465E+02  0.00000000000E+00 0. -1.
</event>
<event>
 7    1  0.6315518E-006  0.4625417E+02  0.7818608E-02  0.1536437E+00
          2   -1    0    0  502    0  0.00000000000E+00  0.00000000000E+00  0.39167429382E+03  0.39167429382E+03  0.00000000000E+00 0. -1.
          1   -1    0    0  501    0 -0.00000000000E+00 -0.00000000000E+00 -0.25162654570E+04  0.25162654570E+04  0.00000000000E+00 0. -1.
         25    2    1    2    0    0 -0.72351883367E+02 -0.52737333161E+01  0.67491339289E+02  0.15952972275E+03  0.12502817391E+03 0.  0.
          2    1    1    2  501    0  0.44554430667E+02  0.12246012111E+02 -0.24692913945E+04  0.24697236795E+04  0.00000000000E+00 0. -1.
          1    1    1    2  502    0  0.27797452700E+02 -0.69722787946E+01  0.27720889204E+03  0.27868634856E+03  0.00000000000E+00 0. -1.
         22    1    3    3    0    0  0.12894426098E+02 -0.47043657813E+02  0.31177605989E+02  0.57891407653E+02  0.00000000000E+00 0. -1.
         22    1    3    3    0    0 -0.85246309465E+02  0.41769924497E+02  0.36313733299E+02  0.10163831510E+03  0.00000000000E+00 0. -1.
</event>
<event>
 7    1  0.6315518E-006  0.7059265E+02  0.7818608E-02  0.1410345E+00
          2   -1    0    0  502    0  0.00000000000E+00  0.00000000000E+00  0.98157080773E+03  0.98157080773E+03  0.00000000000E+00 0. -1.
          1   -1    0    0  501    0 -0.00000000000E+00 -0.00000000000E+00 -0.39358141538E+03  0.39358141538E+03  0.00000000000E+00 0. -1.
         25    2    1    2    0    0  0.29464964090E+02  0.44512820861E+02 -0.31600181930E+02  0.13953580974E+03  0.12498838095E+03 0.  0.
          2    1    1    2  501    0 -0.38193501236E+02  0.26018369440E+02 -0.30490844344E+03  0.30839075532E+03  0.00000000000E+00 0. -1.
          1    1    1    2  502    0  0.87285371458E+01 -0.70531190302E+02  0.92449801772E+03  0.92722565804E+03  0.00000000000E+00 0. -1.
         22    1    3    3    0    0 -0.69892495576E+01 -0.41500535011E+02 -0.48603280552E+01  0.42364688178E+02  0.00000000000E+00 0.  1.
         22    1    3    3    0    0  0.36454213648E+02  0.86013355873E+02 -0.26739853875E+02  0.97171121566E+02  0.00000000000E+00 0.  1.
</event>
<event>
 7    1  0.6315518E-006  0.1556302E+03  0.7818608E-02  0.1277875E+00
          2   -1    0    0  502    0  0.00000000000E+00  0.00000000000E+00  0.73762427947E+03  0.73762427947E+03  0.00000000000E+00 0. -1.
          1   -1    0    0  501    0 -0.00000000000E+00 -0.00000000000E+00 -0.18673570833E+04  0.18673570833E+04  0.00000000000E+00 0. -1.
         25    2    1    2    0    0 -0.18900500890E+03  0.31069798029E+02 -0.13210419215E+04  0.13406962059E+04  0.12500532941E+03 0.  0.
          2    1    1    2  501    0  0.12785742947E+03 -0.68916092040E+01 -0.52732564047E+03  0.54264845678E+03  0.00000000000E+00 0. -1.
          1    1    1    2  502    0  0.61147579433E+02 -0.24178188825E+02  0.71863475815E+03  0.72163670009E+03  0.00000000000E+00 0. -1.
         22    1    3    3    0    0 -0.12953507846E+03  0.20456494141E+02 -0.11799582982E+04  0.11872233952E+04  0.00000000000E+00 0. -1.
         22    1    3    3    0    0 -0.59469930437E+02  0.10613303888E+02 -0.14108362330E+03  0.15347281065E+03  0.00000000000E+00 0. -1.
</event>
<event>
 7    1  0.6315518E-006  0.1316948E+03  0.7818608E-02  0.1312510E+00
          2   -1    0    0  502    0  0.00000000000E+00  0.00000000000E+00  0.14242750397E+03  0.14242750397E+03  0.00000000000E+00 0. -1.
          1   -1    0    0  501    0 -0.00000000000E+00 -0.00000000000E+00 -0.21209660491E+04  0.21209660491E+04  0.00000000000E+00 0. -1.
         25    2    1    2    0    0 -0.96250389222E+02  0.96493207554E+01 -0.93756127186E+03  0.95079094576E+03  0.12500014891E+03 0.  0.
          2    1    1    2  501    0 -0.21792774133E+02  0.51940293077E+02 -0.11432969398E+04  0.11446836295E+04  0.00000000000E+00 0. -1.
          1    1    1    2  502    0  0.11804316335E+03 -0.61589613833E+02  0.10231966655E+03  0.16791897781E+03  0.00000000000E+00 0. -1.
         22    1    3    3    0    0  0.14191167508E+02  0.34574532397E+02 -0.38112073530E+03  0.38294882479E+03  0.00000000000E+00 0.  1.
         22    1    3    3    0    0 -0.11044155673E+03 -0.24925211642E+02 -0.55644053655E+03  0.56784212097E+03  0.00000000000E+00 0.  1.
</event>
<event>
 7    1  0.6315518E-006  0.5002433E+02  0.7818608E-02  0.1492907E+00
          2   -1    0    0  502    0  0.00000000000E+00  0.00000000000E+00  0.22782292544E+04  0.22782292544E+04  0.00000000000E+00 0. -1.
          1   -1    0    0  501    0 -0.00000000000E+00 -0.00000000000E+00 -0.21527498306E+04  0.21527498306E+04  0.00000000000E+00 0. -1.
         25    2    1    2    0    0 -0.30865452873E+02  0.85421993513E+01  0.87075770270E+02  0.15570425384E+03  0.12504391047E+03 0.  0.
          2    1    1    2  501    0  0.58463086463E+01  0.35043980959E+02 -0.21179938304E+04  0.21182917942E+04  0.00000000000E+00 0. -1.
          1    1    1    2  502    0  0.25019144227E+02 -0.43586180310E+02  0.21563974840E+04  0.21569830369E+04  0.00000000000E+00 0. -1.
         22    1    3    3    0    0 -0.56242331646E+02  0.52488277290E+02  0.63482954989E+02  0.99741188563E+02  0.00000000000E+00 0.  1.
         22    1    3    3    0    0  0.25376878774E+02 -0.43946077938E+02  0.23592815281E+02  0.55963065278E+02  0.00000000000E+00 0.  1.
</event>
<event>
 7    1  0.6315518E-006  0.7617143E+02  0.7818608E-02  0.1413937E+00
          2   -1    0    0  502    0  0.00000000000E+00  0.00000000000E+00  0.83329415315E+03  0.83329415315E+03  0.00000000000E+00 0. -1.
          1   -1    0    0  501    0 -0.00000000000E+00 -0.00000000000E+00 -0.12671056508E+04  0.12671056508E+04  0.00000000000E+00 0. -1.
         25    2    1    2    0    0 -0.50254111613E+02  0.30599550166E+02 -0.16235577514E+03  0.21317968097E+03  0.12499748178E+03 0.  0.
          2    1    1    2  501    0 -0.26151913969E+02 -0.32414384384E+02 -0.10771270124E+04  0.10779319161E+04  0.00000000000E+00 0. -1.
          1    1    1    2  502    0  0.76406025582E+02  0.18148342177E+01  0.80567128991E+03  0.80928820686E+03  0.00000000000E+00 0. -1.
         22    1    3    3    0    0 -0.72954061120E+02 -0.16789353086E+02 -0.13394575673E+03  0.15344589651E+03  0.00000000000E+00 0.  1.
         22    1    3    3    0    0  0.22699949507E+02  0.47388903252E+02 -0.28410018413E+02  0.59733784455E+02  0.00000000000E+00 0.  1.
</event>
<event>
 7    1  0.6315518E-006  0.8999298E+02  0.7818608E-02  0.1320522E+00
          2   -1    0    0  502    0  0.00000000000E+00  0.00000000000E+00  0.34480435369E+03  0.34480435369E+03  0.00000000000E+00 0. -1.
          1   -1    0    0  501    0 -0.00000000000E+00 -0.00000000000E+00 -0.44719184479E+03  0.44719184479E+03  0.00000000000E+00 0. -1.
         25    2    1    2    0    0  0.76455544165E+02 -0.13572197723E+03 -0.49005445017E+02  0.20564754667E+03  0.12499389775E+03 0.  0.
          2    1    1    2  501    0 -0.14344173207E+02  0.75351412553E+02 -0.30799665838E+03  0.31740436709E+03  0.00000000000E+00 0. -1.
          1    1    1    2  502    0 -0.62111370957E+02  0.60370564680E+02  0.25461461230E+03  0.26894428471E+03  0.00000000000E+00 0. -1.
         22    1    3    3    0    0  0.41212662652E+02 -0.14344793571E+02 -0.64957882415E+02  0.78254604678E+02  0.00000000000E+00 0. -1.
         22    1    3    3    0    0  0.35242881512E+02 -0.12137718366E+03  0.15952437398E+02  0.12739294199E+03  0.00000000000E+00 0. -1.
</event>
<event>
 7    1  0.6315518E-006  0.6824676E+02  0.7818608E-02  0.1378600E+00
          2   -1    0    0  502    0  0.00000000000E+00  0.00000000000E+00  0.16853906237E+04  0.16853906237E+04  0.00000000000E+00 0. -1.
          1   -1    0    0  501    0 -0.00000000000E+00 -0.00000000000E+00 -0.40886134924E+03  0.40886134924E+03  0.00000000000E+00 0. -1.
         25    2    1    2    0    0  0.50335947839E+02 -0.25398484482E+02  0.17331865025E+03  0.22100883071E+03  0.12500703208E+03 0.  0.
          2    1    1    2  501    0 -0.58928006106E+02 -0.35589602561E+02 -0.38129536756E+03  0.38746004573E+03  0.00000000000E+00 0. -1.
          1    1    1    2  502    0  0.85920582673E+01  0.60988087043E+02  0.14845059917E+04  0.14857830965E+04  0.00000000000E+00 0. -1.
         22    1    3    3    0    0 -0.15517879162E+00  0.19163313461E+02 -0.12823985961E+02  0.23058865523E+02  0.00000000000E+00 0.  1.
         22    1    3    3    0    0  0.50491126631E+02 -0.44561797943E+02  0.18614263621E+03  0.19794996519E+03  0.00000000000E+00 0.  1.
</event>
<event>
 7    1  0.8250201E-006  0.8573064E+02  0.7818608E-02  0.1374559E+00
          2   -1    0    0  502    0  0.00000000000E+00  0.00000000000E+00  0.15202416356E+04  0.15202416356E+04  0.00000000000E+00 0. -1.
          1   -1    0    0  501    0 -0.00000000000E+00 -0.00000000000E+00 -0.10822517969E+04  0.10822517969E+04  0.00000000000E+00 0. -1.
         25    2    1    2    0    0 -0.11392497207E+03 -0.47715595990E+01 -0.91230494445E+02  0.19221798757E+03  0.12499233811E+03 0.  0.
          2    1    1    2  501    0  0.78847673945E+02 -0.31808992869E+02 -0.93816771955E+03  0.94201244032E+03  0.00000000000E+00 0. -1.
          1    1    1    2  502    0  0.35077298125E+02  0.36580552468E+02  0.14673880527E+04  0.14682630046E+04  0.00000000000E+00 0. -1.
         22    1    3    3    0    0  0.14586174771E+02  0.19944663686E+02  0.10113410658E+02  0.26698823553E+02  0.00000000000E+00 0. -1.
         22    1    3    3    0    0 -0.12851114684E+03 -0.24716223285E+02 -0.10134390510E+03  0.16551916402E+03  0.00000000000E+00 0. -1.
</event>
<event>
 7    1  0.6315518E-006  0.5858579E+02  0.7818608E-02  0.1470433E+00
          2   -1    0    0  502    0  0.00000000000E+00  0.00000000000E+00  0.38412907038E+03  0.38412907038E+03  0.00000000000E+00 0. -1.
          1   -1    0    0  501    0 -0.00000000000E+00 -0.00000000000E+00 -0.86855730127E+02  0.86855730127E+02  0.00000000000E+00 0. -1.
         25    2    1    2    0    0 -0.53763291392E+01 -0.19010217097E+02  0.27766548974E+03  0.30514544698E+03  0.12500130540E+03 0.  0.
          2    1    1    2  501    0 -0.53623609792E+02  0.23596677387E+02 -0.48181626156E+02  0.75853568209E+02  0.00000000000E+00 0. -1.
          1    1    1    2  502    0  0.58999938932E+02 -0.45864602902E+01  0.67789476675E+02  0.89985785321E+02  0.00000000000E+00 0. -1.
         22    1    3    3    0    0 -0.59291249664E+02 -0.16297110703E+01  0.80423673961E+02  0.99930353639E+02  0.00000000000E+00 0. -1.
         22    1    3    3    0    0  0.53914920525E+02 -0.17380506027E+02  0.19724181578E+03  0.20521509334E+03  0.00000000000E+00 0. -1.
</event>
<event>
 7    1  0.6315518E-006  0.3961720E+02  0.7818608E-02  0.1512028E+00
          2   -1    0    0  502    0  0.00000000000E+00  0.00000000000E+00  0.80435561624E+03  0.80435561624E+03  0.00000000000E+00 0. -1.
          1   -1    0    0  501    0 -0.00000000000E+00 -0.00000000000E+00 -0.52560645784E+03  0.52560645784E+03  0.00000000000E+00 0. -1.
         25    2    1    2    0    0 -0.51541563174E+02 -0.79002847254E+00  0.22741516038E+03  0.26457515586E+03  0.12500080418E+03 0.  0.
          2    1    1    2  501    0  0.25526580287E+02  0.30320867349E+02 -0.50555635656E+03  0.50710767196E+03  0.00000000000E+00 0. -1.
          1    1    1    2  502    0  0.26014982887E+02 -0.29530838877E+02  0.55689035458E+03  0.55827924626E+03  0.00000000000E+00 0. -1.
         22    1    3    3    0    0  0.20479694612E+02  0.45114308826E+02  0.75691787069E+02  0.90465271690E+02  0.00000000000E+00 0.  1.
         22    1    3    3    0    0 -0.72021257785E+02 -0.45904337298E+02  0.15172337332E+03  0.17410988417E+03  0.00000000000E+00 0.  1.
</event>
<event>
 7    1  0.6315518E-006  0.1169913E+03  0.7818608E-02  0.1313463E+00
          2   -1    0    0  502    0  0.00000000000E+00  0.00000000000E+00  0.10907241689E+03  0.10907241689E+03  0.00000000000E+00 0. -1.
          1   -1    0    0  501    0 -0.00000000000E+00 -0.00000000000E+00 -0.11609218850E+04  0.11609218850E+04  0.00000000000E+00 0. -1.
         25    2    1    2    0    0  0.33852993266E+02 -0.74795780003E+02 -0.32130574448E+03  0.35440499147E+03  0.12500033073E+03 0.  0.
          2    1    1    2  501    0 -0.95358798208E+02  0.87786900897E+02 -0.80658239898E+03  0.81693023368E+03  0.00000000000E+00 0. -1.
          1    1    1    2  502    0  0.61505804942E+02 -0.12991120895E+02  0.76038675374E+02  0.98659076705E+02  0.00000000000E+00 0. -1.
         22    1    3    3    0    0 -0.84520445648E+01  0.29141853542E+02 -0.12161962014E+03  0.12534758349E+03  0.00000000000E+00 0.  1.
         22    1    3    3    0    0  0.42305037831E+02 -0.10393763354E+03 -0.19968612434E+03  0.22905740797E+03  0.00000000000E+00 0.  1.
</event>
<event>
 7    1  0.6315518E-006  0.9712508E+02  0.7818608E-02  0.1398204E+00
          2   -1    0    0  502    0  0.00000000000E+00  0.00000000000E+00  0.86784590066E+03  0.86784590066E+03  0.00000000000E+00 0. -1.
          1   -1    0    0  501    0 -0.00000000000E+00 -0.00000000000E+00 -0.98411308700E+02  0.98411308700E+02  0.00000000000E+00 0. -1.
         25    2    1    2    0    0 -0.48813985879E+02 -0.52157716463E+02  0.19109628583E+03  0.23926129232E+03  0.12499977176E+03 0.  0.
          2    1    1    2  501    0 -0.36860066375E+02 -0.26628521620E+01 -0.65482025744E+02  0.75190763864E+02  0.00000000000E+00 0. -1.
          1    1    1    2  502    0  0.85674052254E+02  0.54820568625E+02  0.64382033188E+03  0.65180515318E+03  0.00000000000E+00 0. -1.
         22    1    3    3    0    0 -0.50942420385E+02 -0.29435191339E+02  0.13707868782E+02  0.60410813191E+02  0.00000000000E+00 0. -1.
         22    1    3    3    0    0  0.21284345060E+01 -0.22722525124E+02  0.17738841705E+03  0.17885047913E+03  0.00000000000E+00 0. -1.
</event>
<event>
 7    1  0.6315518E-006  0.5483316E+02  0.7818608E-02  0.1449669E+00
          2   -1    0    0  502    0  0.00000000000E+00  0.00000000000E+00  0.19809339382E+03  0.19809339382E+03  0.00000000000E+00 0. -1.
          1   -1    0    0  501    0 -0.00000000000E+00 -0.00000000000E+00 -0.48319290222E+03  0.48319290222E+03  0.00000000000E+00 0. -1.
         25    2    1    2    0    0  0.16823872367E+02 -0.90534541478E+02 -0.10501594335E+03  0.18743641747E+03  0.12499806540E+03 0.  0.
          2    1    1    2  501    0 -0.24610244442E+02  0.47069241498E+02 -0.33170430304E+03  0.33592993657E+03  0.00000000000E+00 0. -1.
          1    1    1    2  502    0  0.77863720752E+01  0.43465299980E+02  0.15162073800E+03  0.15791994201E+03  0.00000000000E+00 0. -1.
         22    1    3    3    0    0 -0.48829873668E+02 -0.40523860043E+02 -0.14787315798E+02  0.65155233893E+02  0.00000000000E+00 0. -1.
         22    1    3    3    0    0  0.65653746035E+02 -0.50010681435E+02 -0.90228627552E+02  0.12228118357E+03  0.00000000000E+00 0. -1.
</event>
<event>
 7    1  0.6315518E-006  0.9726102E+02  0.7818608E-02  0.1369319E+00
          2   -1    0    0  502    0  0.00000000000E+00  0.00000000000E+00  0.46087657503E+03  0.46087657503E+03  0.00000000000E+00 0. -1.
          1   -1    0    0  501    0 -0.00000000000E+00 -0.00000000000E+00 -0.24543967553E+03  0.24543967553E+03  0.00000000000E+00 0. -1.
         25    2    1    2    0    0 -0.61304058116E+02  0.75831029395E+02  0.10360351735E+03  0.18938776715E+03  0.12500201990E+03 0.  0.
          2    1    1    2  501    0  0.89978972474E+02 -0.39038381015E+02 -0.18876823604E+03  0.21272907093E+03  0.00000000000E+00 0. -1.
          1    1    1    2  502    0 -0.28674914358E+02 -0.36792648381E+02  0.30060161820E+03  0.30419941248E+03  0.00000000000E+00 0. -1.
         22    1    3    3    0    0 -0.58708924206E+02  0.56522332494E+02  0.13189249368E+03  0.15503916196E+03  0.00000000000E+00 0. -1.
         22    1    3    3    0    0 -0.25951339101E+01  0.19308696901E+02 -0.28288976337E+02  0.34348605186E+02  0.00000000000E+00 0. -1.
</event>
<event>
 7    1  0.6315518E-006  0.6400346E+02  0.7818608E-02  0.1430185E+00
          2   -1    0    0  502    0  0.00000000000E+00  0.00000000000E+00  0.43980807038E+03  0.43980807038E+03  0.00000000000E+00 0. -1.
          1   -1    0    0  501    0 -0.00000000000E+00 -0.00000000000E+00 -0.16276818723E+04  0.16276818723E+04  0.00000000000E+00 0. -1.
         25    2    1    2    0    0  0.17221020484E+02  0.84658909405E+02  0.17266274596E+03  0.23000127768E+03  0.12499787760E+03 0.  0.
          2    1    1    2  501    0 -0.41778911477E+02 -0.48438890872E+02 -0.15963591365E+04  0.15976402274E+04  0.00000000000E+00 0. -1.
          1    1    1    2  502    0  0.24557890993E+02 -0.36220018533E+02  0.23582258857E+03  0.23984843762E+03  0.00000000000E+00 0. -1.
         22    1    3    3    0    0 -0.31620531073E+02  0.22275293156E+02 -0.14539942634E+01  0.38706081820E+02  0.00000000000E+00 0.  1.
         22    1    3    3    0    0  0.48841551557E+02  0.62383616249E+02  0.17411674022E+03  0.19129519586E+03  0.00000000000E+00 0.  1.
</event>
<event>
 7    1  0.6315518E-006  0.1178335E+03  0.7818608E-02  0.1393178E+00
          2   -1    0    0  502    0  0.00000000000E+00  0.00000000000E+00  0.13406678668E+04  0.13406678668E+04  0.00000000000E+00 0. -1.
          1   -1    0    0  501    0 -0.00000000000E+00 -0.00000000000E+00 -0.31898198248E+03  0.31898198248E+03  0.00000000000E+00 0. -1.
         25    2    1    2    0    0  0.59473743148E+02 -0.13530930455E+03  0.13544754835E+03  0.23625486869E+03  0.12499836240E+03 0.  0.
          2    1    1    2  501    0 -0.12836797297E+02  0.28991221254E+02 -0.26471201120E+03  0.26660405688E+03  0.00000000000E+00 0. -1.
          1    1    1    2  502    0 -0.46636945852E+02  0.10631808330E+03  0.11509503472E+04  0.11567909237E+04  0.00000000000E+00 0. -1.
         22    1    3    3    0    0  0.14555719759E+00 -0.82430313734E+02  0.38484697076E+01  0.82520231024E+02  0.00000000000E+00 0. -1.
         22    1    3    3    0    0  0.59328185951E+02 -0.52878990818E+02  0.13159907864E+03  0.15373463767E+03  0.00000000000E+00 0. -1.
</event>
<event>
 7    1  0.6315518E-006  0.9129208E+02  0.7818608E-02  0.1459972E+00
          2   -1    0    0  502    0  0.00000000000E+00  0.00000000000E+00  0.27380594523E+03  0.27380594523E+03  0.00000000000E+00 0. -1.
          1   -1    0    0  501    0 -0.00000000000E+00 -0.00000000000E+00 -0.27548999973E+03  0.27548999973E+03  0.00000000000E+00 0. -1.
         25    2    1    2    0    0  0.54581801735E+02  0.60490858262E+02 -0.16278386746E+03  0.22081898393E+03  0.12499647653E+03 0.  0.
          2    1    1    2  501    0  0.22340851288E+02 -0.10289353079E+02 -0.72983466126E+02  0.77016691378E+02  0.00000000000E+00 0. -1.
          1    1    1    2  502    0 -0.76922653023E+02 -0.50201505183E+02  0.23408327908E+03  0.25146026965E+03  0.00000000000E+00 0. -1.
         22    1    3    3    0    0  0.27630056248E+02 -0.36872030706E+02 -0.69026117724E+02  0.82991394643E+02  0.00000000000E+00 0.  1.
         22    1    3    3    0    0  0.26951745487E+02  0.97362888969E+02 -0.93757749733E+02  0.13782758928E+03  0.00000000000E+00 0.  1.
</event>
<event>
 7    1  0.6315518E-006  0.5081752E+02  0.7818608E-02  0.1490966E+00
          2   -1    0    0  502    0  0.00000000000E+00  0.00000000000E+00  0.66628325996E+03  0.66628325996E+03  0.00000000000E+00 0. -1.
          1   -1    0    0  501    0 -0.00000000000E+00 -0.00000000000E+00 -0.73253516570E+03  0.73253516570E+03  0.00000000000E+00 0. -1.
         25    2    1    2    0    0 -0.23873562035E+00  0.21715220822E+02  0.85206506211E+02  0.15283052717E+03  0.12500165409E+03 0.  0.
          2    1    1    2  501    0  0.27173338426E+02  0.22764491288E+02 -0.69703653433E+03  0.69793734860E+03  0.00000000000E+00 0. -1.
          1    1    1    2  502    0 -0.26934602806E+02 -0.44479712111E+02  0.54557812238E+03  0.54805054989E+03  0.00000000000E+00 0. -1.
         22    1    3    3    0    0  0.55990691668E+02  0.10400626876E+02  0.93189432963E+01  0.57705920814E+02  0.00000000000E+00 0.  1.
         22    1    3    3    0    0 -0.56229427288E+02  0.11314593947E+02  0.75887562915E+02  0.95124606356E+02  0.00000000000E+00 0.  1.
</event>
<event>
 7    1  0.6315518E-006  0.1110194E+03  0.7818608E-02  0.1300671E+00
          2   -1    0    0  502    0  0.00000000000E+00  0.00000000000E+00  0.21252379539E+04  0.21252379539E+04  0.00000000000E+00 0. -1.
          1   -1    0    0  501    0 -0.00000000000E+00 -0.00000000000E+00 -0.65785714980E+03  0.65785714980E+03  0.00000000000E+00 0. -1.
         25    2    1    2    0    0 -0.18117397038E+03 -0.13361422964E+01  0.69723506742E+01  0.22025911497E+03  0.12505867116E+03 0.  0.
          2    1    1    2  501    0  0.10728981921E+03  0.10395006517E+02 -0.54524692559E+03  0.55579975831E+03  0.00000000000E+00 0. -1.
          1    1    1    2  502    0  0.73884151169E+02 -0.90588642207E+01  0.20056553790E+04  0.20070362304E+04  0.00000000000E+00 0. -1.
         22    1    3    3    0    0 -0.16876008071E+03 -0.22649158790E+02 -0.32853990744E+02  0.17341376515E+03  0.00000000000E+00 0.  1.
         22    1    3    3    0    0 -0.12413889670E+02  0.21313016494E+02  0.39826341418E+02  0.46845349818E+02  0.00000000000E+00 0.  1.
</event>
<event>
 7    1  0.6315518E-006  0.6861500E+02  0.7818608E-02  0.1367702E+00
          2   -1    0    0  502    0  0.00000000000E+00  0.00000000000E+00  0.16996262828E+04  0.16996262828E+04  0.00000000000E+00 0. -1.
          1   -1    0    0  501    0 -0.00000000000E+00 -0.00000000000E+00 -0.17448623229E+02  0.17448623229E+02  0.00000000000E+00 0. -1.
         25    2    1    2    0    0 -0.10485494119E+02 -0.51513720464E+01  0.30238664250E+03  0.32741420748E+03  0.12500359785E+03 0.  0.
          2    1    1    2  501    0 -0.48423980350E+02  0.48612098951E+02  0.31648293721E+03  0.32383555639E+03  0.00000000000E+00 0. -1.
          1    1    1    2  502    0  0.58909474469E+02 -0.43460726904E+02  0.10633080798E+04  0.10658251421E+04  0.00000000000E+00 0. -1.
         22    1    3    3    0    0  0.24170177386E+02 -0.40335033500E+02  0.25385683674E+03  0.25817514590E+03  0.00000000000E+00 0.  1.
         22    1    3    3    0    0 -0.34655671506E+02  0.35183661454E+02  0.48529805762E+02  0.69239061577E+02  0.00000000000E+00 0.  1.
</event>
<event>
 7    1  0.6315518E-006  0.5497818E+02  0.7818608E-02  0.1494315E+00
          2   -1    0    0  502    0  0.00000000000E+00  0.00000000000E+00  0.11122543605E+03  0.11122543605E+03  0.00000000000E+00 0. -1.
          1   -1    0    0  501    0 -0.00000000000E+00 -0.00000000000E+00 -0.24208170409E+03  0.24208170409E+03  0.00000000000E+00 0. -1.
         25    2    1    2    0    0 -0.11333297127E+01 -0.73350361500E+02 -0.11559160423E+02  0.14539805376E+03  0.12500167951E+03 0.  0.
          2    1    1    2  501    0 -0.20721551423E+02  0.49958032578E+02 -0.15248794997E+03  0.16179543441E+03  0.00000000000E+00 0. -1.
          1    1    1    2  502    0  0.21854881136E+02  0.23392328922E+02  0.33190842341E+02  0.46113651961E+02  0.00000000000E+00 0. -1.
         22    1    3    3    0    0 -0.50667100671E+02  0.55471629113E+01  0.32360969775E+01  0.51072482125E+02  0.00000000000E+00 0.  1.
         22    1    3    3    0    0  0.49533770958E+02 -0.78897524411E+02 -0.14795257400E+02  0.94325571639E+02  0.00000000000E+00 0.  1.
</event>
<event>
 7    1  0.6315518E-006  0.1197045E+03  0.7818608E-02  0.1244016E+00
          2   -1    0    0  502    0  0.00000000000E+00  0.00000000000E+00  0.91376366173E+03  0.91376366173E+03  0.00000000000E+00 0. -1.
          1   -1    0    0  501    0 -0.00000000000E+00 -0.00000000000E+00 -0.35119538224E+03  0.35119538224E+03  0.00000000000E+00 0. -1.
         25    2    1    2    0    0 -0.29018523586E+02 -0.15220062014E+03  0.10028813492E+03  0.22291030756E+03  0.12499676687E+03 0.  0.
          2    1    1    2  501    0 -0.75632246174E+02  0.92784310215E+02 -0.27241909121E+03  0.29755894565E+03  0.00000000000E+00 0. -1.
          1    1    1    2  502    0  0.10465076976E+03  0.59416309927E+02  0.73469923578E+03  0.74448979076E+03  0.00000000000E+00 0. -1.
         22    1    3    3    0    0  0.33856463207E+02 -0.24507942163E+02  0.63293170319E+02  0.75848037147E+02  0.00000000000E+00 0. -1.
         22    1    3    3    0    0 -0.62874986793E+02 -0.12769267798E+03  0.36994964603E+02  0.14706227041E+03  0.00000000000E+00 0. -1.
</event>
<event>
 7    1  0.6315518E-006  0.4386019E+02  0.7818608E-02  0.1524700E+00
          2   -1    0    0  502    0  0.00000000000E+00  0.00000000000E+00  0.50536869538E+02  0.50536869538E+02  0.00000000000E+00 0. -1.
          1   -1    0    0  501    0 -0.00000000000E+00 -0.00000000000E+00 -0.12349084923E+04  0.12349084923E+04  0.00000000000E+00 0. -1.
         25    2    1    2    0    0 -0.55603019151E+02  0.47649456197E+02 -0.15870930212E+03  0.21489354906E+03  0.12501371299E+03 0.  0.
          2    1    1    2  501    0  0.26949687579E+02 -0.18439126468E+02 -0.10289817131E+04  0.10294997100E+04  0.00000000000E+00 0. -1.
          1    1    1    2  502    0  0.28653331572E+02 -0.29210329729E+02  0.33193924638E+01  0.41052102740E+02  0.00000000000E+00 0. -1.
         22    1    3    3    0    0 -0.24667717680E+02  0.81082791603E+02 -0.14388815075E+03  0.16699315949E+03  0.00000000000E+00 0.  1.
         22    1    3    3    0    0 -0.30935301471E+02 -0.33433335406E+02 -0.14821151364E+02  0.47900389573E+02  0.00000000000E+00 0.  1.
</event>
<event>
 7    1  0.6315518E-006  0.8246261E+02  0.7818608E-02  0.1380985E+00
          2   -1    0    0  502    0  0.00000000000E+00  0.00000000000E+00  0.43880058141E+02  0.43880058141E+02  0.00000000000E+00 0. -1.
          1   -1    0    0  501    0 -0.00000000000E+00 -0.00000000000E+00 -0.11405636269E+04  0.11405636269E+04  0.00000000000E+00 0. -1.
         25    2    1    2    0    0  0.18019314987E+02 -0.42996256818E+02 -0.26727917703E+03  0.29872600412E+03  0.12500277298E+03 0.  0.
          2    1    1    2  501    0 -0.78444200590E+01 -0.49371158983E+02 -0.77783800181E+03  0.77944275180E+03  0.00000000000E+00 0. -1.
          1    1    1    2  502    0 -0.10174894928E+02  0.92367415800E+02 -0.51566389901E+02  0.10627492910E+03  0.00000000000E+00 0. -1.
         22    1    3    3    0    0  0.36347500575E+02  0.10192436075E+02 -0.22553450351E+03  0.22867190213E+03  0.00000000000E+00 0. -1.
         22    1    3    3    0    0 -0.18328185588E+02 -0.53188692893E+02 -0.41744673517E+02  0.70054101990E+02  0.00000000000E+00 0. -1.
</event>
<event>
 7    1  0.6315518E-006  0.2152667E+03  0.7818608E-02  0.1311590E+00
          2   -1    0    0  502    0  0.00000000000E+00  0.00000000000E+00  0.10667236403E+04  0.10667236403E+04  0.00000000000E+00 0. -1.
          1   -1    0    0  501    0 -0.00000000000E+00 -0.00000000000E+00 -0.15529872789E+04  0.15529872789E+04  0.00000000000E+00 0. -1.
         25    2    1    2    0    0 -0.24575306618E+03  0.37218063984E+01  0.10711479253E+02  0.27594958145E+03  0.12500005735E+03 0.  0.
          2    1    1    2  501    0  0.21339115910E+03  0.89307966812E+01 -0.14120077844E+04  0.14280691612E+04  0.00000000000E+00 0. -1.
          1    1    1    2  502    0  0.32361907079E+02 -0.12652603080E+02  0.91503266652E+03  0.91569217655E+03  0.00000000000E+00 0. -1.
         22    1    3    3    0    0 -0.13592256908E+03 -0.52414740888E+02 -0.24391782480E+02  0.14770649580E+03  0.00000000000E+00 0. -1.
         22    1    3    3    0    0 -0.10983049709E+03  0.56136547287E+02  0.35103261733E+02  0.12824308565E+03  0.00000000000E+00 0. -1.
</event>
<event>
 7    1  0.6315518E-006  0.8392167E+02  0.7818608E-02  0.1336428E+00
          2   -1    0    0  502    0  0.00000000000E+00  0.00000000000E+00  0.14087516265E+04  0.14087516265E+04  0.00000000000E+00 0. -1.
          1   -1    0    0  501    0 -0.00000000000E+00 -0.00000000000E+00 -0.64218234924E+03  0.64218234924E+03  0.00000000000E+00 0. -1.
         25    2    1    2    0    0 -0.84463633998E+02  0.10131612207E+03  0.56404689819E+03  0.59259834015E+03  0.12499930935E+03 0.  0.
          2    1    1    2  501    0  0.78173532725E+02 -0.30103523012E+02 -0.62356199707E+03  0.62916364128E+03  0.00000000000E+00 0. -1.
          1    1    1    2  502    0  0.62901012736E+01 -0.71212599057E+02  0.82608437609E+03  0.82917199426E+03  0.00000000000E+00 0. -1.
         22    1    3    3    0    0 -0.76815129438E+00  0.18506901608E+02  0.33081640733E+03  0.33133456026E+03  0.00000000000E+00 0. -1.
         22    1    3    3    0    0 -0.83695482704E+02  0.82809220461E+02  0.23323049086E+03  0.26126377989E+03  0.00000000000E+00 0. -1.
</event>
<event>
 7    1  0.6315518E-006  0.1028759E+03  0.7818608E-02  0.1308262E+00
          2   -1    0    0  502    0  0.00000000000E+00  0.00000000000E+00  0.75806468937E+03  0.75806468937E+03  0.00000000000E+00 0. -1.
          1   -1    0    0  501    0 -0.00000000000E+00 -0.00000000000E+00 -0.63573477997E+03  0.63573477997E+03  0.00000000000E+00 0. -1.
         25    2    1    2    0    0  0.97858239613E+02  0.78194861156E+02  0.18485412523E+03  0.25590207546E+03  0.12499661291E+03 0.  0.
          2    1    1    2  501    0 -0.26032944209E+02 -0.99567734612E+02 -0.59314708532E+03  0.60200906371E+03  0.00000000000E+00 0. -1.
          1    1    1    2  502    0 -0.71825295405E+02  0.21372873456E+02  0.53062286950E+03  0.53588833017E+03  0.00000000000E+00 0. -1.
         22    1    3    3    0    0  0.64340700274E+02  0.49727122436E+02  0.19455860589E+03  0.21086859307E+03  0.00000000000E+00 0. -1.
         22    1    3    3    0    0  0.33517539339E+02  0.28467738721E+02 -0.97044806619E+01  0.45033482390E+02  0.00000000000E+00 0. -1.
</event>
<event>
 7    1  0.6315518E-006  0.1098415E+03  0.7818608E-02  0.1287955E+00
          2   -1    0    0  502    0  0.00000000000E+00  0.00000000000E+00  0.31139865271E+04  0.31139865271E+04  0.00000000000E+00 0. -1.
          1   -1    0    0  501    0 -0.00000000000E+00 -0.00000000000E+00 -0.62988261639E+02  0.62988261639E+02  0.00000000000E+00 0. -1.
         25    2    1    2    0    0  0.11088059467E+03 -0.49526150830E+02  0.77910875879E+03  0.79836257486E+03  0.12499998810E+03 0.  0.
          2    1    1    2  501    0 -0.10553942426E+03 -0.34986992655E+02  0.62206520568E+01  0.11136137679E+03  0.00000000000E+00 0. -1.
          1    1    1    2  502    0 -0.53411704157E+01  0.84513143485E+02  0.22656688546E+04  0.22672508371E+04  0.00000000000E+00 0. -1.
         22    1    3    3    0    0  0.97103847182E+02 -0.86998109511E+02  0.51465017743E+03  0.53090736793E+03  0.00000000000E+00 0.  1.
         22    1    3    3    0    0  0.13776747490E+02  0.37471958681E+02  0.26445858136E+03  0.26745520693E+03  0.00000000000E+00 0.  1.
</event>
<event>
 7    1  0.6315518E-006  0.7021710E+02  0.7818608E-02  0.1485765E+00
          2   -1    0    0  502    0  0.00000000000E+00  0.00000000000E+00  0.10692584888E+04  0.10692584888E+04  0.00000000000E+00 0. -1.
          1   -1    0    0  501    0 -0.00000000000E+00 -0.00000000000E+00 -0.18636250281E+04  0.18636250281E+04  0.00000000000E+00 0. -1.
         25    2    1    2    0    0  0.89984898654E+02 -0.18317599840E+02 -0.48191642847E+03  0.50626155824E+03  0.12499801950E+03 0.  0.
          2    1    1    2  501    0 -0.64165904053E+02  0.24731483042E+02 -0.13685051760E+04  0.13702318512E+04  0.00000000000E+00 0. -1.
          1    1    1    2  502    0 -0.25818994601E+02 -0.64138832014E+01  0.10560550651E+04  0.10563901074E+04  0.00000000000E+00 0. -1.
         22    1    3    3    0    0  0.56227443911E+02  0.15573785022E+02 -0.68039531766E+02  0.89629493536E+02  0.00000000000E+00 0.  1.
         22    1    3    3    0    0  0.33757454744E+02 -0.33891384862E+02 -0.41387689670E+03  0.41663206471E+03  0.00000000000E+00 0.  1.
</event>
<event>
 7    1  0.6315518E-006  0.3530275E+02  0.7818608E-02  0.1584227E+00
          2   -1    0    0  502    0  0.00000000000E+00  0.00000000000E+00  0.10502094658E+04  0.10502094658E+04  0.00000000000E+00 0. -1.
          1   -1    0    0  501    0 -0.00000000000E+00 -0.00000000000E+00 -0.14253270830E+04  0.14253270830E+04  0.00000000000E+00 0. -1.
         25    2    1    2    0    0 -0.15853813078E+02  0.38819364467E+02 -0.16740420342E+03  0.21309150089E+03  0.12500213590E+03 0.  0.
          2    1    1    2  501    0 -0.15659493753E+02 -0.22894409563E+02 -0.12346200417E+04  0.12349315856E+04  0.00000000000E+00 0. -1.
          1    1    1    2  502    0  0.31513306830E+02 -0.15924954903E+02  0.10269066279E+04  0.10275134623E+04  0.00000000000E+00 0. -1.
         22    1    3    3    0    0 -0.53820618360E+02  0.32972909052E+01 -0.14813301804E+03  0.15764175247E+03  0.00000000000E+00 0. -1.
         22    1    3    3    0    0  0.37966805282E+02  0.35522073562E+02 -0.19271185382E+02  0.55449748417E+02  0.00000000000E+00 0. -1.
</event>
<event>
 7    1  0.6315518E-006  0.4767686E+02  0.7818608E-02  0.1461467E+00
          2   -1    0    0  502    0  0.00000000000E+00  0.00000000000E+00  0.68549705813E+03  0.68549705813E+03  0.00000000000E+00 0. -1.
          1   -1    0    0  501    0 -0.00000000000E+00 -0.00000000000E+00 -0.30174015964E+03  0.30174015964E+03  0.00000000000E+00 0. -1.
         25    2    1    2    0    0 -0.60964977466E+02  0.62556261983E+02  0.63772290966E+02  0.16528815036E+03  0.12499301246E+03 0.  0.
          2    1    1    2  501    0  0.18593046737E+02 -0.43186668718E+02 -0.24781760661E+03  0.25223868833E+03  0.00000000000E+00 0. -1.
          1    1    1    2  502    0  0.42371930730E+02 -0.19369593265E+02  0.56780221413E+03  0.56971037908E+03  0.00000000000E+00 0. -1.
         22    1    3    3    0    0 -0.15216280771E+02  0.58533407645E+02  0.92938620619E+02  0.11088409360E+03  0.00000000000E+00 0.  1.
         22    1    3    3    0    0 -0.45748696696E+02  0.40228543384E+01 -0.29166329653E+02  0.54404056759E+02  0.00000000000E+00 0.  1.
</event>
<event>
 7    1  0.6315518E-006  0.8327167E+02  0.7818608E-02  0.1346488E+00
          2   -1    0    0  502    0  0.00000000000E+00  0.00000000000E+00  0.54183873348E+02  0.54183873348E+02  0.00000000000E+00 0. -1.
          1   -1    0    0  501    0 -0.00000000000E+00 -0.00000000000E+00 -0.65763791085E+03  0.65763791085E+03  0.00000000000E+00 0. -1.
         25    2    1    2    0    0 -0.32482225261E+02  0.84776718364E+01 -0.34770583813E+03  0.37101498112E+03  0.12500320184E+03 0.  0.
          2    1    1    2  501    0  0.90972673133E+02  0.50793216677E+02 -0.23183104165E+03  0.25416846773E+03  0.00000000000E+00 0. -1.
          1    1    1    2  502    0 -0.58490447872E+02 -0.59270888514E+02 -0.23917157722E+02  0.86638335342E+02  0.00000000000E+00 0. -1.
         22    1    3    3    0    0  0.13357118910E+02 -0.43551117556E+02 -0.61526490202E+02  0.76554695888E+02  0.00000000000E+00 0.  1.
         22    1    3    3    0    0 -0.45839344172E+02  0.52028789393E+02 -0.28617934792E+03  0.29446028523E+03  0.00000000000E+00 0.  1.
</event>
<event>
 7    1  0.6315518E-006  0.6913988E+02  0.7818608E-02  0.1417925E+00
          2   -1    0    0  502    0  0.00000000000E+00  0.00000000000E+00  0.12742159981E+04  0.12742159981E+04  0.00000000000E+00 0. -1.
          1   -1    0    0  501    0 -0.00000000000E+00 -0.00000000000E+00 -0.26014916948E+03  0.26014916948E+03  0.00000000000E+00 0. -1.
         25    2    1    2    0    0 -0.40943360905E+02 -0.98910817362E+02 -0.48008871596E+02  0.17143553639E+03  0.12500233114E+03 0.  0.
          2    1    1    2  501    0  0.34841712752E+02  0.54840809285E+02 -0.14298146834E+03  0.15705145526E+03  0.00000000000E+00 0. -1.
          1    1    1    2  502    0  0.61016481533E+01  0.44070008078E+02  0.12050571685E+04  0.12058781759E+04  0.00000000000E+00 0. -1.
         22    1    3    3    0    0  0.13684987217E+02 -0.10694247521E+03 -0.20497625199E+02  0.10974572665E+03  0.00000000000E+00 0.  1.
         22    1    3    3    0    0 -0.54628348122E+02  0.80316578518E+01 -0.27511246397E+02  0.61689809732E+02  0.00000000000E+00 0.  1.
</event>
<event>
 7    1  0.6315518E-006  0.1255273E+03  0.7818608E-02  0.1335826E+00
          2   -1    0    0  502    0  0.00000000000E+00  0.00000000000E+00  0.31293609213E+04  0.31293609213E+04  0.00000000000E+00 0. -1.
          1   -1    0    0  501    0 -0.00000000000E+00 -0.00000000000E+00 -0.67573229480E+03  0.67573229480E+03  0.00000000000E+00 0. -1.
         25    2    1    2    0    0 -0.14328092234E+03  0.66901789057E+02  0.11097223765E+04  0.11278804589E+04  0.12500121861E+03 0.  0.
          2    1    1    2  501    0  0.47764608110E+02  0.51932835398E+01 -0.66400375561E+03  0.66573975053E+03  0.00000000000E+00 0. -1.
          1    1    1    2  502    0  0.95516314228E+02 -0.72095072596E+02  0.20079100056E+04  0.20114730066E+04  0.00000000000E+00 0. -1.
         22    1    3    3    0    0 -0.69770668982E+02 -0.26295004971E+02  0.28200410915E+03  0.29169451678E+03  0.00000000000E+00 0.  1.
         22    1    3    3    0    0 -0.73510253356E+02  0.93196794027E+02  0.82771826732E+03  0.83618594213E+03  0.00000000000E+00 0.  1.
</event>
<event>
 7    1  0.6315518E-006  0.8135700E+02  0.7818608E-02  0.1369178E+00
          2   -1    0    0  502    0  0.00000000000E+00  0.00000000000E+00  0.36673139798E+03  0.36673139798E+03  0.00000000000E+00 0. -1.
          1   -1    0    0  501    0 -0.00000000000E+00 -0.00000000000E+00 -0.85958787603E+03  0.85958787603E+03  0.00000000000E+00 0. -1.
         25    2    1    2    0    0  0.10860958827E+03 -0.24909937738E+02 -0.36796305896E+03  0.40427643448E+03  0.12500430013E+03 0.  0.
          2    1    1    2  501    0 -0.75273385304E+02 -0.19876583232E+02 -0.46799595224E+03  0.47442741533E+03  0.00000000000E+00 0. -1.
          1    1    1    2  502    0 -0.33336202968E+02  0.44786520969E+02  0.34310253316E+03  0.34761542421E+03  0.00000000000E+00 0. -1.
         22    1    3    3    0    0  0.56234644385E+02  0.50325566923E+02 -0.17870937943E+03  0.19398979409E+03  0.00000000000E+00 0. -1.
         22    1    3    3    0    0  0.52374943887E+02 -0.75235504660E+02 -0.18925367953E+03  0.21028664039E+03  0.00000000000E+00 0. -1.
</event>
<event>
 7    1  0.6315518E-006  0.9921634E+02  0.7818608E-02  0.1359494E+00
          2   -1    0    0  502    0  0.00000000000E+00  0.00000000000E+00  0.18333886255E+04  0.18333886255E+04  0.00000000000E+00 0. -1.
          1   -1    0    0  501    0 -0.00000000000E+00 -0.00000000000E+00 -0.99013831848E+03  0.99013831848E+03  0.00000000000E+00 0. -1.
         25    2    1    2    0    0  0.12781205534E+03  0.32316930678E+01 -0.32868374271E+01  0.17883538434E+03  0.12499970425E+03 0.  0.
          2    1    1    2  501    0 -0.91388124388E+02 -0.36952005046E+02 -0.89602074382E+03  0.90142687630E+03  0.00000000000E+00 0. -1.
          1    1    1    2  502    0 -0.36423930953E+02  0.33720311978E+02  0.17425578882E+04  0.17432646833E+04  0.00000000000E+00 0. -1.
         22    1    3    3    0    0  0.86735947921E+02 -0.27424893593E+02  0.50906216040E+02  0.10424342800E+03  0.00000000000E+00 0. -1.
         22    1    3    3    0    0  0.41076107420E+02  0.30656586660E+02 -0.54193053467E+02  0.74591956339E+02  0.00000000000E+00 0. -1.
</event>
<event>
 7    1  0.6315518E-006  0.4851311E+02  0.7818608E-02  0.1501980E+00
          2   -1    0    0  502    0  0.00000000000E+00  0.00000000000E+00  0.54777028477E+03  0.54777028477E+03  0.00000000000E+00 0. -1.
          1   -1    0    0  501    0 -0.00000000000E+00 -0.00000000000E+00 -0.22462793833E+03  0.22462793833E+03  0.00000000000E+00 0. -1.
         25    2    1    2    0    0 -0.93182511834E+01  0.76659677960E+02  0.12635366773E+03  0.19378650645E+03  0.12499769880E+03 0.  0.
          2    1    1    2  501    0 -0.93895697716E+01 -0.33107726532E+02 -0.18789414718E+03  0.19101962235E+03  0.00000000000E+00 0. -1.
          1    1    1    2  502    0  0.18707820955E+02 -0.43551951428E+02  0.38468282588E+03  0.38759209430E+03  0.00000000000E+00 0. -1.
         22    1    3    3    0    0  0.14379694535E+01  0.11091886185E+03  0.98364816915E+02  0.14825889139E+03  0.00000000000E+00 0. -1.
         22    1    3    3    0    0 -0.10756220637E+02 -0.34259183890E+02  0.27988850818E+02  0.45527615062E+02  0.00000000000E+00 0. -1.
</event>
<event>
 7    1  0.6315518E-006  0.1142266E+03  0.7818608E-02  0.1326714E+00
          2   -1    0    0  502    0  0.00000000000E+00  0.00000000000E+00  0.35171357571E+03  0.35171357571E+03  0.00000000000E+00 0. -1.
          1   -1    0    0  501    0 -0.00000000000E+00 -0.00000000000E+00 -0.60226504805E+03  0.60226504805E+03  0.00000000000E+00 0. -1.
         25    2    1    2    0    0 -0.44418901957E+02  0.10333278231E+03 -0.28495396647E+03  0.33087026099E+03  0.12500265538E+03 0.  0.
          2    1    1    2  501    0 -0.10425730436E+02 -0.11956719963E+03 -0.27942524529E+03  0.30411096460E+03  0.00000000000E+00 0. -1.
          1    1    1    2  502    0  0.54844632392E+02  0.16234417326E+02  0.31382773942E+03  0.31899739817E+03  0.00000000000E+00 0. -1.
         22    1    3    3    0    0 -0.44977477293E+02  0.13096336390E+03 -0.21588505293E+03  0.25647754721E+03  0.00000000000E+00 0. -1.
         22    1    3    3    0    0  0.55857533609E+00 -0.27630581590E+02 -0.69068913539E+02  0.74392713776E+02  0.00000000000E+00 0. -1.
</event>
<event>
 7    1  0.6315518E-006  0.8110866E+02  0.7818608E-02  0.1485689E+00
          2   -1    0    0  502    0  0.00000000000E+00  0.00000000000E+00  0.36501666908E+04  0.36501666908E+04  0.00000000000E+00 0. -1.
          1   -1    0    0  501    0 -0.00000000000E+00 -0.00000000000E+00 -0.76485695014E+03  0.76485695014E+03  0.00000000000E+00 0. -1.
         25    2    1    2    0    0 -0.26068647393E+01  0.71102834072E+02  0.18563123234E+04  0.18618748931E+04  0.12498106478E+03 0.  0.
          2    1    1    2  501    0  0.19340168746E+02  0.12528455287E+02 -0.76088579681E+03  0.76123465508E+03  0.00000000000E+00 0. -1.
          1    1    1    2  502    0 -0.16733304007E+02 -0.83631289358E+02  0.17898832141E+04  0.17919140928E+04  0.00000000000E+00 0. -1.
         22    1    3    3    0    0  0.50448438080E+02  0.60037912455E+02  0.71730038526E+03  0.72157427790E+03  0.00000000000E+00 0. -1.
         22    1    3    3    0    0 -0.53055302819E+02  0.11064921617E+02  0.11390119382E+04  0.11403006152E+04  0.00000000000E+00 0. -1.
</event>
<event>
 7    1  0.6315518E-006  0.4289268E+02  0.7818608E-02  0.1498302E+00
          2   -1    0    0  502    0  0.00000000000E+00  0.00000000000E+00  0.64048063917E+02  0.64048063917E+02  0.00000000000E+00 0. -1.
          1   -1    0    0  501    0 -0.00000000000E+00 -0.00000000000E+00 -0.31893309200E+03  0.31893309200E+03  0.00000000000E+00 0. -1.
         25    2    1    2    0    0  0.13952908833E+02 -0.89469342439E+01 -0.16071670435E+03  0.20428012216E+03  0.12500311179E+03 0.  0.
          2    1    1    2  501    0 -0.48774132179E+02 -0.10571657690E+02 -0.12080744237E+03  0.13071003806E+03  0.00000000000E+00 0. -1.
          1    1    1    2  502    0  0.34821223346E+02  0.19518591934E+02  0.26639118635E+02  0.47990995698E+02  0.00000000000E+00 0. -1.
         22    1    3    3    0    0  0.58123197871E+02 -0.38107468660E+02 -0.11485655089E+03  0.13424795187E+03  0.00000000000E+00 0. -1.
         22    1    3    3    0    0 -0.44170289039E+02  0.29160534416E+02 -0.45860153454E+02  0.70032170294E+02  0.00000000000E+00 0. -1.
</event>
<event>
 7    1  0.6315518E-006  0.7518603E+02  0.7818608E-02  0.1420609E+00
          2   -1    0    0  502    0  0.00000000000E+00  0.00000000000E+00  0.13462184357E+04  0.13462184357E+04  0.00000000000E+00 0. -1.
          1   -1    0    0  501    0 -0.00000000000E+00 -0.00000000000E+00 -0.76078376404E+02  0.76078376404E+02  0.00000000000E+00 0. -1.
         25    2    1    2    0    0 -0.54766718887E+02  0.12180075086E+02  0.20175927933E+03  0.24388174240E+03  0.12499499891E+03 0.  0.
          2    1    1    2  501    0  0.58634989288E+02 -0.52068944764E+02 -0.26520743953E+02  0.82780352968E+02  0.00000000000E+00 0. -1.
          1    1    1    2  502    0 -0.38682704014E+01  0.39888869678E+02  0.10949015239E+04  0.10956347168E+04  0.00000000000E+00 0. -1.
         22    1    3    3    0    0 -0.42550150856E+02 -0.17861461312E+02  0.72808474550E+01  0.46717853950E+02  0.00000000000E+00 0. -1.
         22    1    3    3    0    0 -0.12216568031E+02  0.30041536398E+02  0.19447843188E+03  0.19716388845E+03  0.00000000000E+00 0. -1.
</event>
<event>
 7    1  0.6315518E-006  0.1115921E+03  0.7818608E-02  0.1386076E+00
          2   -1    0    0  502    0  0.00000000000E+00  0.00000000000E+00  0.62850631840E+03  0.62850631840E+03  0.00000000000E+00 0. -1.
          1   -1    0    0  501    0 -0.00000000000E+00 -0.00000000000E+00 -0.43748604818E+03  0.43748604818E+03  0.00000000000E+00 0. -1.
         25    2    1    2    0    0 -0.47059929779E+02  0.13185430940E+03  0.28622539080E+02  0.18986268963E+03  0.12501358036E+03 0.  0.
          2    1    1    2  501    0  0.25824945284E+02 -0.24280519968E+02 -0.35017272452E+03  0.35196222588E+03  0.00000000000E+00 0. -1.
          1    1    1    2  502    0  0.21234984495E+02 -0.10757378943E+03  0.51257045566E+03  0.52416745106E+03  0.00000000000E+00 0. -1.
         22    1    3    3    0    0  0.34766286615E+02  0.79526995318E+02  0.32445424166E+02  0.92660364874E+02  0.00000000000E+00 0. -1.
         22    1    3    3    0    0 -0.81826216394E+02  0.52327314080E+02 -0.38228850858E+01  0.97202324759E+02  0.00000000000E+00 0. -1.
</event>
<event>
 7    1  0.6315518E-006  0.1014228E+03  0.7818608E-02  0.1347720E+00
          2   -1    0    0  502    0  0.00000000000E+00  0.00000000000E+00  0.13372583680E+04  0.13372583680E+04  0.00000000000E+00 0. -1.
          1   -1    0    0  501    0 -0.00000000000E+00 -0.00000000000E+00 -0.86462990018E+02  0.86462990018E+02  0.00000000000E+00 0. -1.
         25    2    1    2    0    0 -0.91162653570E+02 -0.46767097363E+02  0.41032844786E+03  0.44101237088E+03  0.12499874139E+03 0.  0.
          2    1    1    2  501    0  0.35329507329E+02 -0.40385735439E+02 -0.57586448973E+02  0.78710741455E+02  0.00000000000E+00 0. -1.
          1    1    1    2  502    0  0.55833146242E+02  0.87152832802E+02  0.89805337905E+03  0.90399824564E+03  0.00000000000E+00 0. -1.
         22    1    3    3    0    0 -0.82267964451E+02 -0.24551758265E+02  0.40803910291E+03  0.41697328009E+03  0.00000000000E+00 0.  1.
         22    1    3    3    0    0 -0.88946891189E+01 -0.22215339098E+02  0.22893449492E+01  0.24039090791E+02  0.00000000000E+00 0.  1.
</event>
<event>
 7    1  0.6315518E-006  0.7051746E+02  0.7818608E-02  0.1419110E+00
          2   -1    0    0  502    0  0.00000000000E+00  0.00000000000E+00  0.86096084464E+03  0.86096084464E+03  0.00000000000E+00 0. -1.
          1   -1    0    0  501    0 -0.00000000000E+00 -0.00000000000E+00 -0.19708597516E+03  0.19708597516E+03  0.00000000000E+00 0. -1.
         25    2    1    2    0    0  0.10966131029E+03 -0.19528402549E+02  0.18580883055E+03  0.25011449512E+03  0.12500151070E+03 0.  0.
          2    1    1    2  501    0 -0.66437400033E+02  0.19254544226E+02 -0.15691350092E+03  0.17148327139E+03  0.00000000000E+00 0. -1.
          1    1    1    2  502    0 -0.43223910255E+02  0.27385832300E+00  0.63497953985E+03  0.63644905329E+03  0.00000000000E+00 0. -1.
         22    1    3    3    0    0  0.49301676895E+02 -0.42324336025E+01 -0.46828323888E+01  0.49704102024E+02  0.00000000000E+00 0. -1.
         22    1    3    3    0    0  0.60359633393E+02 -0.15295968946E+02  0.19049166294E+03  0.20041039309E+03  0.00000000000E+00 0. -1.
</event>
<event>
 7    1  0.6315518E-006  0.1736123E+03  0.7818608E-02  0.1338402E+00
          2   -1    0    0  502    0  0.00000000000E+00  0.00000000000E+00  0.55608764949E+03  0.55608764949E+03  0.00000000000E+00 0. -1.
          1   -1    0    0  501    0 -0.00000000000E+00 -0.00000000000E+00 -0.80068116820E+03  0.80068116820E+03  0.00000000000E+00 0. -1.
         25    2    1    2    0    0 -0.57397273676E+02  0.14232746921E+03  0.14107752589E+03  0.24306045801E+03  0.12499584961E+03 0.  0.
          2    1    1    2  501    0 -0.27727792073E+02  0.19623008729E+02 -0.72627826007E+03  0.72707221373E+03  0.00000000000E+00 0. -1.
          1    1    1    2  502    0  0.85125065749E+02 -0.16195047794E+03  0.34060721547E+03  0.38663614595E+03  0.00000000000E+00 0. -1.
         22    1    3    3    0    0 -0.41301092723E+02  0.14900405327E+03  0.69734088629E+02  0.16961966651E+03  0.00000000000E+00 0. -1.
         22    1    3    3    0    0 -0.16096180952E+02 -0.66765840554E+01  0.71343437259E+02  0.73440791498E+02  0.00000000000E+00 0. -1.
</event>
<event>
 7    1  0.6315518E-006  0.4694292E+02  0.7818608E-02  0.1559727E+00
          2   -1    0    0  502    0  0.00000000000E+00  0.00000000000E+00  0.68446537629E+03  0.68446537629E+03  0.00000000000E+00 0. -1.
          1   -1    0    0  501    0 -0.00000000000E+00 -0.00000000000E+00 -0.16726253037E+03  0.16726253037E+03  0.00000000000E+00 0. -1.
         25    2    1    2    0    0  0.25413643822E+02  0.20552601102E+02  0.57505611203E+02  0.14142167843E+03  0.12499973242E+03 0.  0.
          2    1    1    2  501    0 -0.72695901982E+01  0.23192566368E+02 -0.12315635167E+03  0.12553178495E+03  0.00000000000E+00 0. -1.
          1    1    1    2  502    0 -0.18144053623E+02 -0.43745167469E+02  0.58285358638E+03  0.58477444328E+03  0.00000000000E+00 0. -1.
         22    1    3    3    0    0 -0.31330933040E+02  0.34441583924E+02  0.67653728425E+02  0.82127200355E+02  0.00000000000E+00 0.  1.
         22    1    3    3    0    0  0.56744576862E+02 -0.13888982823E+02 -0.10148117223E+02  0.59294478075E+02  0.00000000000E+00 0.  1.
</event>
<event>
 7    1  0.6315518E-006  0.1303965E+03  0.7818608E-02  0.1270742E+00
          2   -1    0    0  502    0  0.00000000000E+00  0.00000000000E+00  0.85407874867E+03  0.85407874867E+03  0.00000000000E+00 0. -1.
          1   -1    0    0  501    0 -0.00000000000E+00 -0.00000000000E+00 -0.17583107483E+04  0.17583107483E+04  0.00000000000E+00 0. -1.
         25    2    1    2    0    0 -0.11551186341E+03 -0.45822333880E+02  0.11699912110E+03  0.21155654161E+03  0.12499879634E+03 0.  0.
          2    1    1    2  501    0 -0.13736363682E+02  0.82912640814E+02 -0.17034332969E+04  0.17055052597E+04  0.00000000000E+00 0. -1.
          1    1    1    2  502    0  0.12924822709E+03 -0.37090306934E+02  0.68220217624E+03  0.69532769565E+03  0.00000000000E+00 0. -1.
         22    1    3    3    0    0 -0.10316615286E+03  0.17291718474E+02  0.10073131549E+03  0.14522071665E+03  0.00000000000E+00 0. -1.
         22    1    3    3    0    0 -0.12345710555E+02 -0.63114052354E+02  0.16267805611E+02  0.66335824959E+02  0.00000000000E+00 0. -1.
</event>
<event>
 7    1  0.6315518E-006  0.1132189E+03  0.7818608E-02  0.1388240E+00
          2   -1    0    0  502    0  0.00000000000E+00  0.00000000000E+00  0.13285574098E+04  0.13285574098E+04  0.00000000000E+00 0. -1.
          1   -1    0    0  501    0 -0.00000000000E+00 -0.00000000000E+00 -0.22045838278E+03  0.22045838278E+03  0.00000000000E+00 0. -1.
         25    2    1    2    0    0  0.94798396735E+01  0.81002636857E+02  0.43034335118E+02  0.15533167540E+03  0.12499872337E+03 0.  0.
          2    1    1    2  501    0  0.14135093789E+02  0.31287638889E+02 -0.15980500868E+03  0.16345139346E+03  0.00000000000E+00 0. -1.
          1    1    1    2  502    0 -0.23614933462E+02 -0.11229027575E+03  0.12248697006E+04  0.12302327237E+04  0.00000000000E+00 0. -1.
         22    1    3    3    0    0  0.93389806023E+01  0.11335798074E+03  0.19689985296E+02  0.11543372071E+03  0.00000000000E+00 0. -1.
         22    1    3    3    0    0  0.14085907123E+00 -0.32355343887E+02  0.23344349821E+02  0.39897954683E+02  0.00000000000E+00 0. -1.
</event>
<event>
 7    1  0.6315518E-006  0.5467219E+02  0.7818608E-02  0.1477839E+00
          2   -1    0    0  502    0  0.00000000000E+00  0.00000000000E+00  0.99995048478E+03  0.99995048478E+03  0.00000000000E+00 0. -1.
          1   -1    0    0  501    0 -0.00000000000E+00 -0.00000000000E+00 -0.23668883003E+02  0.23668883003E+02  0.00000000000E+00 0. -1.
         25    2    1    2    0    0  0.26058379811E+02 -0.59320626437E+01  0.54019758528E+03  0.55511226790E+03  0.12498788063E+03 0.  0.
          2    1    1    2  501    0 -0.55870297940E+02 -0.14480022298E+02  0.38713599193E+02  0.69497510748E+02  0.00000000000E+00 0. -1.
          1    1    1    2  502    0  0.29811918130E+02  0.20412084941E+02  0.39737041730E+03  0.39900958913E+03  0.00000000000E+00 0. -1.
         22    1    3    3    0    0 -0.13882279119E+02  0.44954554039E+02  0.10404395279E+03  0.11418744990E+03  0.00000000000E+00 0. -1.
         22    1    3    3    0    0  0.39940658929E+02 -0.50886616683E+02  0.43615363249E+03  0.44092481800E+03  0.00000000000E+00 0. -1.
</event>
<event>
 7    1  0.6315518E-006  0.4947723E+02  0.7818608E-02  0.1487733E+00
          2   -1    0    0  502    0  0.00000000000E+00  0.00000000000E+00  0.13786479075E+03  0.13786479075E+03  0.00000000000E+00 0. -1.
          1   -1    0    0  501    0 -0.00000000000E+00 -0.00000000000E+00 -0.74640224078E+03  0.74640224078E+03  0.00000000000E+00 0. -1.
         25    2    1    2    0    0  0.13588055397E+01 -0.23861144175E+02 -0.45070901630E+02  0.13500938485E+03  0.12499978908E+03 0.  0.
          2    1    1    2  501    0 -0.37319228747E+02  0.33535560301E+02 -0.65162657315E+03  0.65355531478E+03  0.00000000000E+00 0. -1.
          1    1    1    2  502    0  0.35960423207E+02 -0.96744161256E+01  0.88160024760E+02  0.95702331896E+02  0.00000000000E+00 0. -1.
         22    1    3    3    0    0 -0.16331561249E+02  0.31028129034E+02 -0.65115133726E+02  0.73955698390E+02  0.00000000000E+00 0. -1.
         22    1    3    3    0    0  0.17690366789E+02 -0.54889273209E+02  0.20044232095E+02  0.61053686464E+02  0.00000000000E+00 0. -1.
</event>
<event>
 7    1  0.6315518E-006  0.1076483E+03  0.7818608E-02  0.1363274E+00
          2   -1    0    0  502    0  0.00000000000E+00  0.00000000000E+00  0.16385670048E+04  0.16385670048E+04  0.00000000000E+00 0. -1.
          1   -1    0    0  501    0 -0.00000000000E+00 -0.00000000000E+00 -0.16097805245E+03  0.16097805245E+03  0.00000000000E+00 0. -1.
         25    2    1    2    0    0 -0.64967440053E+02 -0.19898805837E+02  0.54193884971E+03  0.56030294978E+03  0.12499979185E+03 0.  0.
          2    1    1    2  501    0  0.96353187350E+02  0.51192430794E+02 -0.13167025219E+03  0.17100192103E+03  0.00000000000E+00 0. -1.
          1    1    1    2  502    0 -0.31385747298E+02 -0.31293624957E+02  0.10673203548E+04  0.10682401865E+04  0.00000000000E+00 0. -1.
         22    1    3    3    0    0 -0.16948518017E+02  0.30127294087E+02  0.37038815679E+02  0.50663398809E+02  0.00000000000E+00 0. -1.
         22    1    3    3    0    0 -0.48018922036E+02 -0.50026099924E+02  0.50490003403E+03  0.50963955097E+03  0.00000000000E+00 0. -1.
</event>
<event>
 7    1  0.6315518E-006  0.9149068E+02  0.7818608E-02  0.1452189E+00
          2   -1    0    0  502    0  0.00000000000E+00  0.00000000000E+00  0.10177294614E+04  0.10177294614E+04  0.00000000000E+00 0. -1.
          1   -1    0    0  501    0 -0.00000000000E+00 -0.00000000000E+00 -0.93129742915E+03  0.93129742915E+03  0.00000000000E+00 0. -1.
         25    2    1    2    0    0 -0.10601816592E+03  0.23046504637E+02  0.12557668535E+03  0.20776219544E+03  0.12499853227E+03 0.  0.
          2    1    1    2  501    0  0.91265404598E+02 -0.16631468696E+01 -0.88766540365E+03  0.89234635034E+03  0.00000000000E+00 0. -1.
          1    1    1    2  502    0  0.14752761323E+02 -0.21383357768E+02  0.84852075057E+03  0.84891834478E+03  0.00000000000E+00 0. -1.
         22    1    3    3    0    0 -0.47499784590E+02  0.18314739190E+02  0.13857575228E+03  0.14763095315E+03  0.00000000000E+00 0. -1.
         22    1    3    3    0    0 -0.58518381331E+02  0.47317654475E+01 -0.12999066934E+02  0.60131242287E+02  0.00000000000E+00 0. -1.
</event>
<event>
 7    1  0.6315518E-006  0.4293734E+02  0.7818608E-02  0.1496264E+00
          2   -1    0    0  502    0  0.00000000000E+00  0.00000000000E+00  0.10970427382E+03  0.10970427382E+03  0.00000000000E+00 0. -1.
          1   -1    0    0  501    0 -0.00000000000E+00 -0.00000000000E+00 -0.21194065208E+04  0.21194065208E+04  0.00000000000E+00 0. -1.
         25    2    1    2    0    0 -0.27459282850E+01 -0.35421818891E+01 -0.59784414064E+03  0.61078846660E+03  0.12499938902E+03 0.  0.
          2    1    1    2  501    0  0.26376951168E+02  0.36361468876E+02 -0.15107827148E+04  0.15114503999E+04  0.00000000000E+00 0. -1.
          1    1    1    2  502    0 -0.23631022883E+02 -0.32819286987E+02  0.98924608523E+02  0.10687192808E+03  0.00000000000E+00 0. -1.
         22    1    3    3    0    0 -0.30620183043E+02  0.50297563725E+02 -0.38503240838E+03  0.38950917323E+03  0.00000000000E+00 0.  1.
         22    1    3    3    0    0  0.27874254758E+02 -0.53839745614E+02 -0.21281173226E+03  0.22127929337E+03  0.00000000000E+00 0.  1.
</event>
<event>
 7    1  0.6315518E-006  0.1239505E+03  0.7818608E-02  0.1277612E+00
          2   -1    0    0  502    0  0.00000000000E+00  0.00000000000E+00  0.10631373857E+04  0.10631373857E+04  0.00000000000E+00 0. -1.
          1   -1    0    0  501    0 -0.00000000000E+00 -0.00000000000E+00 -0.14330670329E+04  0.14330670329E+04  0.00000000000E+00 0. -1.
         25    2    1    2    0    0 -0.87050207416E+02 -0.71663385492E+02 -0.63039126876E+02  0.17975711792E+03  0.12500124197E+03 0.  0.
          2    1    1    2  501    0  0.64800571547E+02 -0.51491800941E+02 -0.13064573009E+04  0.13090764678E+04  0.00000000000E+00 0. -1.
          1    1    1    2  502    0  0.22249635870E+02  0.12315518643E+03  0.99956678055E+03  0.10073708329E+04  0.00000000000E+00 0. -1.
         22    1    3    3    0    0 -0.50259880028E+02 -0.33201089329E+02 -0.98743388937E+02  0.11566600508E+03  0.00000000000E+00 0.  1.
         22    1    3    3    0    0 -0.36790327389E+02 -0.38462296163E+02  0.35704262061E+02  0.64091112838E+02  0.00000000000E+00 0.  1.
</event>
<event>
 7    1  0.6315518E-006  0.1174640E+03  0.7818608E-02  0.1396007E+00
          2   -1    0    0  502    0  0.00000000000E+00  0.00000000000E+00  0.85341945079E+03  0.85341945079E+03  0.00000000000E+00 0. -1.
          1   -1    0    0  501    0 -0.00000000000E+00 -0.00000000000E+00 -0.69362192383E+03  0.69362192383E+03  0.00000000000E+00 0. -1.
         25    2    1    2    0    0 -0.12697797401E+03  0.34086819699E+02  0.37476018232E+03  0.41635655788E+03  0.12498908703E+03 0.  0.
          2    1    1    2  501    0  0.10375668946E+03 -0.54768164272E+02 -0.66717109648E+03  0.67740849892E+03  0.00000000000E+00 0. -1.
          1    1    1    2  502    0  0.23221284553E+02  0.20681344573E+02  0.45220844112E+03  0.45327631781E+03  0.00000000000E+00 0. -1.
         22    1    3    3    0    0 -0.36456172802E+02  0.29653519871E+02  0.28482793764E+03  0.28867860648E+03  0.00000000000E+00 0.  1.
         22    1    3    3    0    0 -0.90521801212E+02  0.44332998275E+01  0.89932244679E+02  0.12767795141E+03  0.00000000000E+00 0.  1.
</event>
<event>
 7    1  0.6315518E-006  0.3881396E+02  0.7818608E-02  0.1518678E+00
          2   -1    0    0  502    0  0.00000000000E+00  0.00000000000E+00  0.47682802716E+03  0.47682802716E+03  0.00000000000E+00 0. -1.
          1   -1    0    0  501    0 -0.00000000000E+00 -0.00000000000E+00 -0.11720376170E+03  0.11720376170E+03  0.00000000000E+00 0. -1.
         25    2    1    2    0    0 -0.88674127815E+00 -0.16116414830E+02 -0.12649196749E+01  0.12603775816E+03  0.12499356513E+03 0.  0.
          2    1    1    2  501    0  0.39700084383E+02  0.15897718591E+02 -0.43936015992E+02  0.61312377687E+02  0.00000000000E+00 0. -1.
          1    1    1    2  502    0 -0.38813343105E+02  0.21869623923E+00  0.40482520112E+03  0.40668165301E+03  0.00000000000E+00 0. -1.
         22    1    3    3    0    0 -0.27911085259E+02  0.48218023525E+02  0.52175771383E+01  0.55957390791E+02  0.00000000000E+00 0. -1.
         22    1    3    3    0    0  0.27024343980E+02 -0.64334438355E+02 -0.64824968132E+01  0.70080367372E+02  0.00000000000E+00 0. -1.
</event>
<event>
 7    1  0.6315518E-006  0.6967431E+02  0.7818608E-02  0.1435429E+00
          2   -1    0    0  502    0  0.00000000000E+00  0.00000000000E+00  0.40717821268E+03  0.40717821268E+03  0.00000000000E+00 0. -1.
          1   -1    0    0  501    0 -0.00000000000E+00 -0.00000000000E+00 -0.58620115715E+03  0.58620115715E+03  0.00000000000E+00 0. -1.
         25    2    1    2    0    0  0.34178095737E+02 -0.10239922898E+03  0.22601317342E+03  0.27992978359E+03  0.12499993942E+03 0.  0.
          2    1    1    2  501    0 -0.23177343130E+02  0.65359923391E+02 -0.55462883821E+03  0.55894745459E+03  0.00000000000E+00 0. -1.
          1    1    1    2  502    0 -0.11000752607E+02  0.37039305594E+02  0.14959272032E+03  0.15450213166E+03  0.00000000000E+00 0. -1.
         22    1    3    3    0    0  0.65475911640E+02 -0.10530581738E+03  0.13341773003E+03  0.18214472505E+03  0.00000000000E+00 0. -1.
         22    1    3    3    0    0 -0.31297815903E+02  0.29065883914E+01  0.92595443385E+02  0.97785058532E+02  0.00000000000E+00 0. -1.
</event>
<event>
 7    1  0.6315518E-006  0.4896643E+02  0.7818608E-02  0.1527881E+00
          2   -1    0    0  502    0  0.00000000000E+00  0.00000000000E+00  0.48072807746E+03  0.48072807746E+03  0.00000000000E+00 0. -1.
          1   -1    0    0  501    0 -0.00000000000E+00 -0.00000000000E+00 -0.54541713635E+03  0.54541713635E+03  0.00000000000E+00 0. -1.
         25    2    1    2    0    0 -0.29235718371E+02 -0.35601178679E+02  0.38672323611E+03  0.40902594305E+03  0.12500075836E+03 0.  0.
          2    1    1    2  501    0  0.38446139071E+01  0.48847026333E+02 -0.53062815454E+03  0.53288558944E+03  0.00000000000E+00 0. -1.
          1    1    1    2  502    0  0.25391104464E+02 -0.13245847654E+02  0.79215859541E+02  0.84233681320E+02  0.00000000000E+00 0. -1.
         22    1    3    3    0    0  0.36993275862E+02 -0.47865172843E+02  0.24120852986E+03  0.24867877293E+03  0.00000000000E+00 0. -1.
         22    1    3    3    0    0 -0.66228994233E+02  0.12263994164E+02  0.14551470625E+03  0.16034717012E+03  0.00000000000E+00 0. -1.
</event>
<event>
 7    1  0.6315518E-006  0.1186640E+03  0.7818608E-02  0.1435651E+00
          2   -1    0    0  502    0  0.00000000000E+00  0.00000000000E+00  0.82159357883E+03  0.82159357883E+03  0.00000000000E+00 0. -1.
          1   -1    0    0  501    0 -0.00000000000E+00 -0.00000000000E+00 -0.68325104276E+03  0.68325104276E+03  0.00000000000E+00 0. -1.
         25    2    1    2    0    0  0.35232958333E+02 -0.92166626978E+02 -0.28715082693E+03  0.32835444880E+03  0.12499999262E+03 0.  0.
          2    1    1    2  501    0 -0.32602284457E+01 -0.22413153219E+02 -0.37073425612E+03  0.37142545307E+03  0.00000000000E+00 0. -1.
          1    1    1    2  502    0 -0.31972729887E+02  0.11457978020E+03  0.79622761912E+03  0.80506471972E+03  0.00000000000E+00 0. -1.
         22    1    3    3    0    0 -0.29079825946E+02 -0.11519685484E+01 -0.11978670656E+02  0.31471445141E+02  0.00000000000E+00 0.  1.
         22    1    3    3    0    0  0.64312784279E+02 -0.91014658429E+02 -0.27517215627E+03  0.29688300365E+03  0.00000000000E+00 0.  1.
</event>
<event>
 7    1  0.6315518E-006  0.9331364E+02  0.7818608E-02  0.1325232E+00
          2   -1    0    0  502    0  0.00000000000E+00  0.00000000000E+00  0.96069816164E+03  0.96069816164E+03  0.00000000000E+00 0. -1.
          1   -1    0    0  501    0 -0.00000000000E+00 -0.00000000000E+00 -0.44316309544E+03  0.44316309544E+03  0.00000000000E+00 0. -1.
         25    2    1    2    0    0 -0.26530237780E+02 -0.18239081927E+02  0.31549074023E+03  0.34087612458E+03  0.12500243002E+03 0.  0.
          2    1    1    2  501    0  0.94343296044E+02 -0.25908389795E+01 -0.42326758282E+03  0.43366209959E+03  0.00000000000E+00 0. -1.
          1    1    1    2  502    0 -0.67813058264E+02  0.20829920907E+02  0.62531190878E+03  0.62932303290E+03  0.00000000000E+00 0. -1.
         22    1    3    3    0    0 -0.91019865863E+01  0.47226242731E+01  0.31162225361E+03  0.31179092078E+03  0.00000000000E+00 0.  1.
         22    1    3    3    0    0 -0.17428251194E+02 -0.22961706200E+02  0.38684866279E+01  0.29085203800E+02  0.00000000000E+00 0.  1.
</event>
<event>
 7    1  0.6315518E-006  0.9457821E+02  0.7818608E-02  0.1364970E+00
          2   -1    0    0  502    0  0.00000000000E+00  0.00000000000E+00  0.18389586363E+04  0.18389586363E+04  0.00000000000E+00 0. -1.
          1   -1    0    0  501    0 -0.00000000000E+00 -0.00000000000E+00 -0.22655958261E+03  0.22655958261E+03  0.00000000000E+00 0. -1.
         25    2    1    2    0    0  0.56565222829E+02  0.11101238034E+03 -0.35854030953E+02  0.18009370830E+03  0.12499943685E+03 0.  0.
          2    1    1    2  501    0 -0.63785945942E+02 -0.61803107103E+02 -0.10155276695E+03  0.13491195434E+03  0.00000000000E+00 0. -1.
          1    1    1    2  502    0  0.72207231130E+01 -0.49209273239E+02  0.17498058516E+04  0.17505125563E+04  0.00000000000E+00 0. -1.
         22    1    3    3    0    0 -0.15660935590E+02 -0.31860030544E+01  0.26760346000E+02  0.31169402257E+02  0.00000000000E+00 0.  1.
         22    1    3    3    0    0  0.72226158419E+02  0.11419838340E+03 -0.62614376953E+02  0.14892430605E+03  0.00000000000E+00 0.  1.
</event>
<event>
 7    1  0.6315518E-006  0.5653253E+02  0.7818608E-02  0.1428693E+00
          2   -1    0    0  502    0  0.00000000000E+00  0.00000000000E+00  0.30267954478E+03  0.30267954478E+03  0.00000000000E+00 0. -1.
          1   -1    0    0  501    0 -0.00000000000E+00 -0.00000000000E+00 -0.42865135620E+03  0.42865135620E+03  0.00000000000E+00 0. -1.
         25    2    1    2    0    0  0.48618124698E+02 -0.97625918746E+01 -0.20882727460E+03  0.24838355902E+03  0.12500612596E+03 0.  0.
          2    1    1    2  501    0 -0.28192680349E+02  0.55518100607E+02 -0.19288750675E+03  0.20268862075E+03  0.00000000000E+00 0. -1.
          1    1    1    2  502    0 -0.20425444349E+02 -0.45755508732E+02  0.27574296992E+03  0.28025872122E+03  0.00000000000E+00 0. -1.
         22    1    3    3    0    0  0.18919232977E+02 -0.65873750909E+02 -0.84636013037E+02  0.10890612076E+03  0.00000000000E+00 0. -1.
         22    1    3    3    0    0  0.29698891721E+02  0.56111159034E+02 -0.12419126156E+03  0.13947743827E+03  0.00000000000E+00 0. -1.
</event>
<event>
 7    1  0.6315518E-006  0.8856146E+02  0.7818608E-02  0.1336857E+00
          2   -1    0    0  502    0  0.00000000000E+00  0.00000000000E+00  0.35776530966E+04  0.35776530966E+04  0.00000000000E+00 0. -1.
          1   -1    0    0  501    0 -0.00000000000E+00 -0.00000000000E+00 -0.15779266131E+03  0.15779266131E+03  0.00000000000E+00 0. -1.
         25    2    1    2    0    0  0.51852831470E+02 -0.11175464289E+03  0.62526656818E+02  0.18631224669E+03  0.12499941646E+03 0.  0.
          2    1    1    2  501    0  0.10095855698E+02  0.84969257598E+02 -0.76415189382E+02  0.11472132412E+03  0.00000000000E+00 0. -1.
          1    1    1    2  502    0 -0.61948687168E+02  0.26785385293E+02  0.34337489679E+04  0.34344121871E+04  0.00000000000E+00 0. -1.
         22    1    3    3    0    0  0.11473066594E+02 -0.49609136056E+02 -0.36481382726E+02  0.62638557797E+02  0.00000000000E+00 0.  1.
         22    1    3    3    0    0  0.40379764876E+02 -0.62145506836E+02  0.99008039544E+02  0.12367368890E+03  0.00000000000E+00 0.  1.
</event>
<event>
 7    1  0.6315518E-006  0.1032121E+03  0.7818608E-02  0.1289063E+00
          2   -1    0    0  502    0  0.00000000000E+00  0.00000000000E+00  0.69272025396E+03  0.69272025396E+03  0.00000000000E+00 0. -1.
          1   -1    0    0  501    0 -0.00000000000E+00 -0.00000000000E+00 -0.33734686375E+03  0.33734686375E+03  0.00000000000E+00 0. -1.
         25    2    1    2    0    0 -0.18643840821E+03 -0.37505020863E+02 -0.11882019770E+03  0.25672860781E+03  0.12500172814E+03 0.  0.
          2    1    1    2  501    0  0.86260705092E+02  0.22663384881E+02 -0.13169001015E+03  0.15904966844E+03  0.00000000000E+00 0. -1.
          1    1    1    2  502    0  0.10017770312E+03  0.14841635981E+02  0.60588359805E+03  0.61428884147E+03  0.00000000000E+00 0. -1.
         22    1    3    3    0    0 -0.13230490505E+03 -0.20009032996E+02 -0.14216655502E+03  0.19523390757E+03  0.00000000000E+00 0.  1.
         22    1    3    3    0    0 -0.54133503165E+02 -0.17495987867E+02  0.23346357321E+02  0.61494700231E+02  0.00000000000E+00 0.  1.
</event>
<event>
 7    1  0.6315518E-006  0.1754829E+03  0.7818608E-02  0.1259258E+00
          2   -1    0    0  502    0  0.00000000000E+00  0.00000000000E+00  0.33082969292E+04  0.33082969292E+04  0.00000000000E+00 0. -1.
          1   -1    0    0  501    0 -0.00000000000E+00 -0.00000000000E+00 -0.44357871712E+02  0.44357871712E+02  0.00000000000E+00 0. -1.
         25    2    1    2    0    0 -0.11898368967E+03  0.37128142224E+02  0.92432389603E+03  0.94102684868E+03  0.12498499036E+03 0.  0.
          2    1    1    2  501    0  0.18793360613E+03 -0.25964978709E+02  0.21853171456E+03  0.28939476620E+03  0.00000000000E+00 0. -1.
          1    1    1    2  502    0 -0.68949916458E+02 -0.11163163515E+02  0.21210834469E+04  0.21222331861E+04  0.00000000000E+00 0. -1.
         22    1    3    3    0    0 -0.18176139145E+01 -0.19508110584E+02  0.22386481294E+02  0.29749363751E+02  0.00000000000E+00 0.  1.
         22    1    3    3    0    0 -0.11716607576E+03  0.56636252807E+02  0.90193741474E+03  0.91127748493E+03  0.00000000000E+00 0.  1.
</event>
<event>
 7    1  0.6315518E-006  0.4713807E+02  0.7818608E-02  0.1523278E+00
          2   -1    0    0  502    0  0.00000000000E+00  0.00000000000E+00  0.50335957147E+03  0.50335957147E+03  0.00000000000E+00 0. -1.
          1   -1    0    0  501    0 -0.00000000000E+00 -0.00000000000E+00 -0.35816712939E+03  0.35816712939E+03  0.00000000000E+00 0. -1.
         25    2    1    2    0    0 -0.33631018917E+02  0.19117045772E+02  0.37274015047E+03  0.39504107164E+03  0.12500288651E+03 0.  0.
          2    1    1    2  501    0  0.88380771369E+01  0.29371021926E+02 -0.34008425969E+03  0.34146459879E+03  0.00000000000E+00 0. -1.
          1    1    1    2  502    0  0.24792941780E+02 -0.48488067698E+02  0.11253655130E+03  0.12502103043E+03  0.00000000000E+00 0. -1.
         22    1    3    3    0    0 -0.19026572425E+02  0.16068715382E+01 -0.23679868453E+01  0.19240578371E+02  0.00000000000E+00 0. -1.
         22    1    3    3    0    0 -0.14604446493E+02  0.17510174234E+02  0.37510813732E+03  0.37580049327E+03  0.00000000000E+00 0. -1.
</event>
<event>
 7    1  0.6315518E-006  0.1250084E+03  0.7818608E-02  0.1391662E+00
          2   -1    0    0  502    0  0.00000000000E+00  0.00000000000E+00  0.35801041785E+03  0.35801041785E+03  0.00000000000E+00 0. -1.
          1   -1    0    0  501    0 -0.00000000000E+00 -0.00000000000E+00 -0.27923740660E+03  0.27923740660E+03  0.00000000000E+00 0. -1.
         25    2    1    2    0    0  0.14910696458E+03  0.17576088024E+01  0.54579359534E+02  0.20208754876E+03  0.12499797920E+03 0.  0.
          2    1    1    2  501    0 -0.12099694550E+03 -0.12936305015E+02 -0.18629103157E+03  0.22251282491E+03  0.00000000000E+00 0. -1.
          1    1    1    2  502    0 -0.28110019078E+02  0.11178696212E+02  0.21048468329E+03  0.21264745077E+03  0.00000000000E+00 0. -1.
         22    1    3    3    0    0  0.10010964704E+03  0.58023395652E+02  0.53478299808E+02  0.12746993537E+03  0.00000000000E+00 0. -1.
         22    1    3    3    0    0  0.48997317537E+02 -0.56265786850E+02  0.11010597262E+01  0.74617613391E+02  0.00000000000E+00 0. -1.
</event>
<event>
 7    1  0.6315518E-006  0.7303684E+02  0.7818608E-02  0.1420495E+00
          2   -1    0    0  502    0  0.00000000000E+00  0.00000000000E+00  0.29934398492E+03  0.29934398492E+03  0.00000000000E+00 0. -1.
          1   -1    0    0  501    0 -0.00000000000E+00 -0.00000000000E+00 -0.10433569066E+04  0.10433569066E+04  0.00000000000E+00 0. -1.
         25    2    1    2    0    0  0.73137392174E+02  0.11199659064E+02 -0.35696369421E+03  0.38538679335E+03  0.12500156402E+03 0.  0.
          2    1    1    2  501    0 -0.68137403632E+02  0.29788030743E+02 -0.66861449998E+03  0.67273723112E+03  0.00000000000E+00 0. -1.
          1    1    1    2  502    0 -0.49999885414E+01 -0.40987689808E+02  0.28156527249E+03  0.28457686707E+03  0.00000000000E+00 0. -1.
         22    1    3    3    0    0  0.86215949271E+02  0.51805928074E+02 -0.27799087314E+03  0.29562809346E+03  0.00000000000E+00 0.  1.
         22    1    3    3    0    0 -0.13078557097E+02 -0.40606269010E+02 -0.78972821069E+02  0.89758699892E+02  0.00000000000E+00 0.  1.
</event>
<event>
 7    1  0.6315518E-006  0.6035864E+02  0.7818608E-02  0.1442680E+00
          2   -1    0    0  502    0  0.00000000000E+00  0.00000000000E+00  0.29448913602E+03  0.29448913602E+03  0.00000000000E+00 0. -1.
          1   -1    0    0  501    0 -0.00000000000E+00 -0.00000000000E+00 -0.59920495177E+03  0.59920495177E+03  0.00000000000E+00 0. -1.
         25    2    1    2    0    0  0.26583899361E+02  0.17420644280E+02 -0.13268029523E+03  0.18503653134E+03  0.12499709851E+03 0.  0.
          2    1    1    2  501    0 -0.22043913114E+02 -0.59422311852E+02 -0.43637999860E+03  0.44095855636E+03  0.00000000000E+00 0. -1.
          1    1    1    2  502    0 -0.45399862470E+01  0.42001667572E+02  0.26434447808E+03  0.26769900008E+03  0.00000000000E+00 0. -1.
         22    1    3    3    0    0  0.26734564777E+02  0.37452849552E+02  0.46524478224E+01  0.46250385557E+02  0.00000000000E+00 0. -1.
         22    1    3    3    0    0 -0.15066541635E+00 -0.20032205272E+02 -0.13733274305E+03  0.13878614579E+03  0.00000000000E+00 0. -1.
</event>
<event>
 7    1  0.6315518E-006  0.2729173E+02  0.7818608E-02  0.1642326E+00
          2   -1    0    0  502    0  0.00000000000E+00  0.00000000000E+00  0.69127518510E+03  0.69127518510E+03  0.00000000000E+00 0. -1.
          1   -1    0    0  501    0 -0.00000000000E+00 -0.00000000000E+00 -0.42842378147E+02  0.42842378147E+02  0.00000000000E+00 0. -1.
         25    2    1    2    0    0 -0.45938102206E+02  0.16075283395E+02  0.18073186425E+03  0.22507087337E+03  0.12499666922E+03 0.  0.
          2    1    1    2  501    0  0.25402286771E+02  0.14245786024E+01 -0.12319955988E+02  0.28268125387E+02  0.00000000000E+00 0. -1.
          1    1    1    2  502    0  0.20535815435E+02 -0.17499861997E+02  0.48002089870E+03  0.48077856449E+03  0.00000000000E+00 0. -1.
         22    1    3    3    0    0 -0.19715104986E+02 -0.27550224024E+02  0.16962237441E+03  0.17297239695E+03  0.00000000000E+00 0.  1.
         22    1    3    3    0    0 -0.26222997220E+02  0.43625507419E+02  0.11109489839E+02  0.52098476419E+02  0.00000000000E+00 0.  1.
</event>
<event>
 7    1  0.6315518E-006  0.4072691E+02  0.7818608E-02  0.1526274E+00
          2   -1    0    0  502    0  0.00000000000E+00  0.00000000000E+00  0.11270024751E+04  0.11270024751E+04  0.00000000000E+00 0. -1.
          1   -1    0    0  501    0 -0.00000000000E+00 -0.00000000000E+00 -0.14262363250E+02  0.14262363250E+02  0.00000000000E+00 0. -1.
         25    2    1    2    0    0  0.31793453880E+01 -0.10924260068E+02  0.45646176459E+03  0.47340154124E+03  0.12498891560E+03 0.  0.
          2    1    1    2  501    0 -0.16494030535E+02 -0.30643785721E+02  0.55546081759E+02  0.65547401515E+02  0.00000000000E+00 0. -1.
          1    1    1    2  502    0  0.13314685147E+02  0.41568045788E+02  0.60073226553E+03  0.60231589563E+03  0.00000000000E+00 0. -1.
         22    1    3    3    0    0  0.34057113338E+01  0.56839101937E+02  0.23527403412E+03  0.24206642376E+03  0.00000000000E+00 0. -1.
         22    1    3    3    0    0 -0.22636594580E+00 -0.67763362004E+02  0.22118773047E+03  0.23133511748E+03  0.00000000000E+00 0. -1.
</event>
<event>
 7    1  0.6315518E-006  0.7848439E+02  0.7818608E-02  0.1356039E+00
          2   -1    0    0  502    0  0.00000000000E+00  0.00000000000E+00  0.20390887255E+03  0.20390887255E+03  0.00000000000E+00 0. -1.
          1   -1    0    0  501    0 -0.00000000000E+00 -0.00000000000E+00 -0.47323348267E+03  0.47323348267E+03  0.00000000000E+00 0. -1.
         25    2    1    2    0    0 -0.12040992849E+02  0.31821711919E+02  0.75886742722E+02  0.15013617144E+03  0.12499786157E+03 0.  0.
          2    1    1    2  501    0 -0.40442383235E+02 -0.69491068582E+02 -0.42031743938E+03  0.42793848252E+03  0.00000000000E+00 0. -1.
          1    1    1    2  502    0  0.52483376084E+02  0.37669356663E+02  0.75106086538E+02  0.99067701253E+02  0.00000000000E+00 0. -1.
         22    1    3    3    0    0 -0.34835383069E+02  0.32982958117E+02 -0.19701614213E+02  0.51860708078E+02  0.00000000000E+00 0. -1.
         22    1    3    3    0    0  0.22794390220E+02 -0.11612461979E+01  0.95588356935E+02  0.98275463365E+02  0.00000000000E+00 0. -1.
</event>
<event>
 7    1  0.6315518E-006  0.9440336E+02  0.7818608E-02  0.1313919E+00
          2   -1    0    0  502    0  0.00000000000E+00  0.00000000000E+00  0.16202184588E+04  0.16202184588E+04  0.00000000000E+00 0. -1.
          1   -1    0    0  501    0 -0.00000000000E+00 -0.00000000000E+00 -0.37596464761E+03  0.37596464761E+03  0.00000000000E+00 0. -1.
         25    2    1    2    0    0 -0.92976805745E+02  0.85771156170E+02  0.87308514233E+01  0.17803868665E+03  0.12498067266E+03 0.  0.
          2    1    1    2  501    0  0.77248619825E+02  0.72040494096E+01 -0.28465815219E+03  0.29504154148E+03  0.00000000000E+00 0. -1.
          1    1    1    2  502    0  0.15728185920E+02 -0.92975205580E+02  0.15201811119E+04  0.15231028783E+04  0.00000000000E+00 0. -1.
         22    1    3    3    0    0 -0.77470693366E+02  0.62436386784E+02 -0.51187592649E+02  0.11189361182E+03  0.00000000000E+00 0. -1.
         22    1    3    3    0    0 -0.15506112379E+02  0.23334769386E+02  0.59918444072E+02  0.66145074824E+02  0.00000000000E+00 0. -1.
</event>
<event>
 7    1  0.6315518E-006  0.3568131E+02  0.7818608E-02  0.1547102E+00
          2   -1    0    0  502    0  0.00000000000E+00  0.00000000000E+00  0.11354724020E+04  0.11354724020E+04  0.00000000000E+00 0. -1.
          1   -1    0    0  501    0 -0.00000000000E+00 -0.00000000000E+00 -0.42012302895E+03  0.42012302895E+03  0.00000000000E+00 0. -1.
         25    2    1    2    0    0  0.32361995917E+02 -0.21293915211E+02  0.87672579321E+03  0.88643898310E+03  0.12500089869E+03 0.  0.
          2    1    1    2  501    0  0.38287562135E+01  0.34452682195E+02 -0.41307606465E+03  0.41452802303E+03  0.00000000000E+00 0. -1.
          1    1    1    2  502    0 -0.36190752131E+02 -0.13158766984E+02  0.25169964450E+03  0.25462842483E+03  0.00000000000E+00 0. -1.
         22    1    3    3    0    0  0.73418462151E+02 -0.33012265658E+02  0.41442537406E+03  0.42217113939E+03  0.00000000000E+00 0. -1.
         22    1    3    3    0    0 -0.41056466234E+02  0.11718350447E+02  0.46230041914E+03  0.46426784370E+03  0.00000000000E+00 0. -1.
</event>
<event>
 7    1  0.6315518E-006  0.1716547E+03  0.7818608E-02  0.1270865E+00
          2   -1    0    0  502    0  0.00000000000E+00  0.00000000000E+00  0.38452756372E+03  0.38452756372E+03  0.00000000000E+00 0. -1.
          1   -1    0    0  501    0 -0.00000000000E+00 -0.00000000000E+00 -0.10642824942E+04  0.10642824942E+04  0.00000000000E+00 0. -1.
         25    2    1    2    0    0 -0.16213991750E+03 -0.17152683245E+02 -0.50895047273E+03  0.54885297480E+03  0.12500174746E+03 0.  0.
          2    1    1    2  501    0  0.95109481892E+01 -0.63053927574E+02 -0.51290962638E+03  0.51685833722E+03  0.00000000000E+00 0. -1.
          1    1    1    2  502    0  0.15262896931E+03  0.80206610819E+02  0.34210516865E+03  0.38309874589E+03  0.00000000000E+00 0. -1.
         22    1    3    3    0    0 -0.61234849339E+02  0.41185341047E+02 -0.30639510252E+03  0.31515694175E+03  0.00000000000E+00 0. -1.
         22    1    3    3    0    0 -0.10090506816E+03 -0.58338024292E+02 -0.20255537021E+03  0.23369603304E+03  0.00000000000E+00 0. -1.
</event>
<event>
 7    1  0.6315518E-006  0.5466693E+02  0.7818608E-02  0.1477585E+00
          2   -1    0    0  502    0  0.00000000000E+00  0.00000000000E+00  0.24568248968E+03  0.24568248968E+03  0.00000000000E+00 0. -1.
          1   -1    0    0  501    0 -0.00000000000E+00 -0.00000000000E+00 -0.48868671233E+03  0.48868671233E+03  0.00000000000E+00 0. -1.
         25    2    1    2    0    0  0.41183224366E+01  0.32798853557E+02 -0.32965666748E+03  0.35410636275E+03  0.12500028940E+03 0.  0.
          2    1    1    2  501    0 -0.76620650190E+01 -0.68823959302E+02 -0.13710252420E+03  0.15359865480E+03  0.00000000000E+00 0. -1.
          1    1    1    2  502    0  0.35437425824E+01  0.36025105745E+02  0.22375496902E+03  0.22666418446E+03  0.00000000000E+00 0. -1.
         22    1    3    3    0    0  0.38768907704E+02  0.58042607383E+02 -0.10979126583E+03  0.13010032486E+03  0.00000000000E+00 0.  1.
         22    1    3    3    0    0 -0.34650585267E+02 -0.25243753826E+02 -0.21986540165E+03  0.22400603788E+03  0.00000000000E+00 0.  1.
</event>
<event>
 7    1  0.6315518E-006  0.1469698E+03  0.7818608E-02  0.1372922E+00
          2   -1    0    0  502    0  0.00000000000E+00  0.00000000000E+00  0.49485450124E+03  0.49485450124E+03  0.00000000000E+00 0. -1.
          1   -1    0    0  501    0 -0.00000000000E+00 -0.00000000000E+00 -0.79252573527E+03  0.79252573527E+03  0.00000000000E+00 0. -1.
         25    2    1    2    0    0  0.15072325353E+03 -0.66194625812E+02 -0.25821016189E+03  0.33075046659E+03  0.12499662317E+03 0.  0.
          2    1    1    2  501    0 -0.13665574209E+03  0.39737686263E+02 -0.48736792608E+03  0.50772174557E+03  0.00000000000E+00 0. -1.
          1    1    1    2  502    0 -0.14067511444E+02  0.26456939549E+02  0.44790685393E+03  0.44890802436E+03  0.00000000000E+00 0. -1.
         22    1    3    3    0    0  0.96310681078E+02  0.25894242662E+02 -0.12538462413E+03  0.16021099544E+03  0.00000000000E+00 0. -1.
         22    1    3    3    0    0  0.54412572456E+02 -0.92088868474E+02 -0.13282553776E+03  0.17053947114E+03  0.00000000000E+00 0. -1.
</event>
<event>
 7    1  0.6315518E-006  0.3689108E+02  0.7818608E-02  0.1613531E+00
          2   -1    0    0  502    0  0.00000000000E+00  0.00000000000E+00  0.16828577092E+04  0.16828577092E+04  0.00000000000E+00 0. -1.
          1   -1    0    0  501    0 -0.00000000000E+00 -0.00000000000E+00 -0.88348684707E+01  0.88348684707E+01  0.00000000000E+00 0. -1.
         25    2    1    2    0    0 -0.10999897553E+02  0.12139618087E+02  0.98851222375E+03  0.99651956830E+03  0.12500586157E+03 0.  0.
          2    1    1    2  501    0  0.27898319902E+02 -0.26609307478E+02  0.75657439121E+02  0.84914189581E+02  0.00000000000E+00 0. -1.
          1    1    1    2  502    0 -0.16898422350E+02  0.14469689390E+02  0.60985317788E+03  0.61025881982E+03  0.00000000000E+00 0. -1.
         22    1    3    3    0    0  0.61302518703E+01  0.66560377254E+02  0.62393657175E+03  0.62750674050E+03  0.00000000000E+00 0. -1.
         22    1    3    3    0    0 -0.17130149423E+02 -0.54420759167E+02  0.36457565201E+03  0.36901282780E+03  0.00000000000E+00 0. -1.
</event>
<event>
 7    1  0.6315518E-006  0.1433885E+03  0.7818608E-02  0.1244753E+00
          2   -1    0    0  502    0  0.00000000000E+00  0.00000000000E+00  0.16856883123E+04  0.16856883123E+04  0.00000000000E+00 0. -1.
          1   -1    0    0  501    0 -0.00000000000E+00 -0.00000000000E+00 -0.16215780146E+03  0.16215780146E+03  0.00000000000E+00 0. -1.
         25    2    1    2    0    0  0.16983765839E+03 -0.12823748049E+03  0.40764730163E+03  0.47653914448E+03  0.12499420818E+03 0.  0.
          2    1    1    2  501    0 -0.37882287660E+02  0.91208807609E+02 -0.10418975349E+03  0.14356050654E+03  0.00000000000E+00 0. -1.
          1    1    1    2  502    0 -0.13195537073E+03  0.37028672878E+02  0.12200729626E+04  0.12277464627E+04  0.00000000000E+00 0. -1.
         22    1    3    3    0    0  0.18917677467E+03 -0.10927533230E+03  0.34594118785E+03  0.40915065169E+03  0.00000000000E+00 0. -1.
         22    1    3    3    0    0 -0.19339116278E+02 -0.18962148187E+02  0.61706113785E+02  0.67388492792E+02  0.00000000000E+00 0. -1.
</event>
<event>
 7    1  0.6315518E-006  0.1085884E+03  0.7818608E-02  0.1397160E+00
          2   -1    0    0  502    0  0.00000000000E+00  0.00000000000E+00  0.27858518389E+03  0.27858518389E+03  0.00000000000E+00 0. -1.
          1   -1    0    0  501    0 -0.00000000000E+00 -0.00000000000E+00 -0.14935578151E+04  0.14935578151E+04  0.00000000000E+00 0. -1.
         25    2    1    2    0    0  0.24571322409E+02 -0.72409261250E+02 -0.85086322075E+03  0.86339210790E+03  0.12502344008E+03 0.  0.
          2    1    1    2  501    0  0.21761636394E+01 -0.33258927624E+02 -0.62506098678E+03  0.62594898286E+03  0.00000000000E+00 0. -1.
          1    1    1    2  502    0 -0.26747486048E+02  0.10566818887E+03  0.26095157629E+03  0.28280190826E+03  0.00000000000E+00 0. -1.
         22    1    3    3    0    0 -0.14917502497E+02 -0.62409036115E+02 -0.17654329898E+03  0.18784290267E+03  0.00000000000E+00 0. -1.
         22    1    3    3    0    0  0.39488824906E+02 -0.10000225134E+02 -0.67431992177E+03  0.67554920523E+03  0.00000000000E+00 0. -1.
</event>
<event>
 7    1  0.6315518E-006  0.4234967E+02  0.7818608E-02  0.1536756E+00
          2   -1    0    0  502    0  0.00000000000E+00  0.00000000000E+00  0.75756094666E+02  0.75756094666E+02  0.00000000000E+00 0. -1.
          1   -1    0    0  501    0 -0.00000000000E+00 -0.00000000000E+00 -0.66341115027E+03  0.66341115027E+03  0.00000000000E+00 0. -1.
         25    2    1    2    0    0 -0.29654063775E+02 -0.17897348059E+02 -0.50198250266E+03  0.51847096856E+03  0.12500413473E+03 0.  0.
          2    1    1    2  501    0  0.48520925721E+02 -0.69964553411E+01 -0.14531954192E+03  0.15336557595E+03  0.00000000000E+00 0. -1.
          1    1    1    2  502    0 -0.18866861946E+02  0.24893803400E+02  0.59646988973E+02  0.67330700434E+02  0.00000000000E+00 0. -1.
         22    1    3    3    0    0  0.35851435006E+02 -0.29252051727E+02 -0.90401292289E+02  0.10155491898E+03  0.00000000000E+00 0.  1.
         22    1    3    3    0    0 -0.65505498780E+02  0.11354703668E+02 -0.41158121037E+03  0.41691604958E+03  0.00000000000E+00 0.  1.
</event>
<event>
 7    1  0.6315518E-006  0.1380385E+03  0.7818608E-02  0.1255735E+00
          2   -1    0    0  502    0  0.00000000000E+00  0.00000000000E+00  0.56483723823E+03  0.56483723823E+03  0.00000000000E+00 0. -1.
          1   -1    0    0  501    0 -0.00000000000E+00 -0.00000000000E+00 -0.60629884799E+03  0.60629884799E+03  0.00000000000E+00 0. -1.
         25    2    1    2    0    0 -0.96790187254E+02 -0.18915480073E+03  0.22320902527E+03  0.33255819562E+03  0.12499922210E+03 0.  0.
          2    1    1    2  501    0  0.43016052483E+02  0.81251408554E+02 -0.53486391371E+03  0.54270763616E+03  0.00000000000E+00 0. -1.
          1    1    1    2  502    0  0.53774134771E+02  0.10790339218E+03  0.27019327868E+03  0.29587025443E+03  0.00000000000E+00 0. -1.
         22    1    3    3    0    0 -0.43864726175E+02 -0.46823330396E+02  0.19344155975E+01  0.64189410618E+02  0.00000000000E+00 0.  1.
         22    1    3    3    0    0 -0.52925461079E+02 -0.14233147034E+03  0.22127460967E+03  0.26836878500E+03  0.00000000000E+00 0.  1.
</event>
<event>
 7    1  0.6315518E-006  0.1008762E+03  0.7818608E-02  0.1327719E+00
          2   -1    0    0  502    0  0.00000000000E+00  0.00000000000E+00  0.13677981042E+04  0.13677981042E+04  0.00000000000E+00 0. -1.
          1   -1    0    0  501    0 -0.00000000000E+00 -0.00000000000E+00 -0.16730085686E+03  0.16730085686E+03  0.00000000000E+00 0. -1.
         25    2    1    2    0    0  0.34339653922E+02  0.46397537395E+02  0.25936284332E+03  0.29364334726E+03  0.12500155035E+03 0.  0.
          2    1    1    2  501    0 -0.19070402502E+02  0.61295635230E+02 -0.14044518543E+03  0.15442048200E+03  0.00000000000E+00 0. -1.
          1    1    1    2  502    0 -0.15269251421E+02 -0.10769317262E+03  0.10815795895E+04  0.10870351318E+04  0.00000000000E+00 0. -1.
         22    1    3    3    0    0  0.56758720263E+02  0.33602056042E+02  0.25957978835E+03  0.26782889504E+03  0.00000000000E+00 0. -1.
         22    1    3    3    0    0 -0.22419066341E+02  0.12795481353E+02 -0.21694503085E+00  0.25814452227E+02  0.00000000000E+00 0. -1.
</event>
<event>
 7    1  0.6315518E-006  0.1488982E+03  0.7818608E-02  0.1254789E+00
          2   -1    0    0  502    0  0.00000000000E+00  0.00000000000E+00  0.10192290034E+04  0.10192290034E+04  0.00000000000E+00 0. -1.
          1   -1    0    0  501    0 -0.00000000000E+00 -0.00000000000E+00 -0.51006060265E+03  0.51006060265E+03  0.00000000000E+00 0. -1.
         25    2    1    2    0    0  0.80118659998E+02 -0.23011217245E+02  0.13473725150E+03  0.20181100222E+03  0.12500015151E+03 0.  0.
          2    1    1    2  501    0 -0.11687912646E+03  0.10079476364E+03 -0.46176159267E+03  0.48687173161E+03  0.00000000000E+00 0. -1.
          1    1    1    2  502    0  0.36760466464E+02 -0.77783546399E+02  0.83619274187E+03  0.84060687217E+03  0.00000000000E+00 0. -1.
         22    1    3    3    0    0  0.22702098971E+02 -0.46552989849E+02  0.12957290764E+03  0.13954104972E+03  0.00000000000E+00 0. -1.
         22    1    3    3    0    0  0.57416561026E+02  0.23541772604E+02  0.51643438527E+01  0.62269952504E+02  0.00000000000E+00 0. -1.
</event>
<event>
 7    1  0.6315518E-006  0.9144218E+02  0.7818608E-02  0.1331865E+00
          2   -1    0    0  502    0  0.00000000000E+00  0.00000000000E+00  0.13148939114E+04  0.13148939114E+04  0.00000000000E+00 0. -1.
          1   -1    0    0  501    0 -0.00000000000E+00 -0.00000000000E+00 -0.42058470716E+03  0.42058470716E+03  0.00000000000E+00 0. -1.
         25    2    1    2    0    0 -0.85242267146E+02  0.65873272777E+02 -0.92958628510E+02  0.18939724765E+03  0.12499791450E+03 0.  0.
          2    1    1    2  501    0  0.21230825094E+02 -0.89635345939E+02 -0.27086362336E+03  0.28609848940E+03  0.00000000000E+00 0. -1.
          1    1    1    2  502    0  0.64011442051E+02  0.23762073162E+02  0.12581314561E+04  0.12599828815E+04  0.00000000000E+00 0. -1.
         22    1    3    3    0    0 -0.39430825474E+02 -0.33573212119E+02 -0.11820955490E+02  0.53119540267E+02  0.00000000000E+00 0.  1.
         22    1    3    3    0    0 -0.45811441672E+02  0.99446484896E+02 -0.81137673021E+02  0.13627770738E+03  0.00000000000E+00 0.  1.
</event>
<event>
 7    1  0.6315518E-006  0.3208639E+03  0.7818608E-02  0.1180290E+00
          2   -1    0    0  502    0  0.00000000000E+00  0.00000000000E+00  0.39467062568E+03  0.39467062568E+03  0.00000000000E+00 0. -1.
          1   -1    0    0  501    0 -0.00000000000E+00 -0.00000000000E+00 -0.15795962294E+04  0.15795962294E+04  0.00000000000E+00 0. -1.
         25    2    1    2    0    0  0.21535502033E+03  0.14440470197E+03 -0.29646535967E+03  0.41321493907E+03  0.12499749459E+03 0.  0.
          2    1    1    2  501    0 -0.28738769072E+03 -0.19430153161E+03 -0.11939065176E+04  0.12432849805E+04  0.00000000000E+00 0. -1.
          1    1    1    2  502    0  0.72032670391E+02  0.49896829631E+02  0.30544627361E+03  0.31776693546E+03  0.00000000000E+00 0. -1.
         22    1    3    3    0    0  0.19975299679E+03  0.16451210612E+03 -0.24775724106E+03  0.35825848669E+03  0.00000000000E+00 0.  1.
         22    1    3    3    0    0  0.15602023536E+02 -0.20107404141E+02 -0.48708118615E+02  0.54956452385E+02  0.00000000000E+00 0.  1.
</event>
<event>
 7    1  0.6315518E-006  0.1168130E+03  0.7818608E-02  0.1277182E+00
          2   -1    0    0  502    0  0.00000000000E+00  0.00000000000E+00  0.31515860673E+03  0.31515860673E+03  0.00000000000E+00 0. -1.
          1   -1    0    0  501    0 -0.00000000000E+00 -0.00000000000E+00 -0.10400577011E+04  0.10400577011E+04  0.00000000000E+00 0. -1.
         25    2    1    2    0    0 -0.12339602275E+03 -0.20419766431E+02 -0.54086110348E+03  0.56903264093E+03  0.12499547152E+03 0.  0.
          2    1    1    2  501    0  0.51034810839E+02 -0.71919027730E+02 -0.46941900708E+03  0.47763071789E+03  0.00000000000E+00 0. -1.
          1    1    1    2  502    0  0.72361211911E+02  0.92338794162E+02  0.28538101622E+03  0.30855294897E+03  0.00000000000E+00 0. -1.
         22    1    3    3    0    0 -0.16197027310E+02 -0.36842746583E+01  0.78257115025E+00  0.16629190931E+02  0.00000000000E+00 0.  1.
         22    1    3    3    0    0 -0.10719899544E+03 -0.16735491773E+02 -0.54164367463E+03  0.55240345000E+03  0.00000000000E+00 0.  1.
</event>
<event>
 7    1  0.6315518E-006  0.9927841E+02  0.7818608E-02  0.1446562E+00
          2   -1    0    0  502    0  0.00000000000E+00  0.00000000000E+00  0.57247635888E+03  0.57247635888E+03  0.00000000000E+00 0. -1.
          1   -1    0    0  501    0 -0.00000000000E+00 -0.00000000000E+00 -0.13554286204E+04  0.13554286204E+04  0.00000000000E+00 0. -1.
         25    2    1    2    0    0  0.76505184852E+02  0.64293476888E+01  0.27957909927E+02  0.14933419941E+03  0.12499871425E+03 0.  0.
          2    1    1    2  501    0  0.24705698308E+02 -0.35184635493E+01 -0.12893210411E+04  0.12895625220E+04  0.00000000000E+00 0. -1.
          1    1    1    2  502    0 -0.10121088316E+03 -0.29108841394E+01  0.47841086962E+03  0.48900825790E+03  0.00000000000E+00 0. -1.
         22    1    3    3    0    0 -0.52186806735E+01  0.43002260120E+02 -0.20059331926E+02  0.47736839032E+02  0.00000000000E+00 0.  1.
         22    1    3    3    0    0  0.81723865526E+02 -0.36572912431E+02  0.48017241853E+02  0.10159736038E+03  0.00000000000E+00 0.  1.
</event>
<event>
 7    1  0.6315518E-006  0.2532868E+03  0.7818608E-02  0.1156392E+00
          2   -1    0    0  502    0  0.00000000000E+00  0.00000000000E+00  0.25837357414E+04  0.25837357414E+04  0.00000000000E+00 0. -1.
          1   -1    0    0  501    0 -0.00000000000E+00 -0.00000000000E+00 -0.81377150010E+03  0.81377150010E+03  0.00000000000E+00 0. -1.
         25    2    1    2    0    0 -0.39356748570E+03 -0.94326440907E+00  0.43557734698E+03  0.60021123203E+03  0.12501856784E+03 0.  0.
          2    1    1    2  501    0  0.24758280584E+03 -0.21523525042E+01 -0.70782084726E+03  0.74987480967E+03  0.00000000000E+00 0. -1.
          1    1    1    2  502    0  0.14598467986E+03  0.30956169133E+01  0.20422077416E+04  0.20474211998E+04  0.00000000000E+00 0. -1.
         22    1    3    3    0    0 -0.16425448229E+03 -0.24873022648E+02  0.26751524407E+03  0.31490094954E+03  0.00000000000E+00 0. -1.
         22    1    3    3    0    0 -0.22931300341E+03  0.23929758239E+02  0.16806210290E+03  0.28531028249E+03  0.00000000000E+00 0. -1.
</event>
<event>
 7    1  0.6315518E-006  0.7494891E+02  0.7818608E-02  0.1376885E+00
          2   -1    0    0  502    0  0.00000000000E+00  0.00000000000E+00  0.70184311497E+03  0.70184311497E+03  0.00000000000E+00 0. -1.
          1   -1    0    0  501    0 -0.00000000000E+00 -0.00000000000E+00 -0.16072597208E+04  0.16072597208E+04  0.00000000000E+00 0. -1.
         25    2    1    2    0    0 -0.68133612685E+02 -0.11039739542E+03 -0.78838703889E+03  0.80870111923E+03  0.12495440395E+03 0.  0.
          2    1    1    2  501    0  0.38822210563E+02  0.41564835701E+02 -0.80568722956E+03  0.80769221333E+03  0.00000000000E+00 0. -1.
          1    1    1    2  502    0  0.29311402121E+02  0.68832559722E+02  0.68865766261E+03  0.69270950322E+03  0.00000000000E+00 0. -1.
         22    1    3    3    0    0  0.10936702462E+02 -0.70529896452E+01 -0.40296044516E+01  0.13623282854E+02  0.00000000000E+00 0.  1.
         22    1    3    3    0    0 -0.79070315146E+02 -0.10334440578E+03 -0.78435743443E+03  0.79507783638E+03  0.00000000000E+00 0.  1.
</event>
<event>
 7    1  0.6315518E-006  0.5982158E+02  0.7818608E-02  0.1489977E+00
          2   -1    0    0  502    0  0.00000000000E+00  0.00000000000E+00  0.17810073202E+04  0.17810073202E+04  0.00000000000E+00 0. -1.
          1   -1    0    0  501    0 -0.00000000000E+00 -0.00000000000E+00 -0.56685594193E+03  0.56685594193E+03  0.00000000000E+00 0. -1.
         25    2    1    2    0    0  0.25745600778E+02  0.44093641150E+02  0.30467572048E+02  0.13842198834E+03  0.12500115503E+03 0.  0.
          2    1    1    2  501    0 -0.52369326142E+02 -0.29583431276E+02 -0.51097921003E+03  0.51450702504E+03  0.00000000000E+00 0. -1.
          1    1    1    2  502    0  0.26623725365E+02 -0.14510209874E+02  0.16946630162E+04  0.16949342487E+04  0.00000000000E+00 0. -1.
         22    1    3    3    0    0  0.64366630012E+02  0.55722248914E+02  0.44058222751E+02  0.95860101581E+02  0.00000000000E+00 0.  1.
         22    1    3    3    0    0 -0.38621029234E+02 -0.11628607764E+02 -0.13590650704E+02  0.42561886756E+02  0.00000000000E+00 0.  1.
</event>
<event>
 7    1  0.6315518E-006  0.1048333E+03  0.7818608E-02  0.1302491E+00
          2   -1    0    0  502    0  0.00000000000E+00  0.00000000000E+00  0.13952709249E+04  0.13952709249E+04  0.00000000000E+00 0. -1.
          1   -1    0    0  501    0 -0.00000000000E+00 -0.00000000000E+00 -0.34714174230E+03  0.34714174230E+03  0.00000000000E+00 0. -1.
         25    2    1    2    0    0  0.31481650887E+01  0.16870449074E+03  0.36605997385E+03  0.42201299314E+03  0.12499578307E+03 0.  0.
          2    1    1    2  501    0  0.30732837978E+02 -0.98978237127E+02 -0.30919829671E+03  0.32610548208E+03  0.00000000000E+00 0. -1.
          1    1    1    2  502    0 -0.33881003067E+02 -0.69726253616E+02  0.99126750544E+03  0.99429419196E+03  0.00000000000E+00 0. -1.
         22    1    3    3    0    0  0.12207073020E+02  0.65956492889E+02  0.35824594792E+02  0.76043889814E+02  0.00000000000E+00 0. -1.
         22    1    3    3    0    0 -0.90589079316E+01  0.10274799785E+03  0.33023537906E+03  0.34596910333E+03  0.00000000000E+00 0. -1.
</event>
<event>
 7    1  0.6315518E-006  0.9368120E+02  0.7818608E-02  0.1338939E+00
          2   -1    0    0  502    0  0.00000000000E+00  0.00000000000E+00  0.44453675769E+03  0.44453675769E+03  0.00000000000E+00 0. -1.
          1   -1    0    0  501    0 -0.00000000000E+00 -0.00000000000E+00 -0.13689313632E+04  0.13689313632E+04  0.00000000000E+00 0. -1.
         25    2    1    2    0    0 -0.60396281407E+02 -0.19193876344E+02 -0.42701662156E+03  0.44942609251E+03  0.12499800738E+03 0.  0.
          2    1    1    2  501    0 -0.25877078324E+02  0.57066138320E+02 -0.92451538270E+03  0.92663631494E+03  0.00000000000E+00 0. -1.
          1    1    1    2  502    0  0.86273359731E+02 -0.37872261975E+02  0.42713739869E+03  0.43740571349E+03  0.00000000000E+00 0. -1.
         22    1    3    3    0    0 -0.36187991878E+02 -0.56951142452E+02 -0.10852261145E+03  0.12778951671E+03  0.00000000000E+00 0. -1.
         22    1    3    3    0    0 -0.24208289529E+02  0.37757266107E+02 -0.31849401010E+03  0.32163657581E+03  0.00000000000E+00 0. -1.
</event>
<event>
 7    1  0.6315518E-006  0.5035981E+02  0.7818608E-02  0.1484314E+00
          2   -1    0    0  502    0  0.00000000000E+00  0.00000000000E+00  0.41912258491E+02  0.41912258491E+02  0.00000000000E+00 0. -1.
          1   -1    0    0  501    0 -0.00000000000E+00 -0.00000000000E+00 -0.44814599929E+03  0.44814599929E+03  0.00000000000E+00 0. -1.
         25    2    1    2    0    0 -0.11062692067E+02  0.43597355875E+02 -0.10100433864E+03  0.16688054609E+03  0.12499651053E+03 0.  0.
          2    1    1    2  501    0 -0.26399242742E+02 -0.44514163240E+02 -0.25669562329E+03  0.26186079081E+03  0.00000000000E+00 0. -1.
          1    1    1    2  502    0  0.37461934809E+02  0.91680736522E+00 -0.48533778865E+02  0.61316920881E+02  0.00000000000E+00 0. -1.
         22    1    3    3    0    0 -0.46081555004E+02 -0.15976515531E+02 -0.56209890714E+01  0.49095359029E+02  0.00000000000E+00 0.  1.
         22    1    3    3    0    0  0.35018862937E+02  0.59573871406E+02 -0.95383349569E+02  0.11778518706E+03  0.00000000000E+00 0.  1.
</event>
<event>
 7    1  0.6315518E-006  0.4756064E+02  0.7818608E-02  0.1542258E+00
          2   -1    0    0  502    0  0.00000000000E+00  0.00000000000E+00  0.15977363539E+04  0.15977363539E+04  0.00000000000E+00 0. -1.
          1   -1    0    0  501    0 -0.00000000000E+00 -0.00000000000E+00 -0.91692155923E+02  0.91692155923E+02  0.00000000000E+00 0. -1.
         25    2    1    2    0    0  0.42370902108E+02  0.14400192460E+02  0.70198295234E+03  0.71442934730E+03  0.12500627193E+03 0.  0.
          2    1    1    2  501    0  0.46896116010E+01 -0.26421149153E+02 -0.82681588753E+02  0.86927065395E+02  0.00000000000E+00 0. -1.
          1    1    1    2  502    0 -0.47060513709E+02  0.12020956692E+02  0.88674283444E+03  0.88807209717E+03  0.00000000000E+00 0. -1.
         22    1    3    3    0    0  0.40597343503E+02 -0.38080128334E+02  0.56486218876E+03  0.56759803802E+03  0.00000000000E+00 0. -1.
         22    1    3    3    0    0  0.17735586051E+01  0.52480320795E+02  0.13712076358E+03  0.14683130928E+03  0.00000000000E+00 0. -1.
</event>
<event>
 7    1  0.6315518E-006  0.1204143E+03  0.7818608E-02  0.1363237E+00
          2   -1    0    0  502    0  0.00000000000E+00  0.00000000000E+00  0.33277316378E+03  0.33277316378E+03  0.00000000000E+00 0. -1.
          1   -1    0    0  501    0 -0.00000000000E+00 -0.00000000000E+00 -0.48202085381E+03  0.48202085381E+03  0.00000000000E+00 0. -1.
         25    2    1    2    0    0  0.44153512035E+01 -0.82100331844E+02  0.19233031237E+03  0.24367399932E+03  0.12500443621E+03 0.  0.
          2    1    1    2  501    0 -0.70627604005E+01  0.12164616712E+03 -0.44446378257E+03  0.46086410858E+03  0.00000000000E+00 0. -1.
          1    1    1    2  502    0  0.26474091970E+01 -0.39545835277E+02  0.10288578016E+03  0.11025590970E+03  0.00000000000E+00 0. -1.
         22    1    3    3    0    0  0.20695155369E+02 -0.10595424627E+03  0.10081523464E+03  0.14771020037E+03  0.00000000000E+00 0.  1.
         22    1    3    3    0    0 -0.16279804166E+02  0.23853914422E+02  0.91515077733E+02  0.95963798952E+02  0.00000000000E+00 0.  1.
</event>
<event>
 7    1  0.6315518E-006  0.1153499E+03  0.7818608E-02  0.1374227E+00
          2   -1    0    0  502    0  0.00000000000E+00  0.00000000000E+00  0.28562983793E+03  0.28562983793E+03  0.00000000000E+00 0. -1.
          1   -1    0    0  501    0 -0.00000000000E+00 -0.00000000000E+00 -0.48271832902E+03  0.48271832902E+03  0.00000000000E+00 0. -1.
         25    2    1    2    0    0  0.89453497068E+02 -0.29564339321E+02 -0.19856796928E+03  0.25284376642E+03  0.12499901398E+03 0.  0.
          2    1    1    2  501    0 -0.11458941020E+03  0.57756097530E+02 -0.23943158996E+03  0.27165048500E+03  0.00000000000E+00 0. -1.
          1    1    1    2  502    0  0.25135913134E+02 -0.28191758209E+02  0.24091106815E+03  0.24385391553E+03  0.00000000000E+00 0. -1.
         22    1    3    3    0    0  0.56680525487E+02 -0.69270504791E+02 -0.17427573096E+03  0.19591609226E+03  0.00000000000E+00 0. -1.
         22    1    3    3    0    0  0.32772971580E+02  0.39706165469E+02 -0.24292238315E+02  0.56927674156E+02  0.00000000000E+00 0. -1.
</event>
<event>
 7    1  0.6315518E-006  0.1340410E+03  0.7818608E-02  0.1383994E+00
          2   -1    0    0  502    0  0.00000000000E+00  0.00000000000E+00  0.50383195926E+03  0.50383195926E+03  0.00000000000E+00 0. -1.
          1   -1    0    0  501    0 -0.00000000000E+00 -0.00000000000E+00 -0.54592894574E+03  0.54592894574E+03  0.00000000000E+00 0. -1.
         25    2    1    2    0    0  0.11179032850E+03  0.64990268731E+02 -0.21288569479E+03  0.27868723132E+03  0.12500176511E+03 0.  0.
          2    1    1    2  501    0 -0.13080312701E+03 -0.41769347577E+02 -0.28391756529E+03  0.31537805933E+03  0.00000000000E+00 0. -1.
          1    1    1    2  502    0  0.19012798506E+02 -0.23220921153E+02  0.45470627360E+03  0.45569561435E+03  0.00000000000E+00 0. -1.
         22    1    3    3    0    0  0.12234698200E+03  0.38992608797E+02 -0.21512862285E+03  0.25053848390E+03  0.00000000000E+00 0.  1.
         22    1    3    3    0    0 -0.10556653503E+02  0.25997659934E+02  0.22429280576E+01  0.28148747423E+02  0.00000000000E+00 0.  1.
</event>
<event>
 7    1  0.6315518E-006  0.1129615E+03  0.7818608E-02  0.1326610E+00
          2   -1    0    0  502    0  0.00000000000E+00  0.00000000000E+00  0.17490235402E+03  0.17490235402E+03  0.00000000000E+00 0. -1.
          1   -1    0    0  501    0 -0.00000000000E+00 -0.00000000000E+00 -0.91914532861E+03  0.91914532861E+03  0.00000000000E+00 0. -1.
         25    2    1    2    0    0 -0.66809119039E+02 -0.25483172551E+02 -0.18638032862E+03  0.23553081836E+03  0.12499715609E+03 0.  0.
          2    1    1    2  501    0  0.97072293051E+02  0.74833298295E+02 -0.69706390933E+03  0.70775783027E+03  0.00000000000E+00 0. -1.
          1    1    1    2  502    0 -0.30263174011E+02 -0.49350125744E+02  0.13920126337E+03  0.15075903401E+03  0.00000000000E+00 0. -1.
         22    1    3    3    0    0 -0.94991270901E+02 -0.46482154546E+02 -0.11670135458E+03  0.15749012159E+03  0.00000000000E+00 0.  1.
         22    1    3    3    0    0  0.28182151861E+02  0.20998981995E+02 -0.69678974040E+02  0.78040696765E+02  0.00000000000E+00 0.  1.
</event>
<event>
 7    1  0.6315518E-006  0.5013427E+02  0.7818608E-02  0.1492924E+00
          2   -1    0    0  502    0  0.00000000000E+00  0.00000000000E+00  0.82545495751E+03  0.82545495751E+03  0.00000000000E+00 0. -1.
          1   -1    0    0  501    0 -0.00000000000E+00 -0.00000000000E+00 -0.10342954637E+04  0.10342954637E+04  0.00000000000E+00 0. -1.
         25    2    1    2    0    0  0.62746574068E+02  0.32159649290E+02  0.12507553621E+03  0.19036850265E+03  0.12499960577E+03 0.  0.
          2    1    1    2  501    0 -0.28473922419E+02 -0.41205452907E+02 -0.10005517003E+04  0.10018045511E+04  0.00000000000E+00 0. -1.
          1    1    1    2  502    0 -0.34272651649E+02  0.90458036172E+01  0.66663565789E+03  0.66757736748E+03  0.00000000000E+00 0. -1.
         22    1    3    3    0    0  0.17990155006E+02  0.90599204066E+01 -0.24977955399E+02  0.32087787254E+02  0.00000000000E+00 0.  1.
         22    1    3    3    0    0  0.44756419061E+02  0.23099728883E+02  0.15005349161E+03  0.15828071540E+03  0.00000000000E+00 0.  1.
</event>
<event>
 7    1  0.6315518E-006  0.1881698E+03  0.7818608E-02  0.1342512E+00
          2   -1    0    0  502    0  0.00000000000E+00  0.00000000000E+00  0.81451288740E+03  0.81451288740E+03  0.00000000000E+00 0. -1.
          1   -1    0    0  501    0 -0.00000000000E+00 -0.00000000000E+00 -0.23347324683E+04  0.23347324683E+04  0.00000000000E+00 0. -1.
         25    2    1    2    0    0  0.12374884646E+03 -0.12141275042E+03 -0.15339212940E+04  0.15487393264E+04  0.12499652753E+03 0.  0.
          2    1    1    2  501    0  0.28378110215E+02  0.10462879347E+02 -0.78212449524E+03  0.78270908711E+03  0.00000000000E+00 0. -1.
          1    1    1    2  502    0 -0.15212695668E+03  0.11094987108E+03  0.79582620834E+03  0.81779694223E+03  0.00000000000E+00 0. -1.
         22    1    3    3    0    0  0.88594139375E+02 -0.11829084232E+03 -0.14524831802E+04  0.14599825457E+04  0.00000000000E+00 0. -1.
         22    1    3    3    0    0  0.35154707085E+02 -0.31219081023E+01 -0.81438113804E+02  0.88756780701E+02  0.00000000000E+00 0. -1.
</event>
<event>
 7    1  0.6315518E-006  0.5933474E+02  0.7818608E-02  0.1496669E+00
          2   -1    0    0  502    0  0.00000000000E+00  0.00000000000E+00  0.48276953087E+03  0.48276953087E+03  0.00000000000E+00 0. -1.
          1   -1    0    0  501    0 -0.00000000000E+00 -0.00000000000E+00 -0.30534318350E+03  0.30534318350E+03  0.00000000000E+00 0. -1.
         25    2    1    2    0    0  0.11463424966E+02 -0.37546266780E+02 -0.26401697097E+02  0.13365254909E+03  0.12499928803E+03 0.  0.
          2    1    1    2  501    0  0.61648229634E+01  0.60804228597E+02 -0.22066146525E+03  0.22896864742E+03  0.00000000000E+00 0. -1.
          1    1    1    2  502    0 -0.17628247929E+02 -0.23257961817E+02  0.42448950972E+03  0.42549151786E+03  0.00000000000E+00 0. -1.
         22    1    3    3    0    0 -0.29350413216E+02  0.16639473871E+02  0.30217024098E+02  0.45292244281E+02  0.00000000000E+00 0.  1.
         22    1    3    3    0    0  0.40813838182E+02 -0.54185740651E+02 -0.56618721195E+02  0.88360304814E+02  0.00000000000E+00 0.  1.
</event>
<event>
 7    1  0.6315518E-006  0.6305720E+02  0.7818608E-02  0.1415687E+00
          2   -1    0    0  502    0  0.00000000000E+00  0.00000000000E+00  0.23406026565E+03  0.23406026565E+03  0.00000000000E+00 0. -1.
          1   -1    0    0  501    0 -0.00000000000E+00 -0.00000000000E+00 -0.46987029338E+03  0.46987029338E+03  0.00000000000E+00 0. -1.
         25    2    1    2    0    0 -0.12283657716E+02 -0.13902147372E+02 -0.16588107872E+03  0.20852913887E+03  0.12499484603E+03 0.  0.
          2    1    1    2  501    0 -0.49470934788E+02 -0.40086246136E+01 -0.27553810581E+03  0.27997265976E+03  0.00000000000E+00 0. -1.
          1    1    1    2  502    0  0.61754592504E+02  0.17910771985E+02  0.20560915680E+03  0.21542876040E+03  0.00000000000E+00 0. -1.
         22    1    3    3    0    0 -0.11735313213E+02  0.42889698460E+02 -0.13853054761E+03  0.14549211811E+03  0.00000000000E+00 0. -1.
         22    1    3    3    0    0 -0.54834450225E+00 -0.56791845831E+02 -0.27350531105E+02  0.63037020761E+02  0.00000000000E+00 0. -1.
</event>
<event>
 7    1  0.6315518E-006  0.2387045E+03  0.7818608E-02  0.1318478E+00
          2   -1    0    0  502    0  0.00000000000E+00  0.00000000000E+00  0.21140823286E+04  0.21140823286E+04  0.00000000000E+00 0. -1.
          1   -1    0    0  501    0 -0.00000000000E+00 -0.00000000000E+00 -0.76394306626E+02  0.76394306626E+02  0.00000000000E+00 0. -1.
         25    2    1    2    0    0  0.15659927022E+03  0.19587150329E+03  0.56421999721E+03  0.62996727613E+03  0.12500234601E+03 0.  0.
          2    1    1    2  501    0 -0.29350386060E+02  0.24351975191E+01 -0.28017179006E+02  0.40648956546E+02  0.00000000000E+00 0. -1.
          1    1    1    2  502    0 -0.12724888416E+03 -0.19830670080E+03  0.15014852038E+04  0.15198604026E+04  0.00000000000E+00 0. -1.
         22    1    3    3    0    0  0.15661715786E+03  0.21060662790E+03  0.50731253744E+03  0.57118306741E+03  0.00000000000E+00 0.  1.
         22    1    3    3    0    0 -0.17887634893E-01 -0.14735124615E+02  0.56907459774E+02  0.58784208725E+02  0.00000000000E+00 0.  1.
</event>
<event>
 7    1  0.6315518E-006  0.1351994E+03  0.7818608E-02  0.1373248E+00
          2   -1    0    0  502    0  0.00000000000E+00  0.00000000000E+00  0.37609639993E+03  0.37609639993E+03  0.00000000000E+00 0. -1.
          1   -1    0    0  501    0 -0.00000000000E+00 -0.00000000000E+00 -0.51248344666E+03  0.51248344666E+03  0.00000000000E+00 0. -1.
         25    2    1    2    0    0 -0.36233210233E+02  0.12152358011E+03  0.17798741420E+02  0.17894921251E+03  0.12500079765E+03 0.  0.
          2    1    1    2  501    0  0.28364977352E+02  0.15835179038E+02 -0.41419330036E+03  0.41546529927E+03  0.00000000000E+00 0. -1.
          1    1    1    2  502    0  0.78682328808E+01 -0.13735875915E+03  0.26000751221E+03  0.29416533482E+03  0.00000000000E+00 0. -1.
         22    1    3    3    0    0 -0.68123000126E+02  0.12513460156E+03  0.47130897484E+00  0.14247678333E+03  0.00000000000E+00 0. -1.
         22    1    3    3    0    0  0.31889789893E+02 -0.36110214495E+01  0.17327432446E+02  0.36472429183E+02  0.00000000000E+00 0. -1.
</event>
<event>
 7    1  0.6315518E-006  0.7639111E+02  0.7818608E-02  0.1349417E+00
          2   -1    0    0  502    0  0.00000000000E+00  0.00000000000E+00  0.89225693718E+03  0.89225693718E+03  0.00000000000E+00 0. -1.
          1   -1    0    0  501    0 -0.00000000000E+00 -0.00000000000E+00 -0.17121051449E+03  0.17121051449E+03  0.00000000000E+00 0. -1.
         25    2    1    2    0    0 -0.24504944990E+02 -0.52509229516E+02  0.12223880530E+03  0.18418896730E+03  0.12500215455E+03 0.  0.
          2    1    1    2  501    0 -0.44336158762E+02  0.66328641037E+02 -0.12705531365E+03  0.15002745190E+03  0.00000000000E+00 0. -1.
          1    1    1    2  502    0  0.68841103752E+02 -0.13819411521E+02  0.72586293104E+03  0.72925103247E+03  0.00000000000E+00 0. -1.
         22    1    3    3    0    0 -0.15953018614E+02 -0.26143215751E+02  0.14507673892E+03  0.14827416062E+03  0.00000000000E+00 0.  1.
         22    1    3    3    0    0 -0.85519263754E+01 -0.26366013765E+02 -0.22837933623E+02  0.35914806679E+02  0.00000000000E+00 0.  1.
</event>
<event>
 7    1  0.6315518E-006  0.1074610E+03  0.7818608E-02  0.1384889E+00
          2   -1    0    0  502    0  0.00000000000E+00  0.00000000000E+00  0.21187013420E+04  0.21187013420E+04  0.00000000000E+00 0. -1.
          1   -1    0    0  501    0 -0.00000000000E+00 -0.00000000000E+00 -0.29556950621E+03  0.29556950621E+03  0.00000000000E+00 0. -1.
         25    2    1    2    0    0 -0.99768887271E+02  0.55193793344E+02  0.78370009726E+03  0.80175490656E+03  0.12499960821E+03 0.  0.
          2    1    1    2  501    0  0.10584614820E+03 -0.18529525913E+02 -0.27619624118E+03  0.29636314558E+03  0.00000000000E+00 0. -1.
          1    1    1    2  502    0 -0.60772609327E+01 -0.36664267431E+02  0.13156279797E+04  0.13161527961E+04  0.00000000000E+00 0. -1.
         22    1    3    3    0    0 -0.10806438386E+03 -0.18812053901E+01  0.58293175362E+03  0.59286666239E+03  0.00000000000E+00 0. -1.
         22    1    3    3    0    0  0.82954965900E+01  0.57074998734E+02  0.20076834364E+03  0.20888824417E+03  0.00000000000E+00 0. -1.
</event>
<event>
 7    1  0.6315518E-006  0.1301650E+03  0.7818608E-02  0.1407540E+00
          2   -1    0    0  502    0  0.00000000000E+00  0.00000000000E+00  0.14613649976E+03  0.14613649976E+03  0.00000000000E+00 0. -1.
          1   -1    0    0  501    0 -0.00000000000E+00 -0.00000000000E+00 -0.42794703641E+03  0.42794703641E+03  0.00000000000E+00 0. -1.
         25    2    1    2    0    0  0.84598093192E+02  0.12319441233E+03 -0.12612754730E+03  0.23209304012E+03  0.12500128192E+03 0.  0.
          2    1    1    2  501    0 -0.66075923899E+02 -0.10549578591E+03 -0.23101680278E+03  0.26241980057E+03  0.00000000000E+00 0. -1.
          1    1    1    2  502    0 -0.18522169293E+02 -0.17698626422E+02  0.75333813437E+02  0.79570695482E+02  0.00000000000E+00 0. -1.
         22    1    3    3    0    0  0.37805533318E+02  0.12682151061E+03 -0.12934642359E+03  0.18504986138E+03  0.00000000000E+00 0.  1.
         22    1    3    3    0    0  0.46792559873E+02 -0.36270982788E+01  0.32188762833E+01  0.47043178740E+02  0.00000000000E+00 0.  1.
</event>
<event>
 7    1  0.6315518E-006  0.1355304E+03  0.7818608E-02  0.1396757E+00
          2   -1    0    0  502    0  0.00000000000E+00  0.00000000000E+00  0.33677619788E+04  0.33677619788E+04  0.00000000000E+00 0. -1.
          1   -1    0    0  501    0 -0.00000000000E+00 -0.00000000000E+00 -0.13914066577E+04  0.13914066577E+04  0.00000000000E+00 0. -1.
         25    2    1    2    0    0 -0.53604014322E+02 -0.14778959594E+03  0.19151935575E+04  0.19256965124E+04  0.12500216074E+03 0.  0.
          2    1    1    2  501    0  0.32260506865E+02  0.13159807867E+03 -0.13827195263E+04  0.13893423203E+04  0.00000000000E+00 0. -1.
          1    1    1    2  502    0  0.21343507457E+02  0.16191517274E+02  0.14438812900E+04  0.14441298038E+04  0.00000000000E+00 0. -1.
         22    1    3    3    0    0 -0.52993716930E+02 -0.27134037977E+02  0.29102608547E+03  0.29705348420E+03  0.00000000000E+00 0. -1.
         22    1    3    3    0    0 -0.61029739200E+00 -0.12065555797E+03  0.16241674720E+04  0.16286430282E+04  0.00000000000E+00 0. -1.
</event>
<event>
 7    1  0.6315518E-006  0.6021480E+02  0.7818608E-02  0.1429852E+00
          2   -1    0    0  502    0  0.00000000000E+00  0.00000000000E+00  0.34957712510E+04  0.34957712510E+04  0.00000000000E+00 0. -1.
          1   -1    0    0  501    0 -0.00000000000E+00 -0.00000000000E+00 -0.17251245619E+04  0.17251245619E+04  0.00000000000E+00 0. -1.
         25    2    1    2    0    0 -0.38355346522E+02 -0.33491014098E+02  0.72582918934E+03  0.73827221128E+03  0.12500026087E+03 0.  0.
          2    1    1    2  501    0  0.37202833394E+02 -0.28114930079E+02 -0.17182432518E+04  0.17188759038E+04  0.00000000000E+00 0. -1.
          1    1    1    2  502    0  0.11525131277E+01  0.61605944177E+02  0.27630607516E+04  0.27637476979E+04  0.00000000000E+00 0. -1.
         22    1    3    3    0    0  0.16692672946E+02  0.38289644513E+02  0.30374321026E+03  0.30660182646E+03  0.00000000000E+00 0.  1.
         22    1    3    3    0    0 -0.55048019468E+02 -0.71780658611E+02  0.42208597908E+03  0.43167038483E+03  0.00000000000E+00 0.  1.
</event>
<event>
 7    1  0.6315518E-006  0.1397534E+03  0.7818608E-02  0.1219029E+00
          2   -1    0    0  502    0  0.00000000000E+00  0.00000000000E+00  0.10465397538E+04  0.10465397538E+04  0.00000000000E+00 0. -1.
          1   -1    0    0  501    0 -0.00000000000E+00 -0.00000000000E+00 -0.13988472525E+04  0.13988472525E+04  0.00000000000E+00 0. -1.
         25    2    1    2    0    0  0.12291538291E+02 -0.16341253651E+03  0.79077313518E+02  0.22075667509E+03  0.12500219630E+03 0.  0.
          2    1    1    2  501    0  0.10182628009E+03  0.96973555034E+02 -0.13193894310E+04  0.13268613087E+04  0.00000000000E+00 0. -1.
          1    1    1    2  502    0 -0.11411781838E+03  0.66438981480E+02  0.88800461886E+03  0.89776902255E+03  0.00000000000E+00 0. -1.
         22    1    3    3    0    0  0.60694060768E+02 -0.13911295658E+03  0.62208708494E+02  0.16403081148E+03  0.00000000000E+00 0.  1.
         22    1    3    3    0    0 -0.48402522478E+02 -0.24299579933E+02  0.16868605024E+02  0.56725863613E+02  0.00000000000E+00 0.  1.
</event>
<event>
 7    1  0.6315518E-006  0.1234956E+03  0.7818608E-02  0.1306178E+00
          2   -1    0    0  502    0  0.00000000000E+00  0.00000000000E+00  0.87235916820E+03  0.87235916820E+03  0.00000000000E+00 0. -1.
          1   -1    0    0  501    0 -0.00000000000E+00 -0.00000000000E+00 -0.24615586112E+03  0.24615586112E+03  0.00000000000E+00 0. -1.
         25    2    1    2    0    0  0.70166561303E+02  0.32484215771E+02  0.16797826864E+03  0.22320449281E+03  0.12499990511E+03 0.  0.
          2    1    1    2  501    0  0.63088474578E+02 -0.82284098532E+01 -0.20693797180E+03  0.21649754393E+03  0.00000000000E+00 0. -1.
          1    1    1    2  502    0 -0.13325503588E+03 -0.24255805918E+02  0.66516301024E+03  0.67881299258E+03  0.00000000000E+00 0. -1.
         22    1    3    3    0    0  0.60107729013E+02  0.73377600630E+02  0.74278283356E+02  0.12047603388E+03  0.00000000000E+00 0.  1.
         22    1    3    3    0    0  0.10058832290E+02 -0.40893384859E+02  0.93699985281E+02  0.10272845893E+03  0.00000000000E+00 0.  1.
</event>
<event>
 7    1  0.6315518E-006  0.1296700E+03  0.7818608E-02  0.1408668E+00
          2   -1    0    0  502    0  0.00000000000E+00  0.00000000000E+00  0.36763870958E+03  0.36763870958E+03  0.00000000000E+00 0. -1.
          1   -1    0    0  501    0 -0.00000000000E+00 -0.00000000000E+00 -0.72931554083E+03  0.72931554083E+03  0.00000000000E+00 0. -1.
         25    2    1    2    0    0  0.80916290984E+02  0.10729868389E+03  0.83499555727E+02  0.20163757598E+03  0.12500033011E+03 0.  0.
          2    1    1    2  501    0 -0.96141329290E+02 -0.86854654437E+02 -0.66323572046E+03  0.67577252614E+03  0.00000000000E+00 0. -1.
          1    1    1    2  502    0  0.15225038306E+02 -0.20444029452E+02  0.21805933348E+03  0.21954414829E+03  0.00000000000E+00 0. -1.
         22    1    3    3    0    0 -0.13126890473E+02  0.55535870150E+02  0.74596833462E+02  0.93921433599E+02  0.00000000000E+00 0.  1.
         22    1    3    3    0    0  0.94043181457E+02  0.51762813739E+02  0.89027222655E+01  0.10771614238E+03  0.00000000000E+00 0.  1.
</event>
<event>
 7    1  0.6315518E-006  0.1817919E+03  0.7818608E-02  0.1236222E+00
          2   -1    0    0  502    0  0.00000000000E+00  0.00000000000E+00  0.69053164739E+03  0.69053164739E+03  0.00000000000E+00 0. -1.
          1   -1    0    0  501    0 -0.00000000000E+00 -0.00000000000E+00 -0.11091891048E+04  0.11091891048E+04  0.00000000000E+00 0. -1.
         25    2    1    2    0    0 -0.24270910513E+03 -0.10173506481E+03 -0.84414295593E+03  0.89300592149E+03  0.12499805055E+03 0.  0.
          2    1    1    2  501    0  0.83257609605E+02  0.16833343842E+02 -0.22031600338E+03  0.23612355318E+03  0.00000000000E+00 0. -1.
          1    1    1    2  502    0  0.15945149553E+03  0.84901720965E+02  0.64580150189E+03  0.67059127753E+03  0.00000000000E+00 0. -1.
         22    1    3    3    0    0 -0.54530579853E+02  0.29424758159E+02 -0.18171330451E+03  0.19198730574E+03  0.00000000000E+00 0.  1.
         22    1    3    3    0    0 -0.18817852528E+03 -0.13115982297E+03 -0.66242965142E+03  0.70101861575E+03  0.00000000000E+00 0.  1.
</event>
<event>
 7    1  0.6315518E-006  0.3187441E+03  0.7818608E-02  0.1186884E+00
          2   -1    0    0  502    0  0.00000000000E+00  0.00000000000E+00  0.25861216689E+04  0.25861216689E+04  0.00000000000E+00 0. -1.
          1   -1    0    0  501    0 -0.00000000000E+00 -0.00000000000E+00 -0.40358094091E+03  0.40358094091E+03  0.00000000000E+00 0. -1.
         25    2    1    2    0    0 -0.33689673895E+03 -0.24845640653E+02  0.10127758316E+03  0.37416433535E+03  0.12500032968E+03 0.  0.
          2    1    1    2  501    0  0.34757855967E+02 -0.74209277815E+02 -0.24979592915E+03  0.26289376501E+03  0.00000000000E+00 0. -1.
          1    1    1    2  502    0  0.30213888299E+03  0.99054918468E+02  0.23310590740E+04  0.23526445095E+04  0.00000000000E+00 0. -1.
         22    1    3    3    0    0 -0.80795238741E+02  0.47174465106E+02  0.16937196284E+02  0.95079805318E+02  0.00000000000E+00 0. -1.
         22    1    3    3    0    0 -0.25610150021E+03 -0.72020105759E+02  0.84340386872E+02  0.27908453003E+03  0.00000000000E+00 0. -1.
</event>
<event>
 7    1  0.6315518E-006  0.5598340E+02  0.7818608E-02  0.1432871E+00
          2   -1    0    0  502    0  0.00000000000E+00  0.00000000000E+00  0.27482813046E+04  0.27482813046E+04  0.00000000000E+00 0. -1.
          1   -1    0    0  501    0 -0.00000000000E+00 -0.00000000000E+00 -0.31214031151E+03  0.31214031151E+03  0.00000000000E+00 0. -1.
         25    2    1    2    0    0  0.98784407758E+01  0.36570927745E+01  0.62455293411E+03  0.63702606700E+03  0.12499953843E+03 0.  0.
          2    1    1    2  501    0 -0.51790452662E+02  0.21772948980E+02 -0.30303775880E+03  0.30820155022E+03  0.00000000000E+00 0. -1.
          1    1    1    2  502    0  0.41912011886E+02 -0.25430041754E+02  0.21146258177E+04  0.21151939989E+04  0.00000000000E+00 0. -1.
         22    1    3    3    0    0 -0.26186745040E+01  0.62202852518E+02  0.24529651069E+03  0.25307396246E+03  0.00000000000E+00 0.  1.
         22    1    3    3    0    0  0.12497115280E+02 -0.58545759744E+02  0.37925642342E+03  0.38395210454E+03  0.00000000000E+00 0.  1.
</event>
<event>
 7    1  0.6315518E-006  0.2467776E+03  0.7818608E-02  0.1250805E+00
          2   -1    0    0  502    0  0.00000000000E+00  0.00000000000E+00  0.37134840831E+03  0.37134840831E+03  0.00000000000E+00 0. -1.
          1   -1    0    0  501    0 -0.00000000000E+00 -0.00000000000E+00 -0.59269301954E+03  0.59269301954E+03  0.00000000000E+00 0. -1.
         25    2    1    2    0    0  0.26776820184E+03  0.73808245440E+02 -0.44133217393E+02  0.30776734614E+03  0.12500212581E+03 0.  0.
          2    1    1    2  501    0 -0.23746630677E+03 -0.29103004771E+02 -0.37855215676E+03  0.44781577365E+03  0.00000000000E+00 0. -1.
          1    1    1    2  502    0 -0.30301895073E+02 -0.44705240669E+02  0.20134076293E+03  0.20845830807E+03  0.00000000000E+00 0. -1.
         22    1    3    3    0    0  0.27600319279E+03  0.84332354808E+02 -0.50467554548E+02  0.29297897973E+03  0.00000000000E+00 0.  1.
         22    1    3    3    0    0 -0.82349909496E+01 -0.10524109368E+02  0.63343371546E+01  0.14788366411E+02  0.00000000000E+00 0.  1.
</event>
<event>
 7    1  0.6315518E-006  0.1049083E+03  0.7818608E-02  0.1380698E+00
          2   -1    0    0  502    0  0.00000000000E+00  0.00000000000E+00  0.31961746519E+03  0.31961746519E+03  0.00000000000E+00 0. -1.
          1   -1    0    0  501    0 -0.00000000000E+00 -0.00000000000E+00 -0.28837273370E+03  0.28837273370E+03  0.00000000000E+00 0. -1.
         25    2    1    2    0    0  0.70703129021E+02  0.46402673791E+02  0.26262013473E+02  0.15319022440E+03  0.12500164363E+03 0.  0.
          2    1    1    2  501    0 -0.19578887725E+01  0.39338262944E+02 -0.20983701864E+03  0.21350153782E+03  0.00000000000E+00 0. -1.
          1    1    1    2  502    0 -0.68745240249E+02 -0.85740936735E+02  0.21481973665E+03  0.24129843668E+03  0.00000000000E+00 0. -1.
         22    1    3    3    0    0  0.21799898564E+02  0.69383469610E+02 -0.26752826610E+02  0.77492032908E+02  0.00000000000E+00 0.  1.
         22    1    3    3    0    0  0.48903230457E+02 -0.22980795819E+02  0.53014840082E+02  0.75698191488E+02  0.00000000000E+00 0.  1.
</event>
<event>
 7    1  0.6315518E-006  0.1462048E+03  0.7818608E-02  0.1209074E+00
          2   -1    0    0  502    0  0.00000000000E+00  0.00000000000E+00  0.13324460600E+04  0.13324460600E+04  0.00000000000E+00 0. -1.
          1   -1    0    0  501    0 -0.00000000000E+00 -0.00000000000E+00 -0.83941053497E+03  0.83941053497E+03  0.00000000000E+00 0. -1.
         25    2    1    2    0    0 -0.23875690900E+03 -0.80450292275E+02  0.63648446293E+02  0.28836057766E+03  0.12499434752E+03 0.  0.
          2    1    1    2  501    0  0.97225489565E+02  0.10111777547E+03 -0.71579773512E+03  0.72941346158E+03  0.00000000000E+00 0. -1.
          1    1    1    2  502    0  0.14153141943E+03 -0.20667483200E+02  0.11451848139E+04  0.11540825557E+04  0.00000000000E+00 0. -1.
         22    1    3    3    0    0 -0.94289499135E+02 -0.95989960352E+02  0.16285100032E+02  0.13553518591E+03  0.00000000000E+00 0. -1.
         22    1    3    3    0    0 -0.14446740986E+03  0.15539668077E+02  0.47363346261E+02  0.15282539176E+03  0.00000000000E+00 0. -1.
</event>
<event>
 7    1  0.6315518E-006  0.1154390E+03  0.7818608E-02  0.1396405E+00
          2   -1    0    0  502    0  0.00000000000E+00  0.00000000000E+00  0.14476078709E+03  0.14476078709E+03  0.00000000000E+00 0. -1.
          1   -1    0    0  501    0 -0.00000000000E+00 -0.00000000000E+00 -0.15014846571E+04  0.15014846571E+04  0.00000000000E+00 0. -1.
         25    2    1    2    0    0  0.73481688269E+02  0.64507534970E+02 -0.35052162698E+03  0.38477367637E+03  0.12499836187E+03 0.  0.
          2    1    1    2  501    0  0.29926504683E+02 -0.99617700596E+01 -0.11067924588E+04  0.11072417891E+04  0.00000000000E+00 0. -1.
          1    1    1    2  502    0 -0.10340819295E+03 -0.54545764911E+02  0.10059021578E+03  0.15422997877E+03  0.00000000000E+00 0. -1.
         22    1    3    3    0    0 -0.17599882902E+02 -0.19747454559E+02 -0.24956858031E+02  0.36367053805E+02  0.00000000000E+00 0.  1.
         22    1    3    3    0    0  0.91081571171E+02  0.84254989529E+02 -0.32556476895E+03  0.34840662257E+03  0.00000000000E+00 0.  1.
</event>
<event>
 7    1  0.6315518E-006  0.9959235E+02  0.7818608E-02  0.1328276E+00
          2   -1    0    0  502    0  0.00000000000E+00  0.00000000000E+00  0.38750316851E+03  0.38750316851E+03  0.00000000000E+00 0. -1.
          1   -1    0    0  501    0 -0.00000000000E+00 -0.00000000000E+00 -0.30029644337E+03  0.30029644337E+03  0.00000000000E+00 0. -1.
         25    2    1    2    0    0 -0.50873293529E+02  0.59079306703E+02  0.10432340153E+03  0.18050128242E+03  0.12497553510E+03 0.  0.
          2    1    1    2  501    0  0.27170022023E+01 -0.10229273598E+03 -0.24759637886E+03  0.26790885159E+03  0.00000000000E+00 0. -1.
          1    1    1    2  502    0  0.48156291327E+02  0.43213429273E+02  0.23047970247E+03  0.23938947787E+03  0.00000000000E+00 0. -1.
         22    1    3    3    0    0  0.22205655178E+02  0.68587167177E+02  0.38698210767E+02  0.81822015007E+02  0.00000000000E+00 0.  1.
         22    1    3    3    0    0 -0.73078948707E+02 -0.95078604748E+01  0.65625190763E+02  0.98679267415E+02  0.00000000000E+00 0.  1.
</event>
<event>
 7    1  0.6315518E-006  0.1009584E+03  0.7818608E-02  0.1433331E+00
          2   -1    0    0  502    0  0.00000000000E+00  0.00000000000E+00  0.19642046111E+04  0.19642046111E+04  0.00000000000E+00 0. -1.
          1   -1    0    0  501    0 -0.00000000000E+00 -0.00000000000E+00 -0.16084976567E+04  0.16084976567E+04  0.00000000000E+00 0. -1.
         25    2    1    2    0    0 -0.23529756158E+00 -0.96580279604E+02  0.20577649794E+03  0.25941568564E+03  0.12499890032E+03 0.  0.
          2    1    1    2  501    0 -0.27069495014E+02 -0.10588171137E+01 -0.15800778407E+04  0.15803100523E+04  0.00000000000E+00 0. -1.
          1    1    1    2  502    0  0.27304792576E+02  0.97639096717E+02  0.17300082972E+04  0.17329765299E+04  0.00000000000E+00 0. -1.
         22    1    3    3    0    0  0.56833601116E+02 -0.59424219701E+02  0.15133116206E+03  0.17222780470E+03  0.00000000000E+00 0. -1.
         22    1    3    3    0    0 -0.57068898677E+02 -0.37156059903E+02  0.54445335877E+02  0.87187880939E+02  0.00000000000E+00 0. -1.
</event>
<event>
 7    1  0.6315518E-006  0.1408585E+03  0.7818608E-02  0.1267334E+00
          2   -1    0    0  502    0  0.00000000000E+00  0.00000000000E+00  0.36913425998E+03  0.36913425998E+03  0.00000000000E+00 0. -1.
          1   -1    0    0  501    0 -0.00000000000E+00 -0.00000000000E+00 -0.20172663985E+04  0.20172663985E+04  0.00000000000E+00 0. -1.
         25    2    1    2    0    0  0.60121449832E+02 -0.43231930095E+02 -0.39780992483E+02  0.15063693895E+03  0.12500148600E+03 0.  0.
          2    1    1    2  501    0 -0.77699507549E+02  0.12169862573E+03 -0.19141404620E+04  0.19195784634E+04  0.00000000000E+00 0. -1.
          1    1    1    2  502    0  0.17578057717E+02 -0.78466695634E+02  0.30578931595E+03  0.31618525611E+03  0.00000000000E+00 0. -1.
         22    1    3    3    0    0 -0.31358524308E+02 -0.36765496314E+02  0.49981193092E+01  0.48580242513E+02  0.00000000000E+00 0. -1.
         22    1    3    3    0    0  0.91479974140E+02 -0.64664337813E+01 -0.44779111792E+02  0.10205669644E+03  0.00000000000E+00 0. -1.
</event>
<event>
 7    1  0.6315518E-006  0.1127513E+03  0.7818608E-02  0.1340241E+00
          2   -1    0    0  502    0  0.00000000000E+00  0.00000000000E+00  0.52092506099E+03  0.52092506099E+03  0.00000000000E+00 0. -1.
          1   -1    0    0  501    0 -0.00000000000E+00 -0.00000000000E+00 -0.12589875585E+04  0.12589875585E+04  0.00000000000E+00 0. -1.
         25    2    1    2    0    0 -0.12804131628E+03 -0.67996180967E+02 -0.50606303858E+03  0.54105786161E+03  0.12500300513E+03 0.  0.
          2    1    1    2  501    0  0.17299419748E+02  0.48483273516E+02 -0.72822796673E+03  0.73004511454E+03  0.00000000000E+00 0. -1.
          1    1    1    2  502    0  0.11074189653E+03  0.19512907452E+02  0.49622850780E+03  0.50880964334E+03  0.00000000000E+00 0. -1.
         22    1    3    3    0    0 -0.78696458690E+02 -0.10380291517E+03 -0.33311619695E+03  0.35767943536E+03  0.00000000000E+00 0. -1.
         22    1    3    3    0    0 -0.49344857588E+02  0.35806734198E+02 -0.17294684163E+03  0.18337842625E+03  0.00000000000E+00 0. -1.
</event>
<event>
 7    1  0.6315518E-006  0.8736110E+02  0.7818608E-02  0.1360147E+00
          2   -1    0    0  502    0  0.00000000000E+00  0.00000000000E+00  0.59979399775E+03  0.59979399775E+03  0.00000000000E+00 0. -1.
          1   -1    0    0  501    0 -0.00000000000E+00 -0.00000000000E+00 -0.15614212267E+04  0.15614212267E+04  0.00000000000E+00 0. -1.
         25    2    1    2    0    0 -0.11358674903E+03 -0.82857409713E+02 -0.64857928950E+02  0.19899881056E+03  0.12500670285E+03 0.  0.
          2    1    1    2  501    0  0.75704100344E+02  0.41529300787E+02 -0.14267089429E+04  0.14293194889E+04  0.00000000000E+00 0. -1.
          1    1    1    2  502    0  0.37882648691E+02  0.41328108926E+02  0.52993964284E+03  0.53289692504E+03  0.00000000000E+00 0. -1.
         22    1    3    3    0    0 -0.88028152913E+02 -0.77936597013E+02 -0.10063244626E+03  0.15475774003E+03  0.00000000000E+00 0. -1.
         22    1    3    3    0    0 -0.25558596122E+02 -0.49208126996E+01  0.35774517307E+02  0.44241070533E+02  0.00000000000E+00 0. -1.
</event>
<event>
 7    1  0.6315518E-006  0.2060184E+03  0.7818608E-02  0.1274020E+00
          2   -1    0    0  502    0  0.00000000000E+00  0.00000000000E+00  0.33297014460E+04  0.33297014460E+04  0.00000000000E+00 0. -1.
          1   -1    0    0  501    0 -0.00000000000E+00 -0.00000000000E+00 -0.10026802401E+03  0.10026802401E+03  0.00000000000E+00 0. -1.
         25    2    1    2    0    0 -0.10486747369E+03  0.17653245331E+03  0.17736520543E+03  0.29873095219E+03  0.12498348527E+03 0.  0.
          2    1    1    2  501    0  0.14841235893E+03 -0.14895935256E+03  0.24156841237E+03  0.32026616252E+03  0.00000000000E+00 0. -1.
          1    1    1    2  502    0 -0.43544885241E+02 -0.27573100744E+02  0.28104998042E+04  0.28109723553E+04  0.00000000000E+00 0. -1.
         22    1    3    3    0    0 -0.13115024442E+03  0.14342913165E+03  0.12353664137E+03  0.23029026071E+03  0.00000000000E+00 0. -1.
         22    1    3    3    0    0  0.26282770726E+02  0.33103321661E+02  0.53828564056E+02  0.68440691481E+02  0.00000000000E+00 0. -1.
</event>
<event>
 7    1  0.6315518E-006  0.7284466E+02  0.7818608E-02  0.1450295E+00
          2   -1    0    0  502    0  0.00000000000E+00  0.00000000000E+00  0.73682957849E+03  0.73682957849E+03  0.00000000000E+00 0. -1.
          1   -1    0    0  501    0 -0.00000000000E+00 -0.00000000000E+00 -0.39902000732E+03  0.39902000732E+03  0.00000000000E+00 0. -1.
         25    2    1    2    0    0  0.10136323953E+03  0.25028714209E+02  0.74795707866E+01  0.16303877632E+03  0.12499902296E+03 0.  0.
          2    1    1    2  501    0 -0.30272168961E+02 -0.13352422003E+02 -0.31838908569E+03  0.32010357898E+03  0.00000000000E+00 0. -1.
          1    1    1    2  502    0 -0.71091070568E+02 -0.11676292206E+02  0.64871908608E+03  0.65270723051E+03  0.00000000000E+00 0. -1.
         22    1    3    3    0    0 -0.76200550129E+00  0.38654814038E+02  0.39376419540E+02  0.55184034978E+02  0.00000000000E+00 0. -1.
         22    1    3    3    0    0  0.10212524503E+03 -0.13626099829E+02 -0.31896848753E+02  0.10785474134E+03  0.00000000000E+00 0. -1.
</event>
<event>
 7    1  0.6315518E-006  0.3012446E+03  0.7818608E-02  0.1259532E+00
          2   -1    0    0  502    0  0.00000000000E+00  0.00000000000E+00  0.15514261606E+04  0.15514261606E+04  0.00000000000E+00 0. -1.
          1   -1    0    0  501    0 -0.00000000000E+00 -0.00000000000E+00 -0.21394561095E+03  0.21394561095E+03  0.00000000000E+00 0. -1.
         25    2    1    2    0    0 -0.26269474667E+02  0.33184363371E+03  0.13037153326E+03  0.37872424092E+03  0.12500012575E+03 0.  0.
          2    1    1    2  501    0  0.20650040357E+02 -0.34930944547E+02 -0.67031787078E+02  0.78357230251E+02  0.00000000000E+00 0. -1.
          1    1    1    2  502    0  0.56194343104E+01 -0.29691268917E+03  0.12741408035E+04  0.13082903004E+04  0.00000000000E+00 0. -1.
         22    1    3    3    0    0  0.85965602861E+01  0.31112968934E+03  0.96441441569E+02  0.32584741228E+03  0.00000000000E+00 0. -1.
         22    1    3    3    0    0 -0.34866034953E+02  0.20713944376E+02  0.33930091688E+02  0.52876828640E+02  0.00000000000E+00 0. -1.
</event>
<event>
 7    1  0.6315518E-006  0.1064099E+03  0.7818608E-02  0.1416953E+00
          2   -1    0    0  502    0  0.00000000000E+00  0.00000000000E+00  0.83007449588E+03  0.83007449588E+03  0.00000000000E+00 0. -1.
          1   -1    0    0  501    0 -0.00000000000E+00 -0.00000000000E+00 -0.10241701512E+03  0.10241701512E+03  0.00000000000E+00 0. -1.
         25    2    1    2    0    0 -0.21730255287E+02 -0.12962887688E+03  0.16209002736E+03  0.24325734599E+03  0.12500043877E+03 0.  0.
          2    1    1    2  501    0  0.12632637783E+02  0.26243234073E+02 -0.53828726559E+02  0.61203126349E+02  0.00000000000E+00 0. -1.
          1    1    1    2  502    0  0.90976175038E+01  0.10338564280E+03  0.61939617995E+03  0.62803103866E+03  0.00000000000E+00 0. -1.
         22    1    3    3    0    0 -0.33107503935E+02 -0.24344808187E+02 -0.89787273431E+01  0.42064165832E+02  0.00000000000E+00 0.  1.
         22    1    3    3    0    0  0.11377248648E+02 -0.10528406869E+03  0.17106875470E+03  0.20119318016E+03  0.00000000000E+00 0.  1.
</event>
<event>
 7    1  0.6315518E-006  0.8186916E+02  0.7818608E-02  0.1364328E+00
          2   -1    0    0  502    0  0.00000000000E+00  0.00000000000E+00  0.42459306627E+03  0.42459306627E+03  0.00000000000E+00 0. -1.
          1   -1    0    0  501    0 -0.00000000000E+00 -0.00000000000E+00 -0.32606425303E+03  0.32606425303E+03  0.00000000000E+00 0. -1.
         25    2    1    2    0    0  0.30876339782E+02  0.54755842757E+01  0.22611149925E+01  0.12889540590E+03  0.12500233054E+03 0.  0.
          2    1    1    2  501    0  0.53977369886E+02 -0.20576028278E+02 -0.25428800672E+03  0.26076679191E+03  0.00000000000E+00 0. -1.
          1    1    1    2  502    0 -0.84853709668E+02  0.15100444003E+02  0.35055570497E+03  0.36099512149E+03  0.00000000000E+00 0. -1.
         22    1    3    3    0    0  0.16111457144E+02  0.42749716960E+02 -0.46890540090E+02  0.65466327997E+02  0.00000000000E+00 0. -1.
         22    1    3    3    0    0  0.14764882638E+02 -0.37274132685E+02  0.49151655083E+02  0.63429077907E+02  0.00000000000E+00 0. -1.
</event>
<event>
 7    1  0.6315518E-006  0.1881576E+03  0.7818608E-02  0.1282510E+00
          2   -1    0    0  502    0  0.00000000000E+00  0.00000000000E+00  0.11575258060E+04  0.11575258060E+04  0.00000000000E+00 0. -1.
          1   -1    0    0  501    0 -0.00000000000E+00 -0.00000000000E+00 -0.16145215424E+04  0.16145215424E+04  0.00000000000E+00 0. -1.
         25    2    1    2    0    0 -0.14105088508E+03  0.78440507502E+02  0.74100046385E+03  0.76860566032E+03  0.12499883302E+03 0.  0.
          2    1    1    2  501    0  0.18245741871E+03 -0.46915886746E+02 -0.15934651957E+04  0.16045632241E+04  0.00000000000E+00 0. -1.
          1    1    1    2  502    0 -0.41406533638E+02 -0.31524620756E+02  0.39546899546E+03  0.39887846408E+03  0.00000000000E+00 0. -1.
         22    1    3    3    0    0 -0.64978302837E+02 -0.24413747765E+02  0.17362124773E+03  0.18698274943E+03  0.00000000000E+00 0. -1.
         22    1    3    3    0    0 -0.76072582239E+02  0.10285425527E+03  0.56737921612E+03  0.58162291089E+03  0.00000000000E+00 0. -1.
</event>
<event>
 7    1  0.6315518E-006  0.1656987E+03  0.7818608E-02  0.1215615E+00
          2   -1    0    0  502    0  0.00000000000E+00  0.00000000000E+00  0.92446901734E+03  0.92446901734E+03  0.00000000000E+00 0. -1.
          1   -1    0    0  501    0 -0.00000000000E+00 -0.00000000000E+00 -0.12407917629E+04  0.12407917629E+04  0.00000000000E+00 0. -1.
         25    2    1    2    0    0 -0.20490823010E+03  0.18084020294E+03 -0.14822777488E+03  0.33509193809E+03  0.12499828786E+03 0.  0.
          2    1    1    2  501    0  0.12463855133E+03 -0.97852833778E+02 -0.98878269108E+03  0.10013995984E+04  0.00000000000E+00 0. -1.
          1    1    1    2  502    0  0.80269678770E+02 -0.82987369159E+02  0.82068772044E+03  0.82876924367E+03  0.00000000000E+00 0. -1.
         22    1    3    3    0    0 -0.27328366620E+02  0.10288087815E+03 -0.47702703015E+02  0.11664845728E+03  0.00000000000E+00 0. -1.
         22    1    3    3    0    0 -0.17757986348E+03  0.77959324785E+02 -0.10052507186E+03  0.21844348081E+03  0.00000000000E+00 0. -1.
</event>
<event>
 7    1  0.6315518E-006  0.6740419E+02  0.7818608E-02  0.1453416E+00
          2   -1    0    0  502    0  0.00000000000E+00  0.00000000000E+00  0.11641251717E+04  0.11641251717E+04  0.00000000000E+00 0. -1.
          1   -1    0    0  501    0 -0.00000000000E+00 -0.00000000000E+00 -0.45739559671E+03  0.45739559671E+03  0.00000000000E+00 0. -1.
         25    2    1    2    0    0 -0.30567280413E+02 -0.82733324936E+02  0.18038133082E+03  0.23652061673E+03  0.12500166377E+03 0.  0.
          2    1    1    2  501    0 -0.74133886472E+00  0.67209665806E+02 -0.42637295603E+03  0.43163825873E+03  0.00000000000E+00 0. -1.
          1    1    1    2  502    0  0.31308619278E+02  0.15523659130E+02  0.95272120021E+03  0.95336189297E+03  0.00000000000E+00 0. -1.
         22    1    3    3    0    0 -0.21071935218E+02 -0.11487097998E+03  0.15693376330E+03  0.19562099724E+03  0.00000000000E+00 0.  1.
         22    1    3    3    0    0 -0.94953451952E+01  0.32137655049E+02  0.23447567523E+02  0.40899619499E+02  0.00000000000E+00 0.  1.
</event>
<event>
 7    1  0.6315518E-006  0.2411953E+03  0.7818608E-02  0.1183800E+00
          2   -1    0    0  502    0  0.00000000000E+00  0.00000000000E+00  0.18701218091E+04  0.18701218091E+04  0.00000000000E+00 0. -1.
          1   -1    0    0  501    0 -0.00000000000E+00 -0.00000000000E+00 -0.71838609285E+02  0.71838609285E+02  0.00000000000E+00 0. -1.
         25    2    1    2    0    0 -0.83352319407E+02  0.24487735054E+03  0.50379955932E+03  0.57995906458E+03  0.12500397856E+03 0.  0.
          2    1    1    2  501    0  0.16637924341E+03 -0.16959192563E+03  0.43861212675E+03  0.49882268554E+03  0.00000000000E+00 0. -1.
          1    1    1    2  502    0 -0.83026924005E+02 -0.75285424916E+02  0.85587151374E+03  0.86317866826E+03  0.00000000000E+00 0. -1.
         22    1    3    3    0    0 -0.51934626828E+02  0.27904818650E+02  0.55719727335E+02  0.81120727203E+02  0.00000000000E+00 0. -1.
         22    1    3    3    0    0 -0.31417692579E+02  0.21697253189E+03  0.44807983199E+03  0.49883833738E+03  0.00000000000E+00 0. -1.
</event>
<event>
 7    1  0.6315518E-006  0.7410136E+02  0.7818608E-02  0.1368667E+00
          2   -1    0    0  502    0  0.00000000000E+00  0.00000000000E+00  0.23229135659E+04  0.23229135659E+04  0.00000000000E+00 0. -1.
          1   -1    0    0  501    0 -0.00000000000E+00 -0.00000000000E+00 -0.17554034166E+04  0.17554034166E+04  0.00000000000E+00 0. -1.
         25    2    1    2    0    0  0.15340308105E+02 -0.16684730696E+02  0.47174398420E+03  0.48854719700E+03  0.12498908662E+03 0.  0.
          2    1    1    2  501    0  0.76025960545E+01  0.73807800814E+02 -0.17456994304E+04  0.17472755627E+04  0.00000000000E+00 0. -1.
          1    1    1    2  502    0 -0.22942904159E+02 -0.57123070118E+02  0.18414655954E+04  0.18424942228E+04  0.00000000000E+00 0. -1.
         22    1    3    3    0    0  0.62105732590E+01  0.49864248450E+02  0.29917729146E+03  0.30336787275E+03  0.00000000000E+00 0.  1.
         22    1    3    3    0    0  0.91297348457E+01 -0.66548979147E+02  0.17256669274E+03  0.18517932424E+03  0.00000000000E+00 0.  1.
</event>
<event>
 7    1  0.6315518E-006  0.4939161E+02  0.7818608E-02  0.1454820E+00
          2   -1    0    0  502    0  0.00000000000E+00  0.00000000000E+00  0.20645571075E+04  0.20645571075E+04  0.00000000000E+00 0. -1.
          1   -1    0    0  501    0 -0.00000000000E+00 -0.00000000000E+00 -0.18426805094E+02  0.18426805094E+02  0.00000000000E+00 0. -1.
         25    2    1    2    0    0  0.68911331511E+02  0.30749481110E+02  0.50200183075E+03  0.52280508323E+03  0.12500005910E+03 0.  0.
          2    1    1    2  501    0 -0.46242373749E+02  0.10653308487E+02  0.65956380532E+02  0.81253272208E+02  0.00000000000E+00 0. -1.
          1    1    1    2  502    0 -0.22668957762E+02 -0.41402789598E+02  0.14781720911E+04  0.14789255571E+04  0.00000000000E+00 0. -1.
         22    1    3    3    0    0  0.44421042608E+02  0.78819904674E+02  0.35031663213E+03  0.36181148288E+03  0.00000000000E+00 0. -1.
         22    1    3    3    0    0  0.24490288903E+02 -0.48070423564E+02  0.15168519862E+03  0.16099360035E+03  0.00000000000E+00 0. -1.
</event>
<event>
 7    1  0.6315518E-006  0.9666302E+02  0.7818608E-02  0.1433147E+00
          2   -1    0    0  502    0  0.00000000000E+00  0.00000000000E+00  0.24559709118E+03  0.24559709118E+03  0.00000000000E+00 0. -1.
          1   -1    0    0  501    0 -0.00000000000E+00 -0.00000000000E+00 -0.23215235209E+03  0.23215235209E+03  0.00000000000E+00 0. -1.
         25    2    1    2    0    0 -0.33924599437E+02 -0.81916882228E+02 -0.70316078818E+02  0.16861276687E+03  0.12499864067E+03 0.  0.
          2    1    1    2  501    0 -0.27704719385E+02  0.59350192330E+01 -0.98382839293E+02  0.10238143873E+03  0.00000000000E+00 0. -1.
          1    1    1    2  502    0  0.61629318822E+02  0.75981862995E+02  0.18214365720E+03  0.20675523766E+03  0.00000000000E+00 0. -1.
         22    1    3    3    0    0  0.21594246782E+02 -0.24870774239E+02 -0.81803420590E+02  0.88185409936E+02  0.00000000000E+00 0.  1.
         22    1    3    3    0    0 -0.55518846219E+02 -0.57046107989E+02  0.11487341772E+02  0.80427356932E+02  0.00000000000E+00 0.  1.
</event>
<event>
 7    1  0.6315518E-006  0.4926438E+02  0.7818608E-02  0.1485661E+00
          2   -1    0    0  502    0  0.00000000000E+00  0.00000000000E+00  0.68432592620E+03  0.68432592620E+03  0.00000000000E+00 0. -1.
          1   -1    0    0  501    0 -0.00000000000E+00 -0.00000000000E+00 -0.61801472107E+03  0.61801472107E+03  0.00000000000E+00 0. -1.
         25    2    1    2    0    0  0.20246991794E+02  0.17336801776E+02 -0.17838894982E+03  0.21945023358E+03  0.12500112891E+03 0.  0.
          2    1    1    2  501    0 -0.36846625622E+01 -0.51477840203E+02 -0.41696059021E+03  0.42014245032E+03  0.00000000000E+00 0. -1.
          1    1    1    2  502    0 -0.16562329232E+02  0.34141038427E+02  0.66166074516E+03  0.66274796337E+03  0.00000000000E+00 0. -1.
         22    1    3    3    0    0 -0.41036900008E+02 -0.29467725078E+02 -0.65004950901E+02  0.82328716892E+02  0.00000000000E+00 0.  1.
         22    1    3    3    0    0  0.61283891802E+02  0.46804526853E+02 -0.11338399892E+03  0.13712151669E+03  0.00000000000E+00 0.  1.
</event>
<event>
 7    1  0.6315518E-006  0.1002765E+03  0.7818608E-02  0.1442275E+00
          2   -1    0    0  502    0  0.00000000000E+00  0.00000000000E+00  0.24922684207E+02  0.24922684207E+02  0.00000000000E+00 0. -1.
          1   -1    0    0  501    0 -0.00000000000E+00 -0.00000000000E+00 -0.22064707288E+04  0.22064707288E+04  0.00000000000E+00 0. -1.
         25    2    1    2    0    0 -0.43364581069E+02 -0.10678525805E+03 -0.12154788815E+04  0.12273129478E+04  0.12499832879E+03 0.  0.
          2    1    1    2  501    0  0.22545664398E+02  0.92050393908E+02 -0.97303599635E+03  0.97764033887E+03  0.00000000000E+00 0. -1.
          1    1    1    2  502    0  0.20818916671E+02  0.14734864140E+02  0.69668333037E+01  0.26440126302E+02  0.00000000000E+00 0. -1.
         22    1    3    3    0    0 -0.25930952350E+02 -0.12981364349E+03 -0.80432589759E+03  0.81514670205E+03  0.00000000000E+00 0.  1.
         22    1    3    3    0    0 -0.17433628719E+02  0.23028385444E+02 -0.41115298394E+03  0.41216624577E+03  0.00000000000E+00 0.  1.
</event>
<event>
 7    1  0.6315518E-006  0.9250221E+02  0.7818608E-02  0.1428407E+00
          2   -1    0    0  502    0  0.00000000000E+00  0.00000000000E+00  0.11697502375E+04  0.11697502375E+04  0.00000000000E+00 0. -1.
          1   -1    0    0  501    0 -0.00000000000E+00 -0.00000000000E+00 -0.53694067311E+03  0.53694067311E+03  0.00000000000E+00 0. -1.
         25    2    1    2    0    0  0.33570408540E+02  0.11496234518E+03  0.73273556122E+02  0.18798350069E+03  0.12500187745E+03 0.  0.
          2    1    1    2  501    0  0.20841635164E+01 -0.30619016320E+02 -0.47707434858E+03  0.47806045849E+03  0.00000000000E+00 0. -1.
          1    1    1    2  502    0 -0.35654572056E+02 -0.84343328859E+02  0.10366103569E+04  0.10406469515E+04  0.00000000000E+00 0. -1.
         22    1    3    3    0    0  0.53679372971E+02  0.11657044235E+03  0.93985788008E+02  0.15907064927E+03  0.00000000000E+00 0.  1.
         22    1    3    3    0    0 -0.20108964431E+02 -0.16080971746E+01 -0.20712231886E+02  0.28912851411E+02  0.00000000000E+00 0.  1.
</event>
<event>
 7    1  0.6315518E-006  0.5155636E+02  0.7818608E-02  0.1490590E+00
          2   -1    0    0  502    0  0.00000000000E+00  0.00000000000E+00  0.54570605310E+03  0.54570605310E+03  0.00000000000E+00 0. -1.
          1   -1    0    0  501    0 -0.00000000000E+00 -0.00000000000E+00 -0.32859269101E+03  0.32859269101E+03  0.00000000000E+00 0. -1.
         25    2    1    2    0    0  0.29491721189E+02 -0.37134184463E+02 -0.17868428217E+03  0.22316430577E+03  0.12500210159E+03 0.  0.
          2    1    1    2  501    0  0.63469188684E+00  0.55013289429E+02 -0.12112067519E+03  0.13303038302E+03  0.00000000000E+00 0. -1.
          1    1    1    2  502    0 -0.30126413076E+02 -0.17879104966E+02  0.51691831945E+03  0.51810405532E+03  0.00000000000E+00 0. -1.
         22    1    3    3    0    0  0.51408678678E+02 -0.30884122049E+02 -0.18889796047E+03  0.19818960797E+03  0.00000000000E+00 0. -1.
         22    1    3    3    0    0 -0.21916957489E+02 -0.62500624137E+01  0.10213678301E+02  0.24974697799E+02  0.00000000000E+00 0. -1.
</event>
<event>
 7    1  0.6315518E-006  0.6386467E+02  0.7818608E-02  0.1493784E+00
          2   -1    0    0  502    0  0.00000000000E+00  0.00000000000E+00  0.43120736474E+03  0.43120736474E+03  0.00000000000E+00 0. -1.
          1   -1    0    0  501    0 -0.00000000000E+00 -0.00000000000E+00 -0.86633088444E+03  0.86633088444E+03  0.00000000000E+00 0. -1.
         25    2    1    2    0    0 -0.74345491172E+02 -0.79612748606E+00 -0.45980367365E+03  0.48225960409E+03  0.12500808599E+03 0.  0.
          2    1    1    2  501    0  0.14664475974E+02  0.23452801243E+02 -0.39238377482E+03  0.39335748052E+03  0.00000000000E+00 0. -1.
          1    1    1    2  502    0  0.59681015198E+02 -0.22656673757E+02  0.41706392876E+03  0.42192116457E+03  0.00000000000E+00 0. -1.
         22    1    3    3    0    0  0.35260019634E+02 -0.56858469020E+01 -0.10975386174E+03  0.11541883731E+03  0.00000000000E+00 0. -1.
         22    1    3    3    0    0 -0.10960551081E+03  0.48897194159E+01 -0.35004981191E+03  0.36684076678E+03  0.00000000000E+00 0. -1.
</event>
<event>
 7    1  0.6315518E-006  0.1268708E+03  0.7818608E-02  0.1243978E+00
          2   -1    0    0  502    0  0.00000000000E+00  0.00000000000E+00  0.54626315524E+03  0.54626315524E+03  0.00000000000E+00 0. -1.
          1   -1    0    0  501    0 -0.00000000000E+00 -0.00000000000E+00 -0.87132349899E+03  0.87132349899E+03  0.00000000000E+00 0. -1.
         25    2    1    2    0    0  0.56303042604E+02 -0.84947400855E+02  0.75668875698E+02  0.17814770698E+03  0.12499893293E+03 0.  0.
          2    1    1    2  501    0  0.50803785283E+02  0.11934899974E+03 -0.80726790779E+03  0.81762257997E+03  0.00000000000E+00 0. -1.
          1    1    1    2  502    0 -0.10710682789E+03 -0.34401598885E+02  0.40653868834E+03  0.42181636728E+03  0.00000000000E+00 0. -1.
         22    1    3    3    0    0  0.76725752074E+02 -0.10662725852E+03  0.64438098061E+02  0.14631637561E+03  0.00000000000E+00 0. -1.
         22    1    3    3    0    0 -0.20422709470E+02  0.21679857662E+02  0.11230777637E+02  0.31831331368E+02  0.00000000000E+00 0. -1.
</event>
<event>
 7    1  0.6315518E-006  0.5529936E+02  0.7818608E-02  0.1510774E+00
          2   -1    0    0  502    0  0.00000000000E+00  0.00000000000E+00  0.77301005595E+02  0.77301005595E+02  0.00000000000E+00 0. -1.
          1   -1    0    0  501    0 -0.00000000000E+00 -0.00000000000E+00 -0.71680336728E+03  0.71680336728E+03  0.00000000000E+00 0. -1.
         25    2    1    2    0    0 -0.27876246635E+02  0.18605831680E+01 -0.37591129471E+03  0.39713325305E+03  0.12499988917E+03 0.  0.
          2    1    1    2  501    0 -0.28255435246E+02 -0.31898864977E+01 -0.31771468759E+03  0.31898458851E+03  0.00000000000E+00 0. -1.
          1    1    1    2  502    0  0.56131681882E+02  0.13293033297E+01  0.54123620613E+02  0.77986531315E+02  0.00000000000E+00 0. -1.
         22    1    3    3    0    0 -0.18337069717E+02  0.60562105619E+02 -0.13662034584E+03  0.15056272998E+03  0.00000000000E+00 0.  1.
         22    1    3    3    0    0 -0.95391769183E+01 -0.58701522451E+02 -0.23929094887E+03  0.24657052307E+03  0.00000000000E+00 0.  1.
</event>
<event>
 7    1  0.6315518E-006  0.2725832E+03  0.7818608E-02  0.1333157E+00
          2   -1    0    0  502    0  0.00000000000E+00  0.00000000000E+00  0.13589914431E+04  0.13589914431E+04  0.00000000000E+00 0. -1.
          1   -1    0    0  501    0 -0.00000000000E+00 -0.00000000000E+00 -0.23348621571E+03  0.23348621571E+03  0.00000000000E+00 0. -1.
         25    2    1    2    0    0 -0.39123164123E+02 -0.24948283577E+03 -0.88784035329E+01  0.28191540250E+03  0.12500064320E+03 0.  0.
          2    1    1    2  501    0  0.12539300913E+01 -0.22612908686E+02 -0.70867641496E+02  0.74398512022E+02  0.00000000000E+00 0. -1.
          1    1    1    2  502    0  0.37869234032E+02  0.27209574446E+03  0.12052512724E+04  0.12361637443E+04  0.00000000000E+00 0. -1.
         22    1    3    3    0    0 -0.31436158376E+02 -0.20375561712E+03  0.44805140223E+02  0.21097887134E+03  0.00000000000E+00 0. -1.
         22    1    3    3    0    0 -0.76870057472E+01 -0.45727218657E+02 -0.53683543756E+02  0.70936531164E+02  0.00000000000E+00 0. -1.
</event>
<event>
 7    1  0.6315518E-006  0.4275728E+02  0.7818608E-02  0.1517304E+00
          2   -1    0    0  502    0  0.00000000000E+00  0.00000000000E+00  0.15783247438E+04  0.15783247438E+04  0.00000000000E+00 0. -1.
          1   -1    0    0  501    0 -0.00000000000E+00 -0.00000000000E+00 -0.25768297975E+03  0.25768297975E+03  0.00000000000E+00 0. -1.
         25    2    1    2    0    0 -0.33252350620E+02 -0.47476648899E+02  0.81670627699E+03  0.82824775143E+03  0.12500177542E+03 0.  0.
          2    1    1    2  501    0  0.34799680583E+02  0.52401573718E+01 -0.25008847615E+03  0.25255241618E+03  0.00000000000E+00 0. -1.
          1    1    1    2  502    0 -0.15473299632E+01  0.42236491527E+02  0.75402396316E+03  0.75520755589E+03  0.00000000000E+00 0. -1.
         22    1    3    3    0    0 -0.47377927182E+02 -0.11008592021E+02  0.10782085211E+03  0.11828437442E+03  0.00000000000E+00 0.  1.
         22    1    3    3    0    0  0.14125576562E+02 -0.36468056877E+02  0.70888542487E+03  0.70996337700E+03  0.00000000000E+00 0.  1.
</event>
<event>
 7    1  0.6315518E-006  0.1228854E+03  0.7818608E-02  0.1307747E+00
          2   -1    0    0  502    0  0.00000000000E+00  0.00000000000E+00  0.36795807065E+03  0.36795807065E+03  0.00000000000E+00 0. -1.
          1   -1    0    0  501    0 -0.00000000000E+00 -0.00000000000E+00 -0.10877368837E+04  0.10877368837E+04  0.00000000000E+00 0. -1.
         25    2    1    2    0    0 -0.77501824607E+02  0.14816415357E+01 -0.29916524612E+03  0.33336464333E+03  0.12499365126E+03 0.  0.
          2    1    1    2  501    0 -0.36937675737E+02 -0.51072678769E+02 -0.75904025931E+03  0.76165275924E+03  0.00000000000E+00 0. -1.
          1    1    1    2  502    0  0.11443950034E+03  0.49591037233E+02  0.33842669241E+03  0.36067755177E+03  0.00000000000E+00 0. -1.
         22    1    3    3    0    0  0.17026250224E+02  0.39934047342E+02 -0.11320539274E+03  0.12124389584E+03  0.00000000000E+00 0. -1.
         22    1    3    3    0    0 -0.94528074831E+02 -0.38452405806E+02 -0.18595985338E+03  0.21212074749E+03  0.00000000000E+00 0. -1.
</event>
<event>
 7    1  0.6315518E-006  0.9226088E+02  0.7818608E-02  0.1413200E+00
          2   -1    0    0  502    0  0.00000000000E+00  0.00000000000E+00  0.44203686272E+03  0.44203686272E+03  0.00000000000E+00 0. -1.
          1   -1    0    0  501    0 -0.00000000000E+00 -0.00000000000E+00 -0.59943675697E+03  0.59943675697E+03  0.00000000000E+00 0. -1.
         25    2    1    2    0    0  0.11024989411E+03 -0.15445872746E+02 -0.17653182306E+03  0.24326894186E+03  0.12499071719E+03 0.  0.
          2    1    1    2  501    0 -0.26451952544E+02 -0.22277316099E+02 -0.38358236360E+03  0.38513817556E+03  0.00000000000E+00 0. -1.
          1    1    1    2  502    0 -0.83797941566E+02  0.37723188845E+02  0.40271429242E+03  0.41306650228E+03  0.00000000000E+00 0. -1.
         22    1    3    3    0    0 -0.24062147580E+01  0.34763798836E+02 -0.10415355681E+02  0.36370196768E+02  0.00000000000E+00 0. -1.
         22    1    3    3    0    0  0.11265610887E+03 -0.50209671582E+02 -0.16611646738E+03  0.20689874509E+03  0.00000000000E+00 0. -1.
</event>
<event>
 7    1  0.6315518E-006  0.8473197E+02  0.7818608E-02  0.1409580E+00
          2   -1    0    0  502    0  0.00000000000E+00  0.00000000000E+00  0.14356002134E+03  0.14356002134E+03  0.00000000000E+00 0. -1.
          1   -1    0    0  501    0 -0.00000000000E+00 -0.00000000000E+00 -0.36653580594E+03  0.36653580594E+03  0.00000000000E+00 0. -1.
         25    2    1    2    0    0 -0.52937670465E+01  0.63534900847E+02 -0.87140849748E+02  0.16517553591E+03  0.12499888948E+03 0.  0.
          2    1    1    2  501    0 -0.25980815606E+02 -0.86384683371E+02 -0.22786539047E+03  0.24507132120E+03  0.00000000000E+00 0. -1.
          1    1    1    2  502    0  0.31274582652E+02  0.22849782524E+02  0.92030455620E+02  0.99848970165E+02  0.00000000000E+00 0. -1.
         22    1    3    3    0    0 -0.53455378524E+02  0.11604868276E+02 -0.24261923727E+01  0.54754331977E+02  0.00000000000E+00 0. -1.
         22    1    3    3    0    0  0.48161611477E+02  0.51930032571E+02 -0.84714657376E+02  0.11042120393E+03  0.00000000000E+00 0. -1.
</event>
<event>
 7    1  0.6315518E-006  0.1000668E+03  0.7818608E-02  0.1284849E+00
          2   -1    0    0  502    0  0.00000000000E+00  0.00000000000E+00  0.26527113593E+04  0.26527113593E+04  0.00000000000E+00 0. -1.
          1   -1    0    0  501    0 -0.00000000000E+00 -0.00000000000E+00 -0.86256085384E+03  0.86256085384E+03  0.00000000000E+00 0. -1.
         25    2    1    2    0    0  0.16471730847E+02  0.91779811873E+01 -0.13875327438E+01  0.12642304299E+03  0.12500122917E+03 0.  0.
          2    1    1    2  501    0 -0.58545058140E+02  0.81614084746E+02 -0.79452615872E+03  0.80084967350E+03  0.00000000000E+00 0. -1.
          1    1    1    2  502    0  0.42073327294E+02 -0.90792065933E+02  0.25860641969E+04  0.25879994966E+04  0.00000000000E+00 0. -1.
         22    1    3    3    0    0 -0.17517781114E+02 -0.44686899401E+02  0.28761509485E+02  0.55955482851E+02  0.00000000000E+00 0.  1.
         22    1    3    3    0    0  0.33989511960E+02  0.53864880589E+02 -0.30149042229E+02  0.70467560136E+02  0.00000000000E+00 0.  1.
</event>
<event>
 7    1  0.6315518E-006  0.5961784E+02  0.7818608E-02  0.1412488E+00
          2   -1    0    0  502    0  0.00000000000E+00  0.00000000000E+00  0.55954383314E+03  0.55954383314E+03  0.00000000000E+00 0. -1.
          1   -1    0    0  501    0 -0.00000000000E+00 -0.00000000000E+00 -0.74674921943E+03  0.74674921943E+03  0.00000000000E+00 0. -1.
         25    2    1    2    0    0 -0.63000685323E+02 -0.11228472218E+02 -0.75261160269E+01  0.14063196290E+03  0.12500216649E+03 0.  0.
          2    1    1    2  501    0  0.45138623406E+02 -0.39536038211E+02 -0.66985643392E+03  0.67253864997E+03  0.00000000000E+00 0. -1.
          1    1    1    2  502    0  0.17862061917E+02  0.50764510429E+02  0.49017716365E+03  0.49312243971E+03  0.00000000000E+00 0. -1.
         22    1    3    3    0    0 -0.73365639628E+02  0.10143648557E+02 -0.51805638224E+02  0.90383819547E+02  0.00000000000E+00 0.  1.
         22    1    3    3    0    0  0.10364954305E+02 -0.21372120775E+02  0.44279522197E+02  0.50248143350E+02  0.00000000000E+00 0.  1.
</event>
<event>
 7    1  0.6315518E-006  0.1047118E+03  0.7818608E-02  0.1308792E+00
          2   -1    0    0  502    0  0.00000000000E+00  0.00000000000E+00  0.19577122411E+04  0.19577122411E+04  0.00000000000E+00 0. -1.
          1   -1    0    0  501    0 -0.00000000000E+00 -0.00000000000E+00 -0.17344360908E+03  0.17344360908E+03  0.00000000000E+00 0. -1.
         25    2    1    2    0    0  0.73208326669E+02 -0.13114188298E+03  0.12926854467E+04  0.13073719097E+04  0.12501197369E+03 0.  0.
          2    1    1    2  501    0 -0.86039218532E+02  0.59004374720E+02 -0.14741573246E+03  0.18059806626E+03  0.00000000000E+00 0. -1.
          1    1    1    2  502    0  0.12830891863E+02  0.72137508263E+02  0.63899891778E+03  0.64318587423E+03  0.00000000000E+00 0. -1.
         22    1    3    3    0    0  0.39316437775E+01 -0.12555774306E+03  0.86583016654E+03  0.87489546916E+03  0.00000000000E+00 0.  1.
         22    1    3    3    0    0  0.69276682892E+02 -0.55841399190E+01  0.42685528016E+03  0.43247644052E+03  0.00000000000E+00 0.  1.
</event>
<event>
 7    1  0.6315518E-006  0.6229387E+02  0.7818608E-02  0.1468150E+00
          2   -1    0    0  502    0  0.00000000000E+00  0.00000000000E+00  0.27722275092E+04  0.27722275092E+04  0.00000000000E+00 0. -1.
          1   -1    0    0  501    0 -0.00000000000E+00 -0.00000000000E+00 -0.93660799587E+03  0.93660799587E+03  0.00000000000E+00 0. -1.
         25    2    1    2    0    0  0.23370711635E+02  0.23415027133E+02  0.30522985629E+03  0.33148949464E+03  0.12500226489E+03 0.  0.
          2    1    1    2  501    0  0.36550652260E+01  0.33781411518E+02 -0.92275772787E+03  0.92338310988E+03  0.00000000000E+00 0. -1.
          1    1    1    2  502    0 -0.27025776861E+02 -0.57196438650E+02  0.24531473849E+04  0.24539629005E+04  0.00000000000E+00 0. -1.
         22    1    3    3    0    0  0.72770341087E+02  0.17922159531E+02  0.13809947165E+03  0.15712476067E+03  0.00000000000E+00 0.  1.
         22    1    3    3    0    0 -0.49399629452E+02  0.54928676011E+01  0.16713038464E+03  0.17436473397E+03  0.00000000000E+00 0.  1.
</event>
<event>
 7    1  0.6315518E-006  0.1048346E+03  0.7818608E-02  0.1342459E+00
          2   -1    0    0  502    0  0.00000000000E+00  0.00000000000E+00  0.32890896453E+04  0.32890896453E+04  0.00000000000E+00 0. -1.
          1   -1    0    0  501    0 -0.00000000000E+00 -0.00000000000E+00 -0.25194715150E+04  0.25194715150E+04  0.00000000000E+00 0. -1.
         25    2    1    2    0    0 -0.58026478214E+02  0.62915061419E+02 -0.11896892782E+04  0.11992959260E+04  0.12499905025E+03 0.  0.
          2    1    1    2  501    0 -0.42655433307E+02 -0.33621896559E+02 -0.13235848869E+04  0.13246987849E+04  0.00000000000E+00 0. -1.
          1    1    1    2  502    0  0.10068191152E+03 -0.29293164860E+02  0.32828922954E+04  0.32845664493E+04  0.00000000000E+00 0. -1.
         22    1    3    3    0    0  0.12625497510E+02  0.77880645391E+02 -0.57881657382E+03  0.58416900315E+03  0.00000000000E+00 0. -1.
         22    1    3    3    0    0 -0.70651975724E+02 -0.14965583971E+02 -0.61087270433E+03  0.61512692290E+03  0.00000000000E+00 0. -1.
</event>
<event>
 7    1  0.6315518E-006  0.7369104E+02  0.7818608E-02  0.1511942E+00
          2   -1    0    0  502    0  0.00000000000E+00  0.00000000000E+00  0.15409061025E+04  0.15409061025E+04  0.00000000000E+00 0. -1.
          1   -1    0    0  501    0 -0.00000000000E+00 -0.00000000000E+00 -0.20240758529E+02  0.20240758529E+02  0.00000000000E+00 0. -1.
         25    2    1    2    0    0  0.51675714696E+02 -0.23754230840E+02  0.52602145825E+03  0.54365208261E+03  0.12499747764E+03 0.  0.
          2    1    1    2  501    0  0.13635619515E+02 -0.16194012535E+02  0.13054953438E+01  0.21210386127E+02  0.00000000000E+00 0. -1.
          1    1    1    2  502    0 -0.65311334211E+02  0.39948243376E+02  0.99333839038E+03  0.99628439229E+03  0.00000000000E+00 0. -1.
         22    1    3    3    0    0  0.47117149635E+02  0.40094767574E+02  0.15060244452E+03  0.16281496391E+03  0.00000000000E+00 0.  1.
         22    1    3    3    0    0  0.45585650613E+01 -0.63848998415E+02  0.37541901373E+03  0.38083711871E+03  0.00000000000E+00 0.  1.
</event>
<event>
 7    1  0.6315518E-006  0.1201269E+03  0.7818608E-02  0.1290946E+00
          2   -1    0    0  502    0  0.00000000000E+00  0.00000000000E+00  0.12356105926E+04  0.12356105926E+04  0.00000000000E+00 0. -1.
          1   -1    0    0  501    0 -0.00000000000E+00 -0.00000000000E+00 -0.10560087973E+04  0.10560087973E+04  0.00000000000E+00 0. -1.
         25    2    1    2    0    0  0.95920785820E+02 -0.96178080361E+01  0.71951337485E+02  0.17347950447E+03  0.12499937648E+03 0.  0.
          2    1    1    2  501    0 -0.10233194338E+03 -0.65399605260E+02 -0.10002944173E+04  0.10076397453E+04  0.00000000000E+00 0. -1.
          1    1    1    2  502    0  0.64111575580E+01  0.75017413296E+02  0.11079448751E+04  0.11105001402E+04  0.00000000000E+00 0. -1.
         22    1    3    3    0    0  0.11654842192E+03 -0.38020339130E+02  0.52656161272E+02  0.13342320698E+03  0.00000000000E+00 0. -1.
         22    1    3    3    0    0 -0.20627636101E+02  0.28402531094E+02  0.19295176214E+02  0.40056297492E+02  0.00000000000E+00 0. -1.
</event>
<event>
 7    1  0.6315518E-006  0.1815725E+03  0.7818608E-02  0.1187780E+00
          2   -1    0    0  502    0  0.00000000000E+00  0.00000000000E+00  0.62027407998E+03  0.62027407998E+03  0.00000000000E+00 0. -1.
          1   -1    0    0  501    0 -0.00000000000E+00 -0.00000000000E+00 -0.24281331929E+04  0.24281331929E+04  0.00000000000E+00 0. -1.
         25    2    1    2    0    0  0.21307512896E+02  0.30469283556E+03 -0.40734227186E+03  0.52425631331E+03  0.12500088580E+03 0.  0.
          2    1    1    2  501    0 -0.57549402311E+02 -0.13028652682E+03 -0.19455450360E+04  0.19507516499E+04  0.00000000000E+00 0. -1.
          1    1    1    2  502    0  0.36241889415E+02 -0.17440630874E+03  0.54502819489E+03  0.57339930965E+03  0.00000000000E+00 0. -1.
         22    1    3    3    0    0 -0.12842644930E+02  0.24738978969E+03 -0.37668444644E+03  0.45084122899E+03  0.00000000000E+00 0.  1.
         22    1    3    3    0    0  0.34150157826E+02  0.57303045863E+02 -0.30657825424E+02  0.73415084312E+02  0.00000000000E+00 0.  1.
</event>
<event>
 7    1  0.6315518E-006  0.7582786E+02  0.7818608E-02  0.1385079E+00
          2   -1    0    0  502    0  0.00000000000E+00  0.00000000000E+00  0.17210964889E+03  0.17210964889E+03  0.00000000000E+00 0. -1.
          1   -1    0    0  501    0 -0.00000000000E+00 -0.00000000000E+00 -0.24978669682E+03  0.24978669682E+03  0.00000000000E+00 0. -1.
         25    2    1    2    0    0 -0.11501952565E+03  0.37841973231E+02 -0.44534204217E+02  0.17961900999E+03  0.12497274576E+03 0.  0.
          2    1    1    2  501    0  0.68349065733E+02 -0.13607162523E+02 -0.12114489956E+03  0.13975992397E+03  0.00000000000E+00 0. -1.
          1    1    1    2  502    0  0.46670459920E+02 -0.24234810708E+02  0.88002055848E+02  0.10251741175E+03  0.00000000000E+00 0. -1.
         22    1    3    3    0    0 -0.21723757221E+02  0.57623886819E+02 -0.56408632729E+02  0.83512680512E+02  0.00000000000E+00 0.  1.
         22    1    3    3    0    0 -0.93295768432E+02 -0.19781913588E+02  0.11874428511E+02  0.96106329474E+02  0.00000000000E+00 0.  1.
</event>
<event>
 7    1  0.6315518E-006  0.7465513E+02  0.7818608E-02  0.1404092E+00
          2   -1    0    0  502    0  0.00000000000E+00  0.00000000000E+00  0.72426582755E+02  0.72426582755E+02  0.00000000000E+00 0. -1.
          1   -1    0    0  501    0 -0.00000000000E+00 -0.00000000000E+00 -0.18432125764E+04  0.18432125764E+04  0.00000000000E+00 0. -1.
         25    2    1    2    0    0 -0.80699536070E+02 -0.81456361551E+02 -0.18700073303E+03  0.25247020745E+03  0.12499751013E+03 0.  0.
          2    1    1    2  501    0  0.35402492375E+02  0.29203346815E+02 -0.15927728756E+04  0.15934339036E+04  0.00000000000E+00 0. -1.
          1    1    1    2  502    0  0.45297043695E+02  0.52253014736E+02  0.89876149355E+01  0.69735048138E+02  0.00000000000E+00 0. -1.
         22    1    3    3    0    0 -0.10618836627E+03 -0.61328827001E+02 -0.95653015162E+02  0.15552071714E+03  0.00000000000E+00 0. -1.
         22    1    3    3    0    0  0.25488830195E+02 -0.20127534550E+02 -0.91347717868E+02  0.96949490310E+02  0.00000000000E+00 0. -1.
</event>
<event>
 7    1  0.6315518E-006  0.1241496E+03  0.7818608E-02  0.1416520E+00
          2   -1    0    0  502    0  0.00000000000E+00  0.00000000000E+00  0.71872720654E+03  0.71872720654E+03  0.00000000000E+00 0. -1.
          1   -1    0    0  501    0 -0.00000000000E+00 -0.00000000000E+00 -0.31285962978E+03  0.31285962978E+03  0.00000000000E+00 0. -1.
         25    2    1    2    0    0 -0.24440555164E+02  0.10061576382E+03  0.12394079175E+03  0.20422262685E+03  0.12499875517E+03 0.  0.
          2    1    1    2  501    0 -0.11742973909E+02  0.22124022494E+02 -0.26473919004E+03  0.26592143304E+03  0.00000000000E+00 0. -1.
          1    1    1    2  502    0  0.36183529073E+02 -0.12273978631E+03  0.54666597505E+03  0.56144277643E+03  0.00000000000E+00 0. -1.
         22    1    3    3    0    0 -0.55166059841E+02  0.81305157556E+02  0.13437304040E+03  0.16646301928E+03  0.00000000000E+00 0.  1.
         22    1    3    3    0    0  0.30725504677E+02  0.19310606263E+02 -0.10432248651E+02  0.37759607570E+02  0.00000000000E+00 0.  1.
</event>
<event>
 7    1  0.6315518E-006  0.5891493E+02  0.7818608E-02  0.1471978E+00
          2   -1    0    0  502    0  0.00000000000E+00  0.00000000000E+00  0.14428326693E+04  0.14428326693E+04  0.00000000000E+00 0. -1.
          1   -1    0    0  501    0 -0.00000000000E+00 -0.00000000000E+00 -0.42064416718E+02  0.42064416718E+02  0.00000000000E+00 0. -1.
         25    2    1    2    0    0 -0.63648976928E+02 -0.36335735368E+02  0.10437012867E+04  0.10537119216E+04  0.12499983926E+03 0.  0.
          2    1    1    2  501    0  0.58753330234E+02  0.17243430048E+01 -0.12396599933E+02  0.60071647741E+02  0.00000000000E+00 0. -1.
          1    1    1    2  502    0  0.48956466937E+01  0.34611392363E+02  0.36946356572E+03  0.37111351664E+03  0.00000000000E+00 0. -1.
         22    1    3    3    0    0 -0.57831025218E+01 -0.43670607895E+02  0.85654150414E+03  0.85767354780E+03  0.00000000000E+00 0.  1.
         22    1    3    3    0    0 -0.57865874406E+02  0.73348725275E+01  0.18715978260E+03  0.19603837379E+03  0.00000000000E+00 0.  1.
</event>
<event>
 7    1  0.6315518E-006  0.4642840E+02  0.7818608E-02  0.1571940E+00
          2   -1    0    0  502    0  0.00000000000E+00  0.00000000000E+00  0.28583377262E+03  0.28583377262E+03  0.00000000000E+00 0. -1.
          1   -1    0    0  501    0 -0.00000000000E+00 -0.00000000000E+00 -0.28670210231E+03  0.28670210231E+03  0.00000000000E+00 0. -1.
         25    2    1    2    0    0 -0.18497859313E+02  0.24653332126E+02  0.10244368603E+03  0.16452720458E+03  0.12499813861E+03 0.  0.
          2    1    1    2  501    0 -0.22729339979E+02  0.11312095593E+01 -0.25125280452E+03  0.25228133960E+03  0.00000000000E+00 0. -1.
          1    1    1    2  502    0  0.41227199292E+02 -0.25784541685E+02  0.14794078880E+03  0.15572733075E+03  0.00000000000E+00 0. -1.
         22    1    3    3    0    0 -0.64354258582E+02  0.12960087832E+02  0.18567380143E+02  0.68221566089E+02  0.00000000000E+00 0.  1.
         22    1    3    3    0    0  0.45856399269E+02  0.11693244294E+02  0.83876305884E+02  0.96305638489E+02  0.00000000000E+00 0.  1.
</event>
<event>
 7    1  0.6315518E-006  0.2095259E+03  0.7818608E-02  0.1322378E+00
          2   -1    0    0  502    0  0.00000000000E+00  0.00000000000E+00  0.13834261645E+04  0.13834261645E+04  0.00000000000E+00 0. -1.
          1   -1    0    0  501    0 -0.00000000000E+00 -0.00000000000E+00 -0.12886485820E+04  0.12886485820E+04  0.00000000000E+00 0. -1.
         25    2    1    2    0    0  0.23872596493E+03 -0.18105860625E+02 -0.23551649738E+02  0.27110468872E+03  0.12500065408E+03 0.  0.
          2    1    1    2  501    0 -0.20634700749E+03  0.19394352289E+02 -0.11316996021E+04  0.11505212809E+04  0.00000000000E+00 0. -1.
          1    1    1    2  502    0 -0.32378957438E+02 -0.12884916633E+01  0.12500288343E+04  0.12504487769E+04  0.00000000000E+00 0. -1.
         22    1    3    3    0    0  0.21455593428E+03 -0.49951456729E+02  0.75951154377E+01  0.22042477797E+03  0.00000000000E+00 0. -1.
         22    1    3    3    0    0  0.24170030649E+02  0.31845596103E+02 -0.31146765176E+02  0.50679910751E+02  0.00000000000E+00 0. -1.
</event>
<event>
 7    1  0.6315518E-006  0.1464815E+03  0.7818608E-02  0.1242683E+00
          2   -1    0    0  502    0  0.00000000000E+00  0.00000000000E+00  0.14615852644E+04  0.14615852644E+04  0.00000000000E+00 0. -1.
          1   -1    0    0  501    0 -0.00000000000E+00 -0.00000000000E+00 -0.44222602676E+03  0.44222602676E+03  0.00000000000E+00 0. -1.
         25    2    1    2    0    0 -0.18347388907E+03 -0.63588046450E+02  0.12900711996E+01  0.23093982381E+03  0.12500172125E+03 0.  0.
          2    1    1    2  501    0  0.14063817382E+03 -0.25352543128E+02 -0.30988737404E+03  0.34125068787E+03  0.00000000000E+00 0. -1.
          1    1    1    2  502    0  0.42835715246E+02  0.88940589578E+02  0.13279565405E+04  0.13316207795E+04  0.00000000000E+00 0. -1.
         22    1    3    3    0    0 -0.27927004549E+02 -0.23815886681E+02  0.51031761388E+02  0.62859802035E+02  0.00000000000E+00 0.  1.
         22    1    3    3    0    0 -0.15554688452E+03 -0.39772159769E+02 -0.49741690189E+02  0.16808002177E+03  0.00000000000E+00 0.  1.
</event>
<event>
 7    1  0.6315518E-006  0.1232331E+03  0.7818608E-02  0.1269234E+00
          2   -1    0    0  502    0  0.00000000000E+00  0.00000000000E+00  0.37488367074E+02  0.37488367074E+02  0.00000000000E+00 0. -1.
          1   -1    0    0  501    0 -0.00000000000E+00 -0.00000000000E+00 -0.22098850714E+04  0.22098850714E+04  0.00000000000E+00 0. -1.
         25    2    1    2    0    0 -0.17358717495E+03 -0.10626622366E+03 -0.11673364587E+04  0.11915215839E+04  0.12499703819E+03 0.  0.
          2    1    1    2  501    0  0.73267055354E+02  0.52670192601E+02 -0.88822349756E+03  0.89279515692E+03  0.00000000000E+00 0. -1.
          1    1    1    2  502    0  0.10032011960E+03  0.53596031060E+02 -0.11683674803E+03  0.16305669760E+03  0.00000000000E+00 0. -1.
         22    1    3    3    0    0  0.90097742807E+01  0.13652407007E+02 -0.15630789829E+03  0.15716145621E+03  0.00000000000E+00 0. -1.
         22    1    3    3    0    0 -0.18259694923E+03 -0.11991863067E+03 -0.10110285604E+04  0.10343601277E+04  0.00000000000E+00 0. -1.
</event>
<event>
 7    1  0.6315518E-006  0.9838717E+02  0.7818608E-02  0.1355681E+00
          2   -1    0    0  502    0  0.00000000000E+00  0.00000000000E+00  0.77447959193E+03  0.77447959193E+03  0.00000000000E+00 0. -1.
          1   -1    0    0  501    0 -0.00000000000E+00 -0.00000000000E+00 -0.30601386048E+03  0.30601386048E+03  0.00000000000E+00 0. -1.
         25    2    1    2    0    0  0.18175767636E+02  0.55512906702E+02  0.63316369072E+02  0.15181195176E+03  0.12500345901E+03 0.  0.
          2    1    1    2  501    0 -0.63475124207E+02 -0.80410609431E+02 -0.25068681349E+03  0.27081143986E+03  0.00000000000E+00 0. -1.
          1    1    1    2  502    0  0.45299356572E+02  0.24897702729E+02  0.65583617587E+03  0.65787006079E+03  0.00000000000E+00 0. -1.
         22    1    3    3    0    0  0.49089819984E+02  0.76401900093E+02  0.69024786936E+02  0.11406788319E+03  0.00000000000E+00 0.  1.
         22    1    3    3    0    0 -0.30914052349E+02 -0.20888993391E+02 -0.57084178632E+01  0.37744068567E+02  0.00000000000E+00 0.  1.
</event>
<event>
 7    1  0.6315518E-006  0.4430570E+02  0.7818608E-02  0.1492927E+00
          2   -1    0    0  502    0  0.00000000000E+00  0.00000000000E+00  0.11925489822E+04  0.11925489822E+04  0.00000000000E+00 0. -1.
          1   -1    0    0  501    0 -0.00000000000E+00 -0.00000000000E+00 -0.15984884643E+03  0.15984884643E+03  0.00000000000E+00 0. -1.
         25    2    1    2    0    0 -0.54588219060E+02  0.11273816106E+02  0.11448100704E+03  0.17843267646E+03  0.12500138586E+03 0.  0.
          2    1    1    2  501    0  0.17722479986E+02 -0.35980666203E+02 -0.12424414734E+03  0.13055766077E+03  0.00000000000E+00 0. -1.
          1    1    1    2  502    0  0.36865739074E+02  0.24706850097E+02  0.10424632761E+04  0.10434074914E+04  0.00000000000E+00 0. -1.
         22    1    3    3    0    0  0.38904731650E+02  0.13176440752E+02  0.20701658618E+02  0.45997341283E+02  0.00000000000E+00 0. -1.
         22    1    3    3    0    0 -0.93492950710E+02 -0.19026246456E+01  0.93779348425E+02  0.13243533518E+03  0.00000000000E+00 0. -1.
</event>
<event>
 7    1  0.6315518E-006  0.1978815E+03  0.7818608E-02  0.1292304E+00
          2   -1    0    0  502    0  0.00000000000E+00  0.00000000000E+00  0.27620538228E+03  0.27620538228E+03  0.00000000000E+00 0. -1.
          1   -1    0    0  501    0 -0.00000000000E+00 -0.00000000000E+00 -0.11877449764E+04  0.11877449764E+04  0.00000000000E+00 0. -1.
         25    2    1    2    0    0  0.88470913022E+02 -0.20695204072E+03 -0.19817235810E+03  0.32488924219E+03  0.12499794626E+03 0.  0.
          2    1    1    2  501    0 -0.40827864054E+02  0.19230993356E+02 -0.88146071048E+03  0.88261527842E+03  0.00000000000E+00 0. -1.
          1    1    1    2  502    0 -0.47643048968E+02  0.18772104737E+03  0.16809347441E+03  0.25644583810E+03  0.00000000000E+00 0. -1.
         22    1    3    3    0    0  0.48691834243E+02 -0.21017049303E+02 -0.40972550214E+01  0.53192091349E+02  0.00000000000E+00 0.  1.
         22    1    3    3    0    0  0.39779078779E+02 -0.18593499142E+03 -0.19407510308E+03  0.27169715085E+03  0.00000000000E+00 0.  1.
</event>
<event>
 7    1  0.6315518E-006  0.1663049E+03  0.7818608E-02  0.1301641E+00
          2   -1    0    0  502    0  0.00000000000E+00  0.00000000000E+00  0.23887320501E+03  0.23887320501E+03  0.00000000000E+00 0. -1.
          1   -1    0    0  501    0 -0.00000000000E+00 -0.00000000000E+00 -0.25426114918E+04  0.25426114918E+04  0.00000000000E+00 0. -1.
         25    2    1    2    0    0 -0.11872969801E+03 -0.81155790758E+02  0.13133563848E+03  0.23142553279E+03  0.12500289488E+03 0.  0.
          2    1    1    2  501    0  0.15842300300E+03  0.52000445483E+02 -0.24786780287E+04  0.24842799086E+04  0.00000000000E+00 0. -1.
          1    1    1    2  502    0 -0.39693304990E+02  0.29155345275E+02  0.43604103384E+02  0.65779255477E+02  0.00000000000E+00 0. -1.
         22    1    3    3    0    0 -0.95076821555E+02 -0.10605635957E+03  0.13579443286E+03  0.19679349937E+03  0.00000000000E+00 0.  1.
         22    1    3    3    0    0 -0.23652876452E+02  0.24900568807E+02 -0.44587943706E+01  0.34632033417E+02  0.00000000000E+00 0.  1.
</event>
<event>
 7    1  0.6315518E-006  0.7273845E+02  0.7818608E-02  0.1442108E+00
          2   -1    0    0  502    0  0.00000000000E+00  0.00000000000E+00  0.22380883692E+04  0.22380883692E+04  0.00000000000E+00 0. -1.
          1   -1    0    0  501    0 -0.00000000000E+00 -0.00000000000E+00 -0.19940245949E+03  0.19940245949E+03  0.00000000000E+00 0. -1.
         25    2    1    2    0    0  0.72316756790E+02  0.76413529407E+02  0.88555154853E+02  0.18583686106E+03  0.12499833075E+03 0.  0.
          2    1    1    2  501    0 -0.44068529456E+02 -0.55402006296E+02 -0.14229519061E+03  0.15893186862E+03  0.00000000000E+00 0. -1.
          1    1    1    2  502    0 -0.28248227334E+02 -0.21011523111E+02  0.20924259455E+04  0.20927220990E+04  0.00000000000E+00 0. -1.
         22    1    3    3    0    0  0.44322011051E+02 -0.23530927824E+02  0.59941619810E+02  0.78173800044E+02  0.00000000000E+00 0.  1.
         22    1    3    3    0    0  0.27994745739E+02  0.99944457231E+02  0.28613535043E+02  0.10766306102E+03  0.00000000000E+00 0.  1.
</event>
<event>
 7    1  0.6315518E-006  0.2398602E+03  0.7818608E-02  0.1140749E+00
          2   -1    0    0  502    0  0.00000000000E+00  0.00000000000E+00  0.13948349178E+04  0.13948349178E+04  0.00000000000E+00 0. -1.
          1   -1    0    0  501    0 -0.00000000000E+00 -0.00000000000E+00 -0.67894278703E+03  0.67894278703E+03  0.00000000000E+00 0. -1.
         25    2    1    2    0    0 -0.15431993683E+03 -0.13712560239E+02  0.40543930671E+03  0.45167306242E+03  0.12499938673E+03 0.  0.
          2    1    1    2  501    0  0.17944427339E+03 -0.17025473368E+03 -0.62302834451E+03  0.67033666143E+03  0.00000000000E+00 0. -1.
          1    1    1    2  502    0 -0.25124336557E+02  0.18396729392E+03  0.93348116862E+03  0.95176798101E+03  0.00000000000E+00 0. -1.
         22    1    3    3    0    0 -0.72113836055E+01 -0.32142595388E+02  0.17204873199E+03  0.17517396117E+03  0.00000000000E+00 0. -1.
         22    1    3    3    0    0 -0.14710855322E+03  0.18430035150E+02  0.23339057472E+03  0.27649910125E+03  0.00000000000E+00 0. -1.
</event>
<event>
 7    1  0.6315518E-006  0.3718218E+02  0.7818608E-02  0.1565028E+00
          2   -1    0    0  502    0  0.00000000000E+00  0.00000000000E+00  0.47583794280E+03  0.47583794280E+03  0.00000000000E+00 0. -1.
          1   -1    0    0  501    0 -0.00000000000E+00 -0.00000000000E+00 -0.47858811989E+02  0.47858811989E+02  0.00000000000E+00 0. -1.
         25    2    1    2    0    0 -0.29829231334E+01  0.42285888130E+02  0.75568671954E+02  0.15209398221E+03  0.12499984431E+03 0.  0.
          2    1    1    2  501    0 -0.23968225662E+02 -0.29866646357E+02  0.32237209916E+02  0.50057268295E+02  0.00000000000E+00 0. -1.
          1    1    1    2  502    0  0.26951148795E+02 -0.12419241773E+02  0.32017324894E+03  0.32154550429E+03  0.00000000000E+00 0. -1.
         22    1    3    3    0    0  0.39736308969E+02 -0.27525689263E+02  0.40459043410E+02  0.63036275378E+02  0.00000000000E+00 0. -1.
         22    1    3    3    0    0 -0.42719232103E+02  0.69811577393E+02  0.35109628544E+02  0.89057706831E+02  0.00000000000E+00 0. -1.
</event>
<event>
 7    1  0.6315518E-006  0.1619090E+03  0.7818608E-02  0.1224263E+00
          2   -1    0    0  502    0  0.00000000000E+00  0.00000000000E+00  0.87873038111E+03  0.87873038111E+03  0.00000000000E+00 0. -1.
          1   -1    0    0  501    0 -0.00000000000E+00 -0.00000000000E+00 -0.14675151755E+04  0.14675151755E+04  0.00000000000E+00 0. -1.
         25    2    1    2    0    0 -0.43715401162E+01  0.91394445026E+02 -0.31833300753E+03  0.35402360083E+03  0.12499900527E+03 0.  0.
          2    1    1    2  501    0  0.46833303702E+02 -0.19059097103E+03 -0.11193844624E+04  0.11364593487E+04  0.00000000000E+00 0. -1.
          1    1    1    2  502    0 -0.42461763586E+02  0.99196526004E+02  0.84893267553E+03  0.85576260711E+03  0.00000000000E+00 0. -1.
         22    1    3    3    0    0 -0.48684283549E+02  0.79662882673E+01 -0.53143813270E+02  0.72511282586E+02  0.00000000000E+00 0.  1.
         22    1    3    3    0    0  0.44312743433E+02  0.83428156759E+02 -0.26518919426E+03  0.28151231825E+03  0.00000000000E+00 0.  1.
</event>
<event>
 7    1  0.6315518E-006  0.1735346E+03  0.7818608E-02  0.1289895E+00
          2   -1    0    0  502    0  0.00000000000E+00  0.00000000000E+00  0.20778984279E+04  0.20778984279E+04  0.00000000000E+00 0. -1.
          1   -1    0    0  501    0 -0.00000000000E+00 -0.00000000000E+00 -0.24745532202E+04  0.24745532202E+04  0.00000000000E+00 0. -1.
         25    2    1    2    0    0 -0.20454033272E+03  0.84431370344E+02 -0.88058777120E+03  0.91652897340E+03  0.12500052916E+03 0.  0.
          2    1    1    2  501    0  0.37965252646E+02 -0.36455546797E+02 -0.15719067417E+04  0.15727877072E+04  0.00000000000E+00 0. -1.
          1    1    1    2  502    0  0.16657508008E+03 -0.47975823547E+02  0.20558397206E+04  0.20631349674E+04  0.00000000000E+00 0. -1.
         22    1    3    3    0    0 -0.27338809036E+01 -0.16968368604E+02 -0.17111138770E+03  0.17197240081E+03  0.00000000000E+00 0. -1.
         22    1    3    3    0    0 -0.20180645182E+03  0.10139973895E+03 -0.70947638350E+03  0.74455657260E+03  0.00000000000E+00 0. -1.
</event>
<event>
 7    1  0.6315518E-006  0.8745941E+02  0.7818608E-02  0.1336109E+00
          2   -1    0    0  502    0  0.00000000000E+00  0.00000000000E+00  0.34659728372E+04  0.34659728372E+04  0.00000000000E+00 0. -1.
          1   -1    0    0  501    0 -0.00000000000E+00 -0.00000000000E+00 -0.53117932011E+02  0.53117932011E+02  0.00000000000E+00 0. -1.
         25    2    1    2    0    0  0.78522771844E+02  0.12650863929E+03  0.11403693628E+04  0.11568221647E+04  0.12499990196E+03 0.  0.
          2    1    1    2  501    0 -0.25386039234E+02 -0.63933441427E+02 -0.17364990504E+02  0.70947014143E+02  0.00000000000E+00 0. -1.
          1    1    1    2  502    0 -0.53136732610E+02 -0.62575197860E+02  0.22898505329E+04  0.22913215905E+04  0.00000000000E+00 0. -1.
         22    1    3    3    0    0 -0.83427480445E+01 -0.18359223306E+02  0.59276691843E+02  0.62613007604E+02  0.00000000000E+00 0. -1.
         22    1    3    3    0    0  0.86865519888E+02  0.14486786259E+03  0.10810926710E+04  0.10942091571E+04  0.00000000000E+00 0. -1.
</event>
<event>
 7    1  0.6315518E-006  0.3377950E+03  0.7818608E-02  0.1205886E+00
          2   -1    0    0  502    0  0.00000000000E+00  0.00000000000E+00  0.53646173709E+03  0.53646173709E+03  0.00000000000E+00 0. -1.
          1   -1    0    0  501    0 -0.00000000000E+00 -0.00000000000E+00 -0.15412933647E+04  0.15412933647E+04  0.00000000000E+00 0. -1.
         25    2    1    2    0    0 -0.26738778685E+02 -0.36992974494E+03 -0.76435718446E+03  0.85873662081E+03  0.12499479994E+03 0.  0.
          2    1    1    2  501    0  0.47884229590E+02  0.31076914173E+03 -0.69360677691E+03  0.76155152148E+03  0.00000000000E+00 0. -1.
          1    1    1    2  502    0 -0.21145450905E+02  0.59160603216E+02  0.45313233379E+03  0.45746695946E+03  0.00000000000E+00 0. -1.
         22    1    3    3    0    0 -0.73728244515E+02 -0.16567789928E+03 -0.37541339396E+03  0.41691754187E+03  0.00000000000E+00 0. -1.
         22    1    3    3    0    0  0.46989465830E+02 -0.20425184566E+03 -0.38894379050E+03  0.44181907895E+03  0.00000000000E+00 0. -1.
</event>
<event>
 7    1  0.6315518E-006  0.7879324E+02  0.7818608E-02  0.1437570E+00
          2   -1    0    0  502    0  0.00000000000E+00  0.00000000000E+00  0.38455723674E+03  0.38455723674E+03  0.00000000000E+00 0. -1.
          1   -1    0    0  501    0 -0.00000000000E+00 -0.00000000000E+00 -0.19488890398E+04  0.19488890398E+04  0.00000000000E+00 0. -1.
         25    2    1    2    0    0  0.97708039994E+02 -0.14934901034E+02  0.27988290561E+03  0.32207104900E+03  0.12500162961E+03 0.  0.
          2    1    1    2  501    0 -0.33546606964E+02 -0.22451418104E+01 -0.19144275872E+04  0.19147228004E+04  0.00000000000E+00 0. -1.
          1    1    1    2  502    0 -0.64161433030E+02  0.17180042844E+02  0.70212878566E+02  0.96652427167E+02  0.00000000000E+00 0. -1.
         22    1    3    3    0    0  0.96363943122E+02 -0.34911102504E+02  0.10750095992E+03  0.14853030329E+03  0.00000000000E+00 0.  1.
         22    1    3    3    0    0  0.13440968720E+01  0.19976201470E+02  0.17238194569E+03  0.17354074571E+03  0.00000000000E+00 0.  1.
</event>
<event>
 7    1  0.6315518E-006  0.6009420E+02  0.7818608E-02  0.1451730E+00
          2   -1    0    0  502    0  0.00000000000E+00  0.00000000000E+00  0.42322437787E+04  0.42322437787E+04  0.00000000000E+00 0. -1.
          1   -1    0    0  501    0 -0.00000000000E+00 -0.00000000000E+00 -0.13378769695E+03  0.13378769695E+03  0.00000000000E+00 0. -1.
         25    2    1    2    0    0 -0.77815289331E+01 -0.22442378403E+02  0.14541530652E+04  0.14597088966E+04  0.12499885292E+03 0.  0.
          2    1    1    2  501    0  0.40949333868E+02  0.44231752405E+02 -0.12392677268E+03  0.13780834827E+03  0.00000000000E+00 0. -1.
          1    1    1    2  502    0 -0.33167804935E+02 -0.21789374002E+02  0.27682297892E+04  0.27685142308E+04  0.00000000000E+00 0. -1.
         22    1    3    3    0    0 -0.20397200748E+02  0.35858846159E+02  0.20378605247E+03  0.20791983510E+03  0.00000000000E+00 0.  1.
         22    1    3    3    0    0  0.12615671815E+02 -0.58301224562E+02  0.12503670127E+04  0.12517890615E+04  0.00000000000E+00 0.  1.
</event>
<event>
 7    1  0.6315518E-006  0.6994635E+02  0.7818608E-02  0.1414025E+00
          2   -1    0    0  502    0  0.00000000000E+00  0.00000000000E+00  0.37136653368E+03  0.37136653368E+03  0.00000000000E+00 0. -1.
          1   -1    0    0  501    0 -0.00000000000E+00 -0.00000000000E+00 -0.11195988083E+03  0.11195988083E+03  0.00000000000E+00 0. -1.
         25    2    1    2    0    0 -0.19152131714E+02  0.72329102512E+02  0.10015964637E+03  0.17679255298E+03  0.12500139523E+03 0.  0.
          2    1    1    2  501    0  0.44913748385E+02 -0.60891953917E+01 -0.60491001712E+02  0.75587594105E+02  0.00000000000E+00 0. -1.
          1    1    1    2  502    0 -0.25761616671E+02 -0.66239907120E+02  0.21973800820E+03  0.23094626742E+03  0.00000000000E+00 0. -1.
         22    1    3    3    0    0 -0.60694705855E+02 -0.80010294670E+00  0.51648810915E+02  0.79699982136E+02  0.00000000000E+00 0.  1.
         22    1    3    3    0    0  0.41542574140E+02  0.73129205458E+02  0.48510835456E+02  0.97092570848E+02  0.00000000000E+00 0.  1.
</event>
<event>
 7    1  0.6315518E-006  0.3269664E+02  0.7818608E-02  0.1630993E+00
          2   -1    0    0  502    0  0.00000000000E+00  0.00000000000E+00  0.42734800174E+03  0.42734800174E+03  0.00000000000E+00 0. -1.
          1   -1    0    0  501    0 -0.00000000000E+00 -0.00000000000E+00 -0.36784413700E+02  0.36784413700E+02  0.00000000000E+00 0. -1.
         25    2    1    2    0    0 -0.16028927011E+01  0.19341655958E+02  0.21735178861E+03  0.25148111800E+03  0.12499713508E+03 0.  0.
          2    1    1    2  501    0 -0.19479395010E+02 -0.27660888120E+02 -0.39358502621E+01  0.34059689940E+02  0.00000000000E+00 0. -1.
          1    1    1    2  502    0  0.21082287711E+02  0.83192321617E+01  0.17714764969E+03  0.17859160750E+03  0.00000000000E+00 0. -1.
         22    1    3    3    0    0  0.49170710461E+02  0.47145757270E+02  0.10646097348E+03  0.12638995241E+03  0.00000000000E+00 0.  1.
         22    1    3    3    0    0 -0.50773603162E+02 -0.27804101313E+02  0.11089081514E+03  0.12509116559E+03  0.00000000000E+00 0.  1.
</event>
<event>
 7    1  0.6315518E-006  0.8333327E+02  0.7818608E-02  0.1463600E+00
          2   -1    0    0  502    0  0.00000000000E+00  0.00000000000E+00  0.57749423588E+03  0.57749423588E+03  0.00000000000E+00 0. -1.
          1   -1    0    0  501    0 -0.00000000000E+00 -0.00000000000E+00 -0.22372571287E+03  0.22372571287E+03  0.00000000000E+00 0. -1.
         25    2    1    2    0    0  0.64041457976E+02  0.23739714038E+02 -0.85568406844E+02  0.16616962984E+03  0.12500204506E+03 0.  0.
          2    1    1    2  501    0  0.33705681312E+01  0.26028948580E+02 -0.92757100678E+02  0.96398893250E+02  0.00000000000E+00 0. -1.
          1    1    1    2  502    0 -0.67412026107E+02 -0.49768662618E+02  0.53209403053E+03  0.53865142567E+03  0.00000000000E+00 0. -1.
         22    1    3    3    0    0  0.44862110171E+02 -0.96215558857E+01  0.22754345416E+02  0.51214680532E+02  0.00000000000E+00 0. -1.
         22    1    3    3    0    0  0.19179347805E+02  0.33361269923E+02 -0.10832275226E+03  0.11495494931E+03  0.00000000000E+00 0. -1.
</event>
<event>
 7    1  0.6315518E-006  0.7198376E+02  0.7818608E-02  0.1447600E+00
          2   -1    0    0  502    0  0.00000000000E+00  0.00000000000E+00  0.23521781321E+03  0.23521781321E+03  0.00000000000E+00 0. -1.
          1   -1    0    0  501    0 -0.00000000000E+00 -0.00000000000E+00 -0.11966236535E+04  0.11966236535E+04  0.00000000000E+00 0. -1.
         25    2    1    2    0    0  0.93770820518E+00 -0.47340661795E+02  0.14678473409E+03  0.19852579617E+03  0.12499886410E+03 0.  0.
          2    1    1    2  501    0  0.27059113683E+02  0.66902726317E+02 -0.11648904228E+04  0.11671237585E+04  0.00000000000E+00 0. -1.
          1    1    1    2  502    0 -0.27996821889E+02 -0.19562064523E+02  0.56699848462E+02  0.66191912043E+02  0.00000000000E+00 0. -1.
         22    1    3    3    0    0  0.58916350171E+02 -0.43482346859E+02  0.63194129372E+02  0.96723052025E+02  0.00000000000E+00 0.  1.
         22    1    3    3    0    0 -0.57978641966E+02 -0.38583149356E+01  0.83590604714E+02  0.10180274414E+03  0.00000000000E+00 0.  1.
</event>
<event>
 7    1  0.6315518E-006  0.3349623E+03  0.7818608E-02  0.1186824E+00
          2   -1    0    0  502    0  0.00000000000E+00  0.00000000000E+00  0.15004483380E+04  0.15004483380E+04  0.00000000000E+00 0. -1.
          1   -1    0    0  501    0 -0.00000000000E+00 -0.00000000000E+00 -0.18013814528E+03  0.18013814528E+03  0.00000000000E+00 0. -1.
         25    2    1    2    0    0 -0.16592064497E+03  0.33595244726E+03  0.92908079684E+03  0.10095569802E+04  0.12498184626E+03 0.  0.
          2    1    1    2  501    0  0.19496769055E+03 -0.26352994555E+03  0.63201618922E+02  0.33384858423E+03  0.00000000000E+00 0. -1.
          1    1    1    2  502    0 -0.29047045576E+02 -0.72422501706E+02  0.32802777691E+03  0.33718091884E+03  0.00000000000E+00 0. -1.
         22    1    3    3    0    0 -0.43438250738E+02  0.12682188570E+03  0.19604883960E+03  0.23749909437E+03  0.00000000000E+00 0.  1.
         22    1    3    3    0    0 -0.12248239423E+03  0.20913056155E+03  0.73303195725E+03  0.77205788579E+03  0.00000000000E+00 0.  1.
</event>
<event>
 7    1  0.6315518E-006  0.4296386E+02  0.7818608E-02  0.1598649E+00
          2   -1    0    0  502    0  0.00000000000E+00  0.00000000000E+00  0.62074486035E+03  0.62074486035E+03  0.00000000000E+00 0. -1.
          1   -1    0    0  501    0 -0.00000000000E+00 -0.00000000000E+00 -0.38770797690E+03  0.38770797690E+03  0.00000000000E+00 0. -1.
         25    2    1    2    0    0 -0.20814961468E+02  0.14706627000E+02 -0.18593867017E+02  0.12891419247E+03  0.12499435840E+03 0.  0.
          2    1    1    2  501    0  0.41591639727E+02 -0.12660019774E+02 -0.31225473779E+03  0.31526681060E+03  0.00000000000E+00 0. -1.
          1    1    1    2  502    0 -0.20776678259E+02 -0.20466072254E+01  0.56388548827E+03  0.56427183417E+03  0.00000000000E+00 0. -1.
         22    1    3    3    0    0 -0.59324824280E+01  0.68453730390E+02  0.38029265014E+01  0.68815476472E+02  0.00000000000E+00 0.  1.
         22    1    3    3    0    0 -0.14882479040E+02 -0.53747103390E+02 -0.22396793519E+02  0.60098716002E+02  0.00000000000E+00 0.  1.
</event>
<event>
 7    1  0.6315518E-006  0.1044989E+03  0.7818608E-02  0.1412504E+00
          2   -1    0    0  502    0  0.00000000000E+00  0.00000000000E+00  0.33869521000E+03  0.33869521000E+03  0.00000000000E+00 0. -1.
          1   -1    0    0  501    0 -0.00000000000E+00 -0.00000000000E+00 -0.15567462847E+04  0.15567462847E+04  0.00000000000E+00 0. -1.
         25    2    1    2    0    0  0.12456854891E+03  0.36121329404E+02 -0.36542195773E+03  0.40740683098E+03  0.12500017969E+03 0.  0.
          2    1    1    2  501    0 -0.94033951651E+02 -0.39288732678E+02 -0.11673650875E+04  0.11718051187E+04  0.00000000000E+00 0. -1.
          1    1    1    2  502    0 -0.30534597260E+02  0.31674032742E+01  0.31473597049E+03  0.31622954510E+03  0.00000000000E+00 0. -1.
         22    1    3    3    0    0  0.13448596705E+03 -0.69953219444E+01 -0.29428424939E+03  0.32363347988E+03  0.00000000000E+00 0. -1.
         22    1    3    3    0    0 -0.99174181408E+01  0.43116651348E+02 -0.71137708344E+02  0.83773351100E+02  0.00000000000E+00 0. -1.
</event>
<event>
 7    1  0.6315518E-006  0.9315255E+02  0.7818608E-02  0.1428895E+00
          2   -1    0    0  502    0  0.00000000000E+00  0.00000000000E+00  0.29211763346E+04  0.29211763346E+04  0.00000000000E+00 0. -1.
          1   -1    0    0  501    0 -0.00000000000E+00 -0.00000000000E+00 -0.30824452849E+02  0.30824452849E+02  0.00000000000E+00 0. -1.
         25    2    1    2    0    0  0.68656925734E+02  0.33479997016E+02  0.56033219539E+03  0.57916750514E+03  0.12501258403E+03 0.  0.
          2    1    1    2  501    0 -0.95049664253E+02 -0.18469125635E+02  0.88717148929E+02  0.13132509201E+03  0.00000000000E+00 0. -1.
          1    1    1    2  502    0  0.26392738519E+02 -0.15010871381E+02  0.22413025375E+04  0.22415081903E+04  0.00000000000E+00 0. -1.
         22    1    3    3    0    0 -0.13491708934E+02  0.58960340191E+02  0.23435924721E+03  0.24203843637E+03  0.00000000000E+00 0. -1.
         22    1    3    3    0    0  0.82148634668E+02 -0.25480343175E+02  0.32597294818E+03  0.33712906877E+03  0.00000000000E+00 0. -1.
</event>
<event>
 7    1  0.6315518E-006  0.1138894E+03  0.7818608E-02  0.1391798E+00
          2   -1    0    0  502    0  0.00000000000E+00  0.00000000000E+00  0.42280205164E+03  0.42280205164E+03  0.00000000000E+00 0. -1.
          1   -1    0    0  501    0 -0.00000000000E+00 -0.00000000000E+00 -0.29763700218E+04  0.29763700218E+04  0.00000000000E+00 0. -1.
         25    2    1    2    0    0  0.50418242741E+02 -0.11239142466E+03 -0.12168272601E+04  0.12294199182E+04  0.12502368867E+03 0.  0.
          2    1    1    2  501    0 -0.17285399539E+02  0.11085083759E+03 -0.17507877747E+04  0.17543786721E+04  0.00000000000E+00 0. -1.
          1    1    1    2  502    0 -0.33132843202E+02  0.15405870703E+01  0.41404706467E+03  0.41537348310E+03  0.00000000000E+00 0. -1.
         22    1    3    3    0    0  0.52256856186E+02 -0.42367492872E+02 -0.21811411491E+03  0.22825325976E+03  0.00000000000E+00 0.  1.
         22    1    3    3    0    0 -0.18386134452E+01 -0.70023931787E+02 -0.99871314521E+03  0.10011666584E+04  0.00000000000E+00 0.  1.
</event>
<event>
 7    1  0.6315518E-006  0.1312360E+03  0.7818608E-02  0.1233180E+00
          2   -1    0    0  502    0  0.00000000000E+00  0.00000000000E+00  0.86660746222E+03  0.86660746222E+03  0.00000000000E+00 0. -1.
          1   -1    0    0  501    0 -0.00000000000E+00 -0.00000000000E+00 -0.87151110831E+02  0.87151110831E+02  0.00000000000E+00 0. -1.
         25    2    1    2    0    0 -0.28111486288E+02  0.29685898211E+02  0.11363704055E+03  0.17381015378E+03  0.12500033742E+03 0.  0.
          2    1    1    2  501    0 -0.67866202841E+02  0.10064580611E+03  0.31647416852E+02  0.12544703572E+03  0.00000000000E+00 0. -1.
          1    1    1    2  502    0  0.95977689129E+02 -0.13033170432E+03  0.63417189399E+03  0.65450138357E+03  0.00000000000E+00 0. -1.
         22    1    3    3    0    0 -0.20014514430E+02  0.63411225973E+02  0.13519808883E+02  0.67855357928E+02  0.00000000000E+00 0.  1.
         22    1    3    3    0    0 -0.80969718584E+01 -0.33725327762E+02  0.10011723167E+03  0.10595479585E+03  0.00000000000E+00 0.  1.
</event>
<event>
 7    1  0.6315518E-006  0.4706871E+02  0.7818608E-02  0.1579964E+00
          2   -1    0    0  502    0  0.00000000000E+00  0.00000000000E+00  0.25315817904E+03  0.25315817904E+03  0.00000000000E+00 0. -1.
          1   -1    0    0  501    0 -0.00000000000E+00 -0.00000000000E+00 -0.12986354476E+04  0.12986354476E+04  0.00000000000E+00 0. -1.
         25    2    1    2    0    0  0.42601890062E+02  0.49633899382E+02 -0.44728521676E+02  0.14800253782E+03  0.12500266216E+03 0.  0.
          2    1    1    2  501    0 -0.63338489016E+01 -0.20396379511E+02 -0.11994813095E+04  0.11996714307E+04  0.00000000000E+00 0. -1.
          1    1    1    2  502    0 -0.36268041161E+02 -0.29237519871E+02  0.19873256259E+03  0.20411965807E+03  0.00000000000E+00 0. -1.
         22    1    3    3    0    0  0.43668400813E+02  0.68690321705E+02  0.17205359171E+02  0.83194434367E+02  0.00000000000E+00 0.  1.
         22    1    3    3    0    0 -0.10665107506E+01 -0.19056422323E+02 -0.61933880847E+02  0.64808103457E+02  0.00000000000E+00 0.  1.
</event>
<event>
 7    1  0.6315518E-006  0.1104824E+03  0.7818608E-02  0.1284434E+00
          2   -1    0    0  502    0  0.00000000000E+00  0.00000000000E+00  0.74657176966E+03  0.74657176966E+03  0.00000000000E+00 0. -1.
          1   -1    0    0  501    0 -0.00000000000E+00 -0.00000000000E+00 -0.35545909448E+03  0.35545909448E+03  0.00000000000E+00 0. -1.
         25    2    1    2    0    0  0.41341007177E+02  0.63046449472E+02 -0.20962967980E+03  0.25544877141E+03  0.12500215396E+03 0.  0.
          2    1    1    2  501    0  0.69784195468E+02 -0.52003805656E+02 -0.10253694686E+03  0.13449184069E+03  0.00000000000E+00 0. -1.
          1    1    1    2  502    0 -0.11112520265E+03 -0.11042643816E+02  0.70327930185E+03  0.71209025204E+03  0.00000000000E+00 0. -1.
         22    1    3    3    0    0  0.52047537331E+02  0.31830194996E+01 -0.19237492711E+02  0.55580202241E+02  0.00000000000E+00 0. -1.
         22    1    3    3    0    0 -0.10706530154E+02  0.59863429972E+02 -0.19039218709E+03  0.19986856917E+03  0.00000000000E+00 0. -1.
</event>
<event>
 7    1  0.6315518E-006  0.5623317E+02  0.7818608E-02  0.1425864E+00
          2   -1    0    0  502    0  0.00000000000E+00  0.00000000000E+00  0.17032223648E+03  0.17032223648E+03  0.00000000000E+00 0. -1.
          1   -1    0    0  501    0 -0.00000000000E+00 -0.00000000000E+00 -0.26581783507E+03  0.26581783507E+03  0.00000000000E+00 0. -1.
         25    2    1    2    0    0 -0.45667599302E+01 -0.38131583358E+01 -0.94829301103E+02  0.15701219295E+03  0.12499934766E+03 0.  0.
          2    1    1    2  501    0  0.37562490550E+02  0.49348327023E+02 -0.12672986541E+03  0.14109095245E+03  0.00000000000E+00 0. -1.
          1    1    1    2  502    0 -0.32995730620E+02 -0.45535168687E+02  0.12606356792E+03  0.13803692616E+03  0.00000000000E+00 0. -1.
         22    1    3    3    0    0 -0.39645487597E+02 -0.31995830764E+02 -0.99488418559E+02  0.11177407258E+03  0.00000000000E+00 0. -1.
         22    1    3    3    0    0  0.35078727666E+02  0.28182672428E+02  0.46591174558E+01  0.45238120378E+02  0.00000000000E+00 0. -1.
</event>
<event>
 7    1  0.6315518E-006  0.1394617E+03  0.7818608E-02  0.1322815E+00
          2   -1    0    0  502    0  0.00000000000E+00  0.00000000000E+00  0.13391965519E+03  0.13391965519E+03  0.00000000000E+00 0. -1.
          1   -1    0    0  501    0 -0.00000000000E+00 -0.00000000000E+00 -0.92204242302E+03  0.92204242302E+03  0.00000000000E+00 0. -1.
         25    2    1    2    0    0 -0.25326890883E+02  0.13598047849E+03 -0.16131963829E+03  0.24652959979E+03  0.12498270257E+03 0.  0.
          2    1    1    2  501    0  0.48354763441E+02  0.36903033276E+01 -0.66183207084E+03  0.66360642815E+03  0.00000000000E+00 0. -1.
          1    1    1    2  502    0 -0.23027872557E+02 -0.13967078182E+03  0.35028941303E+02  0.14582605027E+03  0.00000000000E+00 0. -1.
         22    1    3    3    0    0 -0.18552028293E+02  0.13452273307E+03 -0.18064820568E+03  0.22599627803E+03  0.00000000000E+00 0.  1.
         22    1    3    3    0    0 -0.67748625908E+01  0.14577454273E+01  0.19328567397E+02  0.20533321760E+02  0.00000000000E+00 0.  1.
</event>
<event>
 7    1  0.6315518E-006  0.1945879E+03  0.7818608E-02  0.1217217E+00
          2   -1    0    0  502    0  0.00000000000E+00  0.00000000000E+00  0.83158806889E+03  0.83158806889E+03  0.00000000000E+00 0. -1.
          1   -1    0    0  501    0 -0.00000000000E+00 -0.00000000000E+00 -0.10702380599E+03  0.10702380599E+03  0.00000000000E+00 0. -1.
         25    2    1    2    0    0 -0.16181941926E+03  0.42527146550E+02  0.17539016346E+03  0.27273097214E+03  0.12500556421E+03 0.  0.
          2    1    1    2  501    0  0.23246963809E+03  0.23448199147E+02  0.21328246140E+03  0.31635637976E+03  0.00000000000E+00 0. -1.
          1    1    1    2  502    0 -0.70650218832E+02 -0.65975345697E+02  0.33589163803E+03  0.34952452298E+03  0.00000000000E+00 0. -1.
         22    1    3    3    0    0 -0.10289741685E+03  0.78202768179E+02  0.70428149575E+02  0.14718585393E+03  0.00000000000E+00 0.  1.
         22    1    3    3    0    0 -0.58922002407E+02 -0.35675621630E+02  0.10496201389E+03  0.12554511821E+03  0.00000000000E+00 0.  1.
</event>
<event>
 7    1  0.6315518E-006  0.4072015E+02  0.7818608E-02  0.1562662E+00
          2   -1    0    0  502    0  0.00000000000E+00  0.00000000000E+00  0.19872356550E+03  0.19872356550E+03  0.00000000000E+00 0. -1.
          1   -1    0    0  501    0 -0.00000000000E+00 -0.00000000000E+00 -0.13440699352E+04  0.13440699352E+04  0.00000000000E+00 0. -1.
         25    2    1    2    0    0  0.20512397081E+02  0.26249177247E+02 -0.14426295807E+03  0.19376942149E+03  0.12500003957E+03 0.  0.
          2    1    1    2  501    0  0.27939170120E+01 -0.40853302872E+02 -0.11736073693E+04  0.11743215299E+04  0.00000000000E+00 0. -1.
          1    1    1    2  502    0 -0.23306314093E+02  0.14604125625E+02  0.17252395767E+03  0.17470254930E+03  0.00000000000E+00 0. -1.
         22    1    3    3    0    0 -0.11464756877E+02  0.62076041277E+02 -0.30135236857E+02  0.69950039681E+02  0.00000000000E+00 0.  1.
         22    1    3    3    0    0  0.31977153958E+02 -0.35826864030E+02 -0.11412772122E+03  0.12381938181E+03  0.00000000000E+00 0.  1.
</event>
<event>
 7    1  0.6315518E-006  0.1053642E+03  0.7818608E-02  0.1416203E+00
          2   -1    0    0  502    0  0.00000000000E+00  0.00000000000E+00  0.19875577306E+04  0.19875577306E+04  0.00000000000E+00 0. -1.
          1   -1    0    0  501    0 -0.00000000000E+00 -0.00000000000E+00 -0.12309267915E+03  0.12309267915E+03  0.00000000000E+00 0. -1.
         25    2    1    2    0    0 -0.67983893229E+02  0.10384559173E+03  0.29352721663E+02  0.17860148976E+03  0.12502477040E+03 0.  0.
          2    1    1    2  501    0 -0.57413432227E+01 -0.29023004786E+02 -0.42344370233E+02  0.51656011453E+02  0.00000000000E+00 0. -1.
          1    1    1    2  502    0  0.73725236451E+02 -0.74822586944E+02  0.18774567000E+04  0.18803929085E+04  0.00000000000E+00 0. -1.
         22    1    3    3    0    0  0.93209833144E+01 -0.75109423703E+01 -0.28729136111E+02  0.31123275003E+02  0.00000000000E+00 0.  1.
         22    1    3    3    0    0 -0.77304876543E+02  0.11135653410E+03  0.58081857774E+02  0.14747821475E+03  0.00000000000E+00 0.  1.
</event>
<event>
 7    1  0.6315518E-006  0.1168174E+03  0.7818608E-02  0.1280547E+00
          2   -1    0    0  502    0  0.00000000000E+00  0.00000000000E+00  0.11397914013E+04  0.11397914013E+04  0.00000000000E+00 0. -1.
          1   -1    0    0  501    0 -0.00000000000E+00 -0.00000000000E+00 -0.17541895674E+04  0.17541895674E+04  0.00000000000E+00 0. -1.
         25    2    1    2    0    0 -0.69203625913E+02  0.19326756908E+02  0.29872283500E+03  0.33169409595E+03  0.12499190281E+03 0.  0.
          2    1    1    2  501    0 -0.19406343741E+02  0.83165516526E+02 -0.17310788460E+04  0.17331840873E+04  0.00000000000E+00 0. -1.
          1    1    1    2  502    0  0.88609969654E+02 -0.10249227343E+03  0.81795784491E+03  0.82910278547E+03  0.00000000000E+00 0. -1.
         22    1    3    3    0    0  0.29647036604E+00  0.61345184435E+02  0.15350120772E+03  0.16530559676E+03  0.00000000000E+00 0. -1.
         22    1    3    3    0    0 -0.69500096279E+02 -0.42018427527E+02  0.14522162728E+03  0.16638849920E+03  0.00000000000E+00 0. -1.
</event>
<event>
 7    1  0.6315518E-006  0.7887391E+02  0.7818608E-02  0.1424564E+00
          2   -1    0    0  502    0  0.00000000000E+00  0.00000000000E+00  0.16382520531E+04  0.16382520531E+04  0.00000000000E+00 0. -1.
          1   -1    0    0  501    0 -0.00000000000E+00 -0.00000000000E+00 -0.16707129079E+03  0.16707129079E+03  0.00000000000E+00 0. -1.
         25    2    1    2    0    0  0.12130632040E+02  0.50179603377E+02 -0.11597786833E+02  0.13573717194E+03  0.12499970543E+03 0.  0.
          2    1    1    2  501    0 -0.24027643065E+02  0.28218096569E+02 -0.88687896945E+02  0.96120401943E+02  0.00000000000E+00 0. -1.
          1    1    1    2  502    0  0.11897011026E+02 -0.78397699946E+02  0.15714664461E+04  0.15734657700E+04  0.00000000000E+00 0. -1.
         22    1    3    3    0    0 -0.40501525440E+02  0.56224857556E+02  0.22357796087E+02  0.72811257481E+02  0.00000000000E+00 0. -1.
         22    1    3    3    0    0  0.52632157480E+02 -0.60452541784E+01 -0.33955582920E+02  0.62925914459E+02  0.00000000000E+00 0. -1.
</event>
<event>
 7    1  0.6315518E-006  0.1229878E+03  0.7818608E-02  0.1286268E+00
          2   -1    0    0  502    0  0.00000000000E+00  0.00000000000E+00  0.16386470248E+04  0.16386470248E+04  0.00000000000E+00 0. -1.
          1   -1    0    0  501    0 -0.00000000000E+00 -0.00000000000E+00 -0.11709610688E+03  0.11709610688E+03  0.00000000000E+00 0. -1.
         25    2    1    2    0    0 -0.10501621402E+03 -0.25016397794E+02  0.31657914474E+03  0.35707293308E+03  0.12499799716E+03 0.  0.
          2    1    1    2  501    0  0.11674656061E+03 -0.50923154529E+02 -0.53287418741E+02  0.13806692608E+03  0.00000000000E+00 0. -1.
          1    1    1    2  502    0 -0.11730346591E+02  0.75939552323E+02  0.12582591920E+04  0.12606032726E+04  0.00000000000E+00 0. -1.
         22    1    3    3    0    0 -0.66188321252E+02 -0.72247648960E+02  0.14568002885E+03  0.17556562151E+03  0.00000000000E+00 0.  1.
         22    1    3    3    0    0 -0.38827892764E+02  0.47231251166E+02  0.17089911589E+03  0.18150731158E+03  0.00000000000E+00 0.  1.
</event>
<event>
 7    1  0.6315518E-006  0.5282535E+02  0.7818608E-02  0.1512160E+00
          2   -1    0    0  502    0  0.00000000000E+00  0.00000000000E+00  0.59948958426E+03  0.59948958426E+03  0.00000000000E+00 0. -1.
          1   -1    0    0  501    0 -0.00000000000E+00 -0.00000000000E+00 -0.37942310692E+03  0.37942310692E+03  0.00000000000E+00 0. -1.
         25    2    1    2    0    0 -0.43323033514E+02  0.57073381377E+01  0.16711357053E+03  0.21322010266E+03  0.12500563099E+03 0.  0.
          2    1    1    2  501    0  0.22312469322E+01  0.29404387437E+02 -0.35396978260E+03  0.35519600710E+03  0.00000000000E+00 0. -1.
          1    1    1    2  502    0  0.41091786582E+02 -0.35111725575E+02  0.40692268942E+03  0.41049658142E+03  0.00000000000E+00 0. -1.
         22    1    3    3    0    0  0.87518011948E+01 -0.13623048643E+02 -0.15457744001E+02  0.22385784062E+02  0.00000000000E+00 0.  1.
         22    1    3    3    0    0 -0.52074834709E+02  0.19330386781E+02  0.18257131453E+03  0.19083431860E+03  0.00000000000E+00 0.  1.
</event>
<event>
 7    1  0.6315518E-006  0.2801812E+02  0.7818608E-02  0.1630643E+00
          2   -1    0    0  502    0  0.00000000000E+00  0.00000000000E+00  0.56023816513E+03  0.56023816513E+03  0.00000000000E+00 0. -1.
          1   -1    0    0  501    0 -0.00000000000E+00 -0.00000000000E+00 -0.79158116906E+03  0.79158116906E+03  0.00000000000E+00 0. -1.
         25    2    1    2    0    0 -0.27911067915E+02 -0.47019146915E+00 -0.65840851554E+02  0.14401343984E+03  0.12500241729E+03 0.  0.
          2    1    1    2  501    0  0.12035855789E+02  0.23611805814E+02 -0.68602017550E+03  0.68653190778E+03  0.00000000000E+00 0. -1.
          1    1    1    2  502    0  0.15875212127E+02 -0.23141614345E+02  0.52051802313E+03  0.52127398657E+03  0.00000000000E+00 0. -1.
         22    1    3    3    0    0  0.51362901732E+01 -0.55468996765E+02 -0.56198044192E+02  0.79129079673E+02  0.00000000000E+00 0.  1.
         22    1    3    3    0    0 -0.33047358088E+02  0.54998805296E+02 -0.96428073617E+01  0.64884360168E+02  0.00000000000E+00 0.  1.
</event>
<event>
 7    1  0.6315518E-006  0.1098344E+03  0.7818608E-02  0.1331223E+00
          2   -1    0    0  502    0  0.00000000000E+00  0.00000000000E+00  0.23551513027E+03  0.23551513027E+03  0.00000000000E+00 0. -1.
          1   -1    0    0  501    0 -0.00000000000E+00 -0.00000000000E+00 -0.19049262344E+04  0.19049262344E+04  0.00000000000E+00 0. -1.
         25    2    1    2    0    0 -0.39378578382E+02  0.11988308178E+03  0.47702276802E+02  0.18391175001E+03  0.12500159538E+03 0.  0.
          2    1    1    2  501    0 -0.16648770475E+02 -0.10852356533E+03 -0.18282542582E+04  0.18315480279E+04  0.00000000000E+00 0. -1.
          1    1    1    2  502    0  0.56027348856E+02 -0.11359516452E+02  0.11114087727E+03  0.12498158678E+03  0.00000000000E+00 0. -1.
         22    1    3    3    0    0 -0.84428381566E+02  0.65287212156E+02  0.25530712597E+02  0.10973781924E+03  0.00000000000E+00 0. -1.
         22    1    3    3    0    0  0.45049803184E+02  0.54595869621E+02  0.22171564205E+02  0.74173930771E+02  0.00000000000E+00 0. -1.
</event>
<event>
 7    1  0.6315518E-006  0.1128687E+03  0.7818608E-02  0.1260754E+00
          2   -1    0    0  502    0  0.00000000000E+00  0.00000000000E+00  0.26287966293E+04  0.26287966293E+04  0.00000000000E+00 0. -1.
          1   -1    0    0  501    0 -0.00000000000E+00 -0.00000000000E+00 -0.25822392722E+03  0.25822392722E+03  0.00000000000E+00 0. -1.
         25    2    1    2    0    0  0.57076550747E+01  0.30215334868E+02  0.46351638842E+03  0.48105932044E+03  0.12500033462E+03 0.  0.
          2    1    1    2  501    0  0.11180901888E+03  0.15430107458E+02 -0.23473599521E+03  0.26046176757E+03  0.00000000000E+00 0. -1.
          1    1    1    2  502    0 -0.11751667396E+03 -0.45645442326E+02  0.21417923089E+04  0.21454994685E+04  0.00000000000E+00 0. -1.
         22    1    3    3    0    0 -0.36304869881E+02  0.17034916026E+02  0.45174838281E+02  0.60406936313E+02  0.00000000000E+00 0.  1.
         22    1    3    3    0    0  0.42012524956E+02  0.13180418842E+02  0.41834155014E+03  0.42065238412E+03  0.00000000000E+00 0.  1.
</event>
<event>
 7    1  0.6315518E-006  0.6955166E+02  0.7818608E-02  0.1478774E+00
          2   -1    0    0  502    0  0.00000000000E+00  0.00000000000E+00  0.81825694774E+03  0.81825694774E+03  0.00000000000E+00 0. -1.
          1   -1    0    0  501    0 -0.00000000000E+00 -0.00000000000E+00 -0.64661582392E+02  0.64661582392E+02  0.00000000000E+00 0. -1.
         25    2    1    2    0    0 -0.60777154357E+02  0.44647336089E+01  0.30193933803E+03  0.33242374313E+03  0.12499753922E+03 0.  0.
          2    1    1    2  501    0  0.66726314495E+02  0.23114229504E+02 -0.23559324678E+02  0.74442665394E+02  0.00000000000E+00 0. -1.
          1    1    1    2  502    0 -0.59491601382E+01 -0.27578963113E+02  0.47521535200E+03  0.47605212161E+03  0.00000000000E+00 0. -1.
         22    1    3    3    0    0 -0.77591647534E+02 -0.42553304929E+02  0.17741817726E+03  0.19826360520E+03  0.00000000000E+00 0. -1.
         22    1    3    3    0    0  0.16814493177E+02  0.47018038538E+02  0.12452116077E+03  0.13416013793E+03  0.00000000000E+00 0. -1.
</event>
<event>
 7    1  0.6315518E-006  0.1544205E+03  0.7818608E-02  0.1310753E+00
          2   -1    0    0  502    0  0.00000000000E+00  0.00000000000E+00  0.70182835824E+03  0.70182835824E+03  0.00000000000E+00 0. -1.
          1   -1    0    0  501    0 -0.00000000000E+00 -0.00000000000E+00 -0.10912803091E+04  0.10912803091E+04  0.00000000000E+00 0. -1.
         25    2    1    2    0    0 -0.18953572242E+03 -0.55209057509E+02 -0.43536393561E+03  0.49410453139E+03  0.12500280561E+03 0.  0.
          2    1    1    2  501    0  0.48476833979E+02 -0.56700658053E+01 -0.61679422318E+03  0.61872228571E+03  0.00000000000E+00 0. -1.
          1    1    1    2  502    0  0.14105888844E+03  0.60879123314E+02  0.66270620796E+03  0.68028185021E+03  0.00000000000E+00 0. -1.
         22    1    3    3    0    0 -0.10532373038E+03 -0.57441412477E+02 -0.12811664546E+03  0.17551774524E+03  0.00000000000E+00 0. -1.
         22    1    3    3    0    0 -0.84211992043E+02  0.22323549683E+01 -0.30724729015E+03  0.31858678616E+03  0.00000000000E+00 0. -1.
</event>
<event>
 7    1  0.6315518E-006  0.1212902E+03  0.7818608E-02  0.1261846E+00
          2   -1    0    0  502    0  0.00000000000E+00  0.00000000000E+00  0.35946352210E+03  0.35946352210E+03  0.00000000000E+00 0. -1.
          1   -1    0    0  501    0 -0.00000000000E+00 -0.00000000000E+00 -0.21213580179E+03  0.21213580179E+03  0.00000000000E+00 0. -1.
         25    2    1    2    0    0 -0.36000986908E+02 -0.18295430718E+02 -0.96314415918E+01  0.13171031738E+03  0.12499619672E+03 0.  0.
          2    1    1    2  501    0  0.41677294608E+02  0.13945271444E+03 -0.85486971715E+02  0.16879596791E+03  0.00000000000E+00 0. -1.
          1    1    1    2  502    0 -0.56763076999E+01 -0.12115728372E+03  0.24244613362E+03  0.27109303859E+03  0.00000000000E+00 0. -1.
         22    1    3    3    0    0  0.14336154479E+02  0.18368594065E+02  0.43828204880E+02  0.49637104228E+02  0.00000000000E+00 0.  1.
         22    1    3    3    0    0 -0.50337141387E+02 -0.36664024782E+02 -0.53459646471E+02  0.82073213152E+02  0.00000000000E+00 0.  1.
</event>
<event>
 7    1  0.6315518E-006  0.9572491E+02  0.7818608E-02  0.1320028E+00
          2   -1    0    0  502    0  0.00000000000E+00  0.00000000000E+00  0.21036114156E+03  0.21036114156E+03  0.00000000000E+00 0. -1.
          1   -1    0    0  501    0 -0.00000000000E+00 -0.00000000000E+00 -0.15824761460E+04  0.15824761460E+04  0.00000000000E+00 0. -1.
         25    2    1    2    0    0  0.40153533714E+02 -0.20549845729E+01 -0.10547931477E+03  0.16843038948E+03  0.12500552398E+03 0.  0.
          2    1    1    2  501    0  0.47877021363E+02  0.54350267158E+02 -0.14298771077E+04  0.14317104120E+04  0.00000000000E+00 0. -1.
          1    1    1    2  502    0 -0.88030555077E+02 -0.52295282585E+02  0.16324141799E+03  0.19269648610E+03  0.00000000000E+00 0. -1.
         22    1    3    3    0    0  0.42657023652E+02  0.56925438605E+02 -0.46511742143E+02  0.84990995902E+02  0.00000000000E+00 0. -1.
         22    1    3    3    0    0 -0.25034899381E+01 -0.58980423178E+02 -0.58967572624E+02  0.83439393582E+02  0.00000000000E+00 0. -1.
</event>
<event>
 7    1  0.6315518E-006  0.6682409E+02  0.7818608E-02  0.1393974E+00
          2   -1    0    0  502    0  0.00000000000E+00  0.00000000000E+00  0.94086480342E+03  0.94086480342E+03  0.00000000000E+00 0. -1.
          1   -1    0    0  501    0 -0.00000000000E+00 -0.00000000000E+00 -0.55016207593E+03  0.55016207593E+03  0.00000000000E+00 0. -1.
         25    2    1    2    0    0 -0.93318815794E+02  0.76971810112E+02  0.67524506723E+02  0.18659642990E+03  0.12500243082E+03 0.  0.
          2    1    1    2  501    0  0.54055526641E+02 -0.37669856320E+02 -0.48745915895E+03  0.49189170524E+03  0.00000000000E+00 0. -1.
          1    1    1    2  502    0  0.39263289153E+02 -0.39301953791E+02  0.81063737972E+03  0.81253874421E+03  0.00000000000E+00 0. -1.
         22    1    3    3    0    0 -0.10023903256E+03  0.41298333197E+01  0.45688302496E+02  0.11023765308E+03  0.00000000000E+00 0. -1.
         22    1    3    3    0    0  0.69202167629E+01  0.72841976792E+02  0.21836204227E+02  0.76358776824E+02  0.00000000000E+00 0. -1.
</event>
<event>
 7    1  0.6315518E-006  0.9520100E+02  0.7818608E-02  0.1402515E+00
          2   -1    0    0  502    0  0.00000000000E+00  0.00000000000E+00  0.20893583089E+04  0.20893583089E+04  0.00000000000E+00 0. -1.
          1   -1    0    0  501    0 -0.00000000000E+00 -0.00000000000E+00 -0.14580812298E+03  0.14580812298E+03  0.00000000000E+00 0. -1.
         25    2    1    2    0    0 -0.31794249280E+02  0.12071622129E+03  0.22815729609E+03  0.28855633259E+03  0.12500289976E+03 0.  0.
          2    1    1    2  501    0  0.83973103340E+01 -0.92781363375E+02 -0.96627808390E+02  0.13422305899E+03  0.00000000000E+00 0. -1.
          1    1    1    2  502    0  0.23396938946E+02 -0.27934857919E+02  0.18120206982E+04  0.18123870403E+04  0.00000000000E+00 0. -1.
         22    1    3    3    0    0 -0.17626247208E+02  0.98939306293E+02  0.23985974164E+03  0.26006223598E+03  0.00000000000E+00 0. -1.
         22    1    3    3    0    0 -0.14168002072E+02  0.21776915001E+02 -0.11702445555E+02  0.28494096611E+02  0.00000000000E+00 0. -1.
</event>
<event>
 7    1  0.6315518E-006  0.1298300E+03  0.7818608E-02  0.1330226E+00
          2   -1    0    0  502    0  0.00000000000E+00  0.00000000000E+00  0.15439513503E+04  0.15439513503E+04  0.00000000000E+00 0. -1.
          1   -1    0    0  501    0 -0.00000000000E+00 -0.00000000000E+00 -0.18942292070E+03  0.18942292070E+03  0.00000000000E+00 0. -1.
         25    2    1    2    0    0 -0.94240136845E+01  0.14152438530E+03  0.10432489229E+04  0.10602414508E+04  0.12500262112E+03 0.  0.
          2    1    1    2  501    0  0.52516048346E+02 -0.11864692441E+03 -0.15623065014E+03  0.20308383503E+03  0.00000000000E+00 0. -1.
          1    1    1    2  502    0 -0.43092034662E+02 -0.22877460893E+02  0.46751015688E+03  0.47004898517E+03  0.00000000000E+00 0. -1.
         22    1    3    3    0    0 -0.10856086990E+02  0.28582732261E+02  0.65966937510E+03  0.66037755235E+03  0.00000000000E+00 0. -1.
         22    1    3    3    0    0  0.14320733053E+01  0.11294165304E+03  0.38357954780E+03  0.39986389849E+03  0.00000000000E+00 0. -1.
</event>
<event>
 7    1  0.6315518E-006  0.2124277E+03  0.7818608E-02  0.1199559E+00
          2   -1    0    0  502    0  0.00000000000E+00  0.00000000000E+00  0.86134226401E+03  0.86134226401E+03  0.00000000000E+00 0. -1.
          1   -1    0    0  501    0 -0.00000000000E+00 -0.00000000000E+00 -0.49278953778E+03  0.49278953778E+03  0.00000000000E+00 0. -1.
         25    2    1    2    0    0 -0.17003782298E+03  0.25006655752E+03  0.15728793887E+03  0.36306031388E+03  0.12500860517E+03 0.  0.
          2    1    1    2  501    0  0.14043105392E+03 -0.14727019104E+03 -0.35802685947E+03  0.41181624807E+03  0.00000000000E+00 0. -1.
          1    1    1    2  502    0  0.29606769058E+02 -0.10279636648E+03  0.56929164683E+03  0.57925523984E+03  0.00000000000E+00 0. -1.
         22    1    3    3    0    0 -0.18219626209E+03  0.22823126848E+03  0.11484598184E+03  0.31380661142E+03  0.00000000000E+00 0. -1.
         22    1    3    3    0    0  0.12158439105E+02  0.21835289043E+02  0.42441957031E+02  0.49253702457E+02  0.00000000000E+00 0. -1.
</event>
<event>
 7    1  0.6588042E-006  0.1058271E+03  0.7818608E-02  0.1270387E+00
          2   -1    0    0  502    0  0.00000000000E+00  0.00000000000E+00  0.15258385653E+04  0.15258385653E+04  0.00000000000E+00 0. -1.
          1   -1    0    0  501    0 -0.00000000000E+00 -0.00000000000E+00 -0.12104538361E+04  0.12104538361E+04  0.00000000000E+00 0. -1.
         25    2    1    2    0    0 -0.35248522386E+02  0.56226324394E+02 -0.33548003040E+03  0.36410919805E+03  0.12499919767E+03 0.  0.
          2    1    1    2  501    0  0.12663617392E+03 -0.67732610743E+01 -0.85418650585E+03  0.86354917891E+03  0.00000000000E+00 0. -1.
          1    1    1    2  502    0 -0.91387651532E+02 -0.49453063319E+02  0.15050512654E+04  0.15086340245E+04  0.00000000000E+00 0. -1.
         22    1    3    3    0    0 -0.47024150491E+01  0.77393820744E+02 -0.10431082541E+03  0.12997178345E+03  0.00000000000E+00 0. -1.
         22    1    3    3    0    0 -0.30546107337E+02 -0.21167496350E+02 -0.23116920499E+03  0.23413741459E+03  0.00000000000E+00 0. -1.
</event>
<event>
 7    1  0.6315518E-006  0.7299843E+02  0.7818608E-02  0.1378735E+00
          2   -1    0    0  502    0  0.00000000000E+00  0.00000000000E+00  0.60305253194E+03  0.60305253194E+03  0.00000000000E+00 0. -1.
          1   -1    0    0  501    0 -0.00000000000E+00 -0.00000000000E+00 -0.46070668394E+03  0.46070668394E+03  0.00000000000E+00 0. -1.
         25    2    1    2    0    0  0.51614870080E+01 -0.37530586550E+02 -0.56057210700E+02  0.14213657611E+03  0.12500083809E+03 0.  0.
          2    1    1    2  501    0 -0.54730841289E+02 -0.17687382245E+02 -0.35683866894E+03  0.36144452428E+03  0.00000000000E+00 0. -1.
          1    1    1    2  502    0  0.49569354281E+02  0.55217968796E+02  0.55524172764E+03  0.56017811549E+03  0.00000000000E+00 0. -1.
         22    1    3    3    0    0 -0.17714407385E+02  0.39454377910E+02  0.15887472817E+01  0.43277849799E+02  0.00000000000E+00 0.  1.
         22    1    3    3    0    0  0.22875894393E+02 -0.76984964460E+02 -0.57645957981E+02  0.98858726316E+02  0.00000000000E+00 0.  1.
</event>
<event>
 7    1  0.6315518E-006  0.3457868E+02  0.7818608E-02  0.1593793E+00
          2   -1    0    0  502    0  0.00000000000E+00  0.00000000000E+00  0.18120236845E+03  0.18120236845E+03  0.00000000000E+00 0. -1.
          1   -1    0    0  501    0 -0.00000000000E+00 -0.00000000000E+00 -0.86042206365E+03  0.86042206365E+03  0.00000000000E+00 0. -1.
         25    2    1    2    0    0  0.38157336047E+02  0.16234541162E+01 -0.39625897542E+03  0.41725881757E+03  0.12500050936E+03 0.  0.
          2    1    1    2  501    0 -0.24722619114E+02 -0.24711790891E+02 -0.45193907783E+03  0.45328888203E+03  0.00000000000E+00 0. -1.
          1    1    1    2  502    0 -0.13434716933E+02  0.23088336775E+02  0.16897835805E+03  0.17107673250E+03  0.00000000000E+00 0. -1.
         22    1    3    3    0    0  0.23288679012E+02 -0.52084647253E+02 -0.30530198522E+03  0.31058730693E+03  0.00000000000E+00 0. -1.
         22    1    3    3    0    0  0.14868657036E+02  0.53708101369E+02 -0.90956990203E+02  0.10667151064E+03  0.00000000000E+00 0. -1.
</event>
<event>
 7    1  0.6315518E-006  0.6509975E+02  0.7818608E-02  0.1522628E+00
          2   -1    0    0  502    0  0.00000000000E+00  0.00000000000E+00  0.10564999056E+04  0.10564999056E+04  0.00000000000E+00 0. -1.
          1   -1    0    0  501    0 -0.00000000000E+00 -0.00000000000E+00 -0.36640452489E+02  0.36640452489E+02  0.00000000000E+00 0. -1.
         25    2    1    2    0    0  0.58555835393E+01 -0.52558761508E+02  0.47500788169E+03  0.49401975634E+03  0.12500528274E+03 0.  0.
          2    1    1    2  501    0  0.12580037347E+02  0.65115447078E+02  0.13975400793E+02  0.67776032748E+02  0.00000000000E+00 0. -1.
          1    1    1    2  502    0 -0.18435620886E+02 -0.12556685570E+02  0.53087617060E+03  0.53134456897E+03  0.00000000000E+00 0. -1.
         22    1    3    3    0    0  0.28404074255E+02 -0.85012175024E+02  0.39155857226E+03  0.40168641606E+03  0.00000000000E+00 0. -1.
         22    1    3    3    0    0 -0.22548490716E+02  0.32453413517E+02  0.83449309430E+02  0.92333340277E+02  0.00000000000E+00 0. -1.
</event>
<event>
 7    1  0.6315518E-006  0.6050724E+02  0.7818608E-02  0.1514383E+00
          2   -1    0    0  502    0  0.00000000000E+00  0.00000000000E+00  0.49588216017E+03  0.49588216017E+03  0.00000000000E+00 0. -1.
          1   -1    0    0  501    0 -0.00000000000E+00 -0.00000000000E+00 -0.61973569079E+03  0.61973569079E+03  0.00000000000E+00 0. -1.
         25    2    1    2    0    0  0.73799869519E+02 -0.97520653277E+01 -0.10646205379E+03  0.18028767350E+03  0.12501181063E+03 0.  0.
          2    1    1    2  501    0 -0.54144561302E+02  0.25779580251E+02 -0.47412028713E+03  0.47789775784E+03  0.00000000000E+00 0. -1.
          1    1    1    2  502    0 -0.19655308217E+02 -0.16027514924E+02  0.45672881029E+03  0.45743241963E+03  0.00000000000E+00 0. -1.
         22    1    3    3    0    0  0.10885289266E+03 -0.40593940835E+01 -0.70533854174E+02  0.12977078063E+03  0.00000000000E+00 0. -1.
         22    1    3    3    0    0 -0.35053023140E+02 -0.56926712442E+01 -0.35928199616E+02  0.50516892866E+02  0.00000000000E+00 0. -1.
</event>
<event>
 7    1  0.6315518E-006  0.6459177E+02  0.7818608E-02  0.1447210E+00
          2   -1    0    0  502    0  0.00000000000E+00  0.00000000000E+00  0.80234962343E+03  0.80234962343E+03  0.00000000000E+00 0. -1.
          1   -1    0    0  501    0 -0.00000000000E+00 -0.00000000000E+00 -0.13492275185E+03  0.13492275185E+03  0.00000000000E+00 0. -1.
         25    2    1    2    0    0 -0.84313225851E+02 -0.27441827577E+02  0.29525660553E+03  0.33266101307E+03  0.12500045021E+03 0.  0.
          2    1    1    2  501    0  0.48829021275E+02  0.41514352102E+02 -0.10656663620E+03  0.12435498663E+03  0.00000000000E+00 0. -1.
          1    1    1    2  502    0  0.35484204577E+02 -0.14072524525E+02  0.47873690224E+03  0.48025637558E+03  0.00000000000E+00 0. -1.
         22    1    3    3    0    0 -0.95234274937E+02 -0.57164966856E+02  0.27065875337E+03  0.29256377311E+03  0.00000000000E+00 0. -1.
         22    1    3    3    0    0  0.10921049085E+02  0.29723139279E+02  0.24597852164E+02  0.40097239965E+02  0.00000000000E+00 0. -1.
</event>
<event>
 7    1  0.6315518E-006  0.3706157E+02  0.7818608E-02  0.1550235E+00
          2   -1    0    0  502    0  0.00000000000E+00  0.00000000000E+00  0.62554974120E+03  0.62554974120E+03  0.00000000000E+00 0. -1.
          1   -1    0    0  501    0 -0.00000000000E+00 -0.00000000000E+00 -0.18524267425E+04  0.18524267425E+04  0.00000000000E+00 0. -1.
         25    2    1    2    0    0 -0.19199296882E+02  0.88610887922E+01  0.83581142621E+01  0.12705090143E+03  0.12499976634E+03 0.  0.
          2    1    1    2  501    0  0.29881022267E+02  0.22053275212E+02 -0.17924084014E+04  0.17927931001E+04  0.00000000000E+00 0. -1.
          1    1    1    2  502    0 -0.10681725386E+02 -0.30914364004E+02  0.55717328585E+03  0.55813248214E+03  0.00000000000E+00 0. -1.
         22    1    3    3    0    0  0.53183571702E+02  0.11193402534E+02  0.42208625516E+01  0.54512386115E+02  0.00000000000E+00 0.  1.
         22    1    3    3    0    0 -0.72382868584E+02 -0.23323137420E+01  0.41372517105E+01  0.72538515311E+02  0.00000000000E+00 0.  1.
</event>
<event>
 7    1  0.6315518E-006  0.2877154E+02  0.7818608E-02  0.1635504E+00
          2   -1    0    0  502    0  0.00000000000E+00  0.00000000000E+00  0.36221264831E+03  0.36221264831E+03  0.00000000000E+00 0. -1.
          1   -1    0    0  501    0 -0.00000000000E+00 -0.00000000000E+00 -0.33960794703E+02  0.33960794703E+02  0.00000000000E+00 0. -1.
         25    2    1    2    0    0 -0.63395572454E+01 -0.18375253387E+01  0.30056554842E+03  0.32558904828E+03  0.12500005191E+03 0.  0.
          2    1    1    2  501    0  0.27126963729E+02 -0.12220889815E+02 -0.41564627859E+01  0.30041612671E+02  0.00000000000E+00 0. -1.
          1    1    1    2  502    0 -0.20787406483E+02  0.14058415153E+02  0.31842767971E+02  0.40542782058E+02  0.00000000000E+00 0. -1.
         22    1    3    3    0    0  0.32357579771E+02 -0.74476992088E+00  0.27978652159E+03  0.28165238383E+03  0.00000000000E+00 0.  1.
         22    1    3    3    0    0 -0.38697137016E+02 -0.10927554178E+01  0.20779026832E+02  0.43936664459E+02  0.00000000000E+00 0.  1.
</event>
<event>
 7    1  0.6315518E-006  0.8996717E+02  0.7818608E-02  0.1367501E+00
          2   -1    0    0  502    0  0.00000000000E+00  0.00000000000E+00  0.16806049997E+04  0.16806049997E+04  0.00000000000E+00 0. -1.
          1   -1    0    0  501    0 -0.00000000000E+00 -0.00000000000E+00 -0.74576308886E+02  0.74576308886E+02  0.00000000000E+00 0. -1.
         25    2    1    2    0    0 -0.53807736024E+02  0.97310405333E+02  0.11323474129E+03  0.20201901712E+03  0.12499995680E+03 0.  0.
          2    1    1    2  501    0  0.69462722675E+02 -0.48567352283E+02  0.30660463929E+02  0.90132799788E+02  0.00000000000E+00 0. -1.
          1    1    1    2  502    0 -0.15654986651E+02 -0.48743053050E+02  0.14621334856E+04  0.14630294917E+04  0.00000000000E+00 0. -1.
         22    1    3    3    0    0  0.61597494114E+01  0.95592650055E+01  0.93164870941E+02  0.93856354274E+02  0.00000000000E+00 0.  1.
         22    1    3    3    0    0 -0.59967485435E+02  0.87751140328E+02  0.20069870352E+02  0.10816266285E+03  0.00000000000E+00 0.  1.
</event>
<event>
 7    1  0.6910857E-006  0.9199159E+02  0.7818608E-02  0.1329391E+00
          2   -1    0    0  502    0  0.00000000000E+00  0.00000000000E+00  0.69977889994E+03  0.69977889994E+03  0.00000000000E+00 0. -1.
          1   -1    0    0  501    0 -0.00000000000E+00 -0.00000000000E+00 -0.31352840021E+04  0.31352840021E+04  0.00000000000E+00 0. -1.
         25    2    1    2    0    0 -0.61597443892E+02 -0.67093076725E+02 -0.89091470653E+03  0.90423900385E+03  0.12499374279E+03 0.  0.
          2    1    1    2  501    0 -0.16732480690E+01  0.95521094668E+02 -0.22349487069E+04  0.22369896740E+04  0.00000000000E+00 0. -1.
          1    1    1    2  502    0  0.63270691960E+02 -0.28428017942E+02  0.69035831127E+03  0.69383422415E+03  0.00000000000E+00 0. -1.
         22    1    3    3    0    0 -0.65349680342E+02 -0.22720523797E+02 -0.80018309145E+03  0.80316858925E+03  0.00000000000E+00 0.  1.
         22    1    3    3    0    0  0.37522364505E+01 -0.44372552929E+02 -0.90731615080E+02  0.10107041460E+03  0.00000000000E+00 0.  1.
</event>
<event>
 7    1  0.6315518E-006  0.2902651E+03  0.7818608E-02  0.1231638E+00
          2   -1    0    0  502    0  0.00000000000E+00  0.00000000000E+00  0.97305772553E+03  0.97305772553E+03  0.00000000000E+00 0. -1.
          1   -1    0    0  501    0 -0.00000000000E+00 -0.00000000000E+00 -0.19891840009E+03  0.19891840009E+03  0.00000000000E+00 0. -1.
         25    2    1    2    0    0  0.20289831267E+03  0.16731261982E+03  0.17033233504E+03  0.33735031551E+03  0.12502356970E+03 0.  0.
          2    1    1    2  501    0 -0.22569511540E+03 -0.21820018255E+03  0.10251293161E+03  0.33024007317E+03  0.00000000000E+00 0. -1.
          1    1    1    2  502    0  0.22796802732E+02  0.50887562735E+02  0.50129405878E+03  0.50438573694E+03  0.00000000000E+00 0. -1.
         22    1    3    3    0    0  0.93374253707E+02  0.53973115894E+02  0.14020089362E+03  0.17688453597E+03  0.00000000000E+00 0. -1.
         22    1    3    3    0    0  0.10952405896E+03  0.11333950393E+03  0.30131441424E+02  0.16046577954E+03  0.00000000000E+00 0. -1.
</event>
<event>
 7    1  0.6315518E-006  0.1177153E+03  0.7818608E-02  0.1275763E+00
          2   -1    0    0  502    0  0.00000000000E+00  0.00000000000E+00  0.65989173031E+03  0.65989173031E+03  0.00000000000E+00 0. -1.
          1   -1    0    0  501    0 -0.00000000000E+00 -0.00000000000E+00 -0.84680231156E+03  0.84680231156E+03  0.00000000000E+00 0. -1.
         25    2    1    2    0    0  0.19445885883E+03 -0.30673099569E+02  0.48761067376E+03  0.54050394725E+03  0.12500104404E+03 0.  0.
          2    1    1    2  501    0 -0.11652720240E+03 -0.11701358103E+02 -0.80220931648E+03  0.81071283333E+03  0.00000000000E+00 0. -1.
          1    1    1    2  502    0 -0.77931656433E+02  0.42374457671E+02  0.12768806147E+03  0.15547726129E+03  0.00000000000E+00 0. -1.
         22    1    3    3    0    0  0.13234886315E+03  0.29108898389E+02  0.21097012053E+03  0.25074277915E+03  0.00000000000E+00 0.  1.
         22    1    3    3    0    0  0.62109995685E+02 -0.59781997958E+02  0.27664055323E+03  0.28976116810E+03  0.00000000000E+00 0.  1.
</event>
<event>
 7    1  0.6315518E-006  0.8901198E+02  0.7818608E-02  0.1460803E+00
          2   -1    0    0  502    0  0.00000000000E+00  0.00000000000E+00  0.69658800286E+03  0.69658800286E+03  0.00000000000E+00 0. -1.
          1   -1    0    0  501    0 -0.00000000000E+00 -0.00000000000E+00 -0.15047715807E+04  0.15047715807E+04  0.00000000000E+00 0. -1.
         25    2    1    2    0    0 -0.36729020232E+02  0.94915169458E+02  0.53912534287E-01  0.16119143560E+03  0.12499906273E+03 0.  0.
          2    1    1    2  501    0  0.12646430348E+02 -0.87931674361E+02 -0.14225614892E+04  0.14253326286E+04  0.00000000000E+00 0. -1.
          1    1    1    2  502    0  0.24082589884E+02 -0.69834950963E+01  0.61432399884E+03  0.61483551937E+03  0.00000000000E+00 0. -1.
         22    1    3    3    0    0 -0.35091818237E+02  0.12389510904E+03 -0.12885058819E+02  0.12941197198E+03  0.00000000000E+00 0. -1.
         22    1    3    3    0    0 -0.16372019945E+01 -0.28979939578E+02  0.12938971353E+02  0.31779463621E+02  0.00000000000E+00 0. -1.
</event>
<event>
 7    1  0.6315518E-006  0.1301686E+03  0.7818608E-02  0.1262829E+00
          2   -1    0    0  502    0  0.00000000000E+00  0.00000000000E+00  0.94644152749E+03  0.94644152749E+03  0.00000000000E+00 0. -1.
          1   -1    0    0  501    0 -0.00000000000E+00 -0.00000000000E+00 -0.95059783370E+02  0.95059783370E+02  0.00000000000E+00 0. -1.
         25    2    1    2    0    0 -0.15469419717E+03 -0.63678781982E+02  0.60596639022E+03  0.64094144006E+03  0.12500152640E+03 0.  0.
          2    1    1    2  501    0  0.86448842624E+02 -0.28164719535E+02 -0.35212024087E+02  0.97501489516E+02  0.00000000000E+00 0. -1.
          1    1    1    2  502    0  0.68245354546E+02  0.91843501517E+02  0.28062737798E+03  0.30305838128E+03  0.00000000000E+00 0. -1.
         22    1    3    3    0    0  0.19893541817E+01 -0.26065687156E+02  0.23553401024E+03  0.23698026829E+03  0.00000000000E+00 0.  1.
         22    1    3    3    0    0 -0.15668355135E+03 -0.37613094825E+02  0.37043237998E+03  0.40396117178E+03  0.00000000000E+00 0.  1.
</event>
<event>
 7    1  0.6315518E-006  0.8521845E+02  0.7818608E-02  0.1479175E+00
          2   -1    0    0  502    0  0.00000000000E+00  0.00000000000E+00  0.85301834845E+03  0.85301834845E+03  0.00000000000E+00 0. -1.
          1   -1    0    0  501    0 -0.00000000000E+00 -0.00000000000E+00 -0.23230973117E+03  0.23230973117E+03  0.00000000000E+00 0. -1.
         25    2    1    2    0    0 -0.89632316545E+02 -0.23419494607E+02  0.76454898324E+03  0.78021934182E+03  0.12499859467E+03 0.  0.
          2    1    1    2  501    0  0.85164304755E+02  0.89701145326E+00 -0.21451169712E+03  0.23080084843E+03  0.00000000000E+00 0. -1.
          1    1    1    2  502    0  0.44680117901E+01  0.22522483154E+02  0.70671331158E+02  0.74307889382E+02  0.00000000000E+00 0. -1.
         22    1    3    3    0    0 -0.11746627392E+03 -0.12474354079E+02  0.48961590407E+03  0.50366424187E+03  0.00000000000E+00 0.  1.
         22    1    3    3    0    0  0.27833957374E+02 -0.10945140528E+02  0.27493307917E+03  0.27655509995E+03  0.00000000000E+00 0.  1.
</event>
<event>
 7    1  0.6315518E-006  0.9495822E+02  0.7818608E-02  0.1401296E+00
          2   -1    0    0  502    0  0.00000000000E+00  0.00000000000E+00  0.22343095884E+04  0.22343095884E+04  0.00000000000E+00 0. -1.
          1   -1    0    0  501    0 -0.00000000000E+00 -0.00000000000E+00 -0.12275102010E+03  0.12275102010E+03  0.00000000000E+00 0. -1.
         25    2    1    2    0    0 -0.73279340592E+02 -0.59310606003E+02  0.92397999612E+03  0.93715172264E+03  0.12500683289E+03 0.  0.
          2    1    1    2  501    0  0.91187870066E+02  0.27064710958E+02 -0.96384123623E+02  0.13541648907E+03  0.00000000000E+00 0. -1.
          1    1    1    2  502    0 -0.17908529474E+02  0.32245895045E+02  0.12839626958E+04  0.12844923968E+04  0.00000000000E+00 0. -1.
         22    1    3    3    0    0 -0.59857943807E+02 -0.12790540809E+02  0.15498633564E+03  0.16663533720E+03  0.00000000000E+00 0.  1.
         22    1    3    3    0    0 -0.13421396785E+02 -0.46520065194E+02  0.76899366049E+03  0.77051638544E+03  0.00000000000E+00 0.  1.
</event>
<event>
 7    1  0.6315518E-006  0.9109660E+02  0.7818608E-02  0.1468020E+00
          2   -1    0    0  502    0  0.00000000000E+00  0.00000000000E+00  0.21795219141E+03  0.21795219141E+03  0.00000000000E+00 0. -1.
          1   -1    0    0  501    0 -0.00000000000E+00 -0.00000000000E+00 -0.10109336191E+04  0.10109336191E+04  0.00000000000E+00 0. -1.
         25    2    1    2    0    0 -0.89924067156E+00 -0.10730168055E+03  0.55466050484E+02  0.17382679167E+03  0.12499924586E+03 0.  0.
          2    1    1    2  501    0  0.15787463524E+02  0.89434536526E+02 -0.94824668764E+03  0.95258572368E+03  0.00000000000E+00 0. -1.
          1    1    1    2  502    0 -0.14888222852E+02  0.17867144020E+02  0.99799209458E+02  0.10247329517E+03  0.00000000000E+00 0. -1.
         22    1    3    3    0    0 -0.12090816478E+02 -0.12351001527E+03  0.10269292102E+02  0.12452457619E+03  0.00000000000E+00 0.  1.
         22    1    3    3    0    0  0.11191575807E+02  0.16208334721E+02  0.45196758382E+02  0.49302215484E+02  0.00000000000E+00 0.  1.
</event>
<event>
 7    1  0.6315518E-006  0.1685574E+03  0.7818608E-02  0.1251841E+00
          2   -1    0    0  502    0  0.00000000000E+00  0.00000000000E+00  0.54123809230E+03  0.54123809230E+03  0.00000000000E+00 0. -1.
          1   -1    0    0  501    0 -0.00000000000E+00 -0.00000000000E+00 -0.16634796273E+04  0.16634796273E+04  0.00000000000E+00 0. -1.
         25    2    1    2    0    0  0.78889721321E+01 -0.11353032133E+03  0.81099294752E+02  0.18749244527E+03  0.12499980672E+03 0.  0.
          2    1    1    2  501    0  0.11428051797E+02 -0.77417993902E+02 -0.15866361584E+04  0.15885649012E+04  0.00000000000E+00 0. -1.
          1    1    1    2  502    0 -0.19317023929E+02  0.19094831524E+03  0.38329532867E+03  0.42866037312E+03  0.00000000000E+00 0. -1.
         22    1    3    3    0    0  0.63811474516E+02 -0.75743492483E+02  0.32183297066E+02  0.10413810803E+03  0.00000000000E+00 0.  1.
         22    1    3    3    0    0 -0.55922502383E+02 -0.37786828851E+02  0.48915997685E+02  0.83354337242E+02  0.00000000000E+00 0.  1.
</event>
<event>
 7    1  0.6315518E-006  0.9436691E+02  0.7818608E-02  0.1299010E+00
          2   -1    0    0  502    0  0.00000000000E+00  0.00000000000E+00  0.58782160248E+03  0.58782160248E+03  0.00000000000E+00 0. -1.
          1   -1    0    0  501    0 -0.00000000000E+00 -0.00000000000E+00 -0.53138121778E+03  0.53138121778E+03  0.00000000000E+00 0. -1.
         25    2    1    2    0    0 -0.14942119921E+03  0.25905148099E+02  0.34294461802E+03  0.39526503932E+03  0.12500267520E+03 0.  0.
          2    1    1    2  501    0  0.86431980175E+02  0.36863474448E+02 -0.49154435984E+03  0.50044506255E+03  0.00000000000E+00 0. -1.
          1    1    1    2  502    0  0.62989219035E+02 -0.62768622547E+02  0.20504012652E+03  0.22349271839E+03  0.00000000000E+00 0. -1.
         22    1    3    3    0    0  0.76033261841E+01  0.16621668964E+02  0.34606742851E+00  0.18281417092E+02  0.00000000000E+00 0.  1.
         22    1    3    3    0    0 -0.15702452539E+03  0.92834791352E+01  0.34259855059E+03  0.37698362223E+03  0.00000000000E+00 0.  1.
</event>
<event>
 7    1  0.6315518E-006  0.5206371E+02  0.7818608E-02  0.1439030E+00
          2   -1    0    0  502    0  0.00000000000E+00  0.00000000000E+00  0.10979493658E+04  0.10979493658E+04  0.00000000000E+00 0. -1.
          1   -1    0    0  501    0 -0.00000000000E+00 -0.00000000000E+00 -0.39143702476E+02  0.39143702476E+02  0.00000000000E+00 0. -1.
         25    2    1    2    0    0  0.24827390087E+02 -0.40369518438E+02  0.39417877845E+03  0.41623416574E+03  0.12501149558E+03 0.  0.
          2    1    1    2  501    0  0.27922227264E+02  0.43942903934E+02 -0.20353454170E+01  0.52103476012E+02  0.00000000000E+00 0. -1.
          1    1    1    2  502    0 -0.52749617351E+02 -0.35733854962E+01  0.66666223029E+03  0.66875542653E+03  0.00000000000E+00 0. -1.
         22    1    3    3    0    0 -0.47396152979E+02 -0.24650154058E+02  0.10565952946E+03  0.11839747286E+03  0.00000000000E+00 0. -1.
         22    1    3    3    0    0  0.72223543066E+02 -0.15719364379E+02  0.28851924899E+03  0.29783669288E+03  0.00000000000E+00 0. -1.
</event>
<event>
 7    1  0.6315518E-006  0.1552366E+03  0.7818608E-02  0.1348416E+00
          2   -1    0    0  502    0  0.00000000000E+00  0.00000000000E+00  0.16007880998E+04  0.16007880998E+04  0.00000000000E+00 0. -1.
          1   -1    0    0  501    0 -0.00000000000E+00 -0.00000000000E+00 -0.45639710237E+03  0.45639710237E+03  0.00000000000E+00 0. -1.
         25    2    1    2    0    0  0.30101934154E+02 -0.15450829792E+03  0.68335256714E+02  0.21230591180E+03  0.12500060925E+03 0.  0.
          2    1    1    2  501    0 -0.34841105962E+02 -0.74251391457E+00 -0.37948140324E+03  0.38107819329E+03  0.00000000000E+00 0. -1.
          1    1    1    2  502    0  0.47391718083E+01  0.15525081183E+03  0.14555371439E+04  0.14638010970E+04  0.00000000000E+00 0. -1.
         22    1    3    3    0    0 -0.18032767625E+02  0.15513219001E+02  0.33059381181E+01  0.24016034203E+02  0.00000000000E+00 0.  1.
         22    1    3    3    0    0  0.48134701779E+02 -0.17002151692E+03  0.65029318596E+02  0.18828987760E+03  0.00000000000E+00 0.  1.
</event>
<event>
 7    1  0.6315518E-006  0.1102562E+03  0.7818608E-02  0.1413385E+00
          2   -1    0    0  502    0  0.00000000000E+00  0.00000000000E+00  0.22256290557E+03  0.22256290557E+03  0.00000000000E+00 0. -1.
          1   -1    0    0  501    0 -0.00000000000E+00 -0.00000000000E+00 -0.14532894310E+04  0.14532894310E+04  0.00000000000E+00 0. -1.
         25    2    1    2    0    0 -0.44410399387E+02  0.11013315482E+03 -0.25332705241E+02  0.17426403289E+03  0.12499844734E+03 0.  0.
          2    1    1    2  501    0  0.15535650309E+02 -0.10899965560E+03 -0.13498183452E+04  0.13543012392E+04  0.00000000000E+00 0. -1.
          1    1    1    2  502    0  0.28874749077E+02 -0.11334992182E+01  0.14442452501E+03  0.14728706453E+03  0.00000000000E+00 0. -1.
         22    1    3    3    0    0 -0.66900057540E+02  0.91139618098E+02 -0.60641166592E+02  0.12829418838E+03  0.00000000000E+00 0. -1.
         22    1    3    3    0    0  0.22489658154E+02  0.18993536722E+02  0.35308461351E+02  0.45969844508E+02  0.00000000000E+00 0. -1.
</event>
<event>
 7    1  0.6315518E-006  0.1053932E+03  0.7818608E-02  0.1324153E+00
          2   -1    0    0  502    0  0.00000000000E+00  0.00000000000E+00  0.35902803806E+03  0.35902803806E+03  0.00000000000E+00 0. -1.
          1   -1    0    0  501    0 -0.00000000000E+00 -0.00000000000E+00 -0.19535069550E+04  0.19535069550E+04  0.00000000000E+00 0. -1.
         25    2    1    2    0    0 -0.35849162116E+02  0.28971325816E+02 -0.15502498475E+03  0.20441654008E+03  0.12501550231E+03 0.  0.
          2    1    1    2  501    0  0.82674755237E+02 -0.71733325117E+02 -0.17690725238E+04  0.17724554662E+04  0.00000000000E+00 0. -1.
          1    1    1    2  502    0 -0.46825593120E+02  0.42761999300E+02  0.32961859163E+03  0.33566298679E+03  0.00000000000E+00 0. -1.
         22    1    3    3    0    0  0.38507066617E+02 -0.11458548573E+02 -0.87009006399E+02  0.95836630311E+02  0.00000000000E+00 0. -1.
         22    1    3    3    0    0 -0.74356228734E+02  0.40429874390E+02 -0.68015978354E+02  0.10857990977E+03  0.00000000000E+00 0. -1.
</event>
<event>
 7    1  0.6315518E-006  0.4566004E+02  0.7818608E-02  0.1486825E+00
          2   -1    0    0  502    0  0.00000000000E+00  0.00000000000E+00  0.27056338376E+02  0.27056338376E+02  0.00000000000E+00 0. -1.
          1   -1    0    0  501    0 -0.00000000000E+00 -0.00000000000E+00 -0.68410524600E+03  0.68410524600E+03  0.00000000000E+00 0. -1.
         25    2    1    2    0    0 -0.72296133492E+02  0.29141418120E+02 -0.37940142226E+03  0.40699690964E+03  0.12500036833E+03 0.  0.
          2    1    1    2  501    0  0.40607977670E+02 -0.32350347132E+00 -0.24979152908E+03  0.25307097918E+03  0.00000000000E+00 0. -1.
          1    1    1    2  502    0  0.31688155822E+02 -0.28817914648E+02 -0.27855956288E+02  0.51093695549E+02  0.00000000000E+00 0. -1.
         22    1    3    3    0    0 -0.76469306158E+02  0.18811317920E+02 -0.99586136327E+02  0.12695991105E+03  0.00000000000E+00 0. -1.
         22    1    3    3    0    0  0.41731726662E+01  0.10330100200E+02 -0.27981528593E+03  0.28003699859E+03  0.00000000000E+00 0. -1.
</event>
<event>
 7    1  0.6315518E-006  0.9967449E+02  0.7818608E-02  0.1282627E+00
          2   -1    0    0  502    0  0.00000000000E+00  0.00000000000E+00  0.59196190483E+03  0.59196190483E+03  0.00000000000E+00 0. -1.
          1   -1    0    0  501    0 -0.00000000000E+00 -0.00000000000E+00 -0.39760003341E+03  0.39760003341E+03  0.00000000000E+00 0. -1.
         25    2    1    2    0    0 -0.78003048781E+01  0.72833794291E+02 -0.11444250034E+03  0.18462858616E+03  0.12500009038E+03 0.  0.
          2    1    1    2  501    0  0.95756456719E+02 -0.21456324350E+02 -0.23342811736E+03  0.25321603194E+03  0.00000000000E+00 0. -1.
          1    1    1    2  502    0 -0.87956151841E+02 -0.51377469941E+02  0.54223248912E+03  0.55171732013E+03  0.00000000000E+00 0. -1.
         22    1    3    3    0    0 -0.39054308013E+02 -0.17894539489E+02 -0.61542296501E+02  0.75052699995E+02  0.00000000000E+00 0. -1.
         22    1    3    3    0    0  0.31254003135E+02  0.90728333780E+02 -0.52900203840E+02  0.10957588616E+03  0.00000000000E+00 0. -1.
</event>
<event>
 7    1  0.8815434E-006  0.9278866E+02  0.7818608E-02  0.1300423E+00
          2   -1    0    0  502    0  0.00000000000E+00  0.00000000000E+00  0.95363000235E+03  0.95363000235E+03  0.00000000000E+00 0. -1.
          1   -1    0    0  501    0 -0.00000000000E+00 -0.00000000000E+00 -0.15672139251E+04  0.15672139251E+04  0.00000000000E+00 0. -1.
         25    2    1    2    0    0 -0.75703096721E+02  0.22005329944E+01 -0.62422582387E+03  0.64110841834E+03  0.12500529463E+03 0.  0.
          2    1    1    2  501    0  0.50823772107E+02 -0.91591551210E+02 -0.92932011724E+03  0.93520476280E+03  0.00000000000E+00 0. -1.
          1    1    1    2  502    0  0.24879324614E+02  0.89391018216E+02  0.93996201831E+03  0.94453074635E+03  0.00000000000E+00 0. -1.
         22    1    3    3    0    0  0.51680651540E+01 -0.24881467718E+02 -0.24333523079E+02  0.35184040113E+02  0.00000000000E+00 0. -1.
         22    1    3    3    0    0 -0.80871161875E+02  0.27082000713E+02 -0.59989230079E+03  0.60592437823E+03  0.00000000000E+00 0. -1.
</event>
<event>
 7    1  0.6315518E-006  0.6467959E+02  0.7818608E-02  0.1411537E+00
          2   -1    0    0  502    0  0.00000000000E+00  0.00000000000E+00  0.68425309026E+03  0.68425309026E+03  0.00000000000E+00 0. -1.
          1   -1    0    0  501    0 -0.00000000000E+00 -0.00000000000E+00 -0.19538571751E+03  0.19538571751E+03  0.00000000000E+00 0. -1.
         25    2    1    2    0    0 -0.69700002588E+02  0.20826265988E+02  0.34884385330E+03  0.37763561143E+03  0.12499918927E+03 0.  0.
          2    1    1    2  501    0  0.96530460772E+01 -0.49031111520E+02 -0.17400758378E+03  0.18104107381E+03  0.00000000000E+00 0. -1.
          1    1    1    2  502    0  0.60046956511E+02  0.28204845532E+02  0.31403110324E+03  0.32096212253E+03  0.00000000000E+00 0. -1.
         22    1    3    3    0    0 -0.10045504435E+03  0.14278006292E+02  0.31716841556E+03  0.33300282466E+03  0.00000000000E+00 0.  1.
         22    1    3    3    0    0  0.30755041765E+02  0.65482596959E+01  0.31675437734E+02  0.44632786767E+02  0.00000000000E+00 0.  1.
</event>
<event>
 7    1  0.6315518E-006  0.7253808E+02  0.7818608E-02  0.1450712E+00
          2   -1    0    0  502    0  0.00000000000E+00  0.00000000000E+00  0.11969718988E+03  0.11969718988E+03  0.00000000000E+00 0. -1.
          1   -1    0    0  501    0 -0.00000000000E+00 -0.00000000000E+00 -0.29493487863E+03  0.29493487863E+03  0.00000000000E+00 0. -1.
         25    2    1    2    0    0  0.83455063355E+02 -0.36871255680E+02 -0.87883272398E+02  0.17796793057E+03  0.12499951060E+03 0.  0.
          2    1    1    2  501    0 -0.13095583228E+02  0.30425422611E+02 -0.14296368847E+03  0.14675086665E+03  0.00000000000E+00 0. -1.
          1    1    1    2  502    0 -0.70359480127E+02  0.64458330693E+01  0.55609272124E+02  0.89913271289E+02  0.00000000000E+00 0. -1.
         22    1    3    3    0    0  0.50321687288E+02  0.31577317063E+02  0.29769660217E+01  0.59483287494E+02  0.00000000000E+00 0. -1.
         22    1    3    3    0    0  0.33133376067E+02 -0.68448572743E+02 -0.90860238420E+02  0.11848464308E+03  0.00000000000E+00 0. -1.
</event>
<event>
 7    1  0.6315518E-006  0.2620064E+03  0.7818608E-02  0.1227044E+00
          2   -1    0    0  502    0  0.00000000000E+00  0.00000000000E+00  0.16726479846E+04  0.16726479846E+04  0.00000000000E+00 0. -1.
          1   -1    0    0  501    0 -0.00000000000E+00 -0.00000000000E+00 -0.27932510367E+03  0.27932510367E+03  0.00000000000E+00 0. -1.
         25    2    1    2    0    0 -0.10495731929E+02 -0.32153744259E+03  0.66226772829E+02  0.35143689333E+03  0.12500166869E+03 0.  0.
          2    1    1    2  501    0  0.78799759327E+01  0.64297482660E+02 -0.11698361629E+03  0.13372145219E+03  0.00000000000E+00 0. -1.
          1    1    1    2  502    0  0.26157559959E+01  0.25723995993E+03  0.14440797243E+04  0.14668147427E+04  0.00000000000E+00 0. -1.
         22    1    3    3    0    0 -0.55961756664E+02 -0.14414481471E+03 -0.55995800371E+01  0.15472815230E+03  0.00000000000E+00 0. -1.
         22    1    3    3    0    0  0.45466024735E+02 -0.17739262788E+03  0.71826352866E+02  0.19670874103E+03  0.00000000000E+00 0. -1.
</event>
<event>
 7    1  0.6315518E-006  0.5059642E+02  0.7818608E-02  0.1527421E+00
          2   -1    0    0  502    0  0.00000000000E+00  0.00000000000E+00  0.10519654615E+04  0.10519654615E+04  0.00000000000E+00 0. -1.
          1   -1    0    0  501    0 -0.00000000000E+00 -0.00000000000E+00 -0.22970104003E+03  0.22970104003E+03  0.00000000000E+00 0. -1.
         25    2    1    2    0    0 -0.63423141122E+02  0.13077573854E+02  0.84941989021E+03  0.86100641319E+03  0.12499750358E+03 0.  0.
          2    1    1    2  501    0  0.41031976023E+02 -0.29554690013E+02 -0.22004338319E+03  0.22577908061E+03  0.00000000000E+00 0. -1.
          1    1    1    2  502    0  0.22391165098E+02  0.16477116159E+02  0.19288791441E+03  0.19488100768E+03  0.00000000000E+00 0. -1.
         22    1    3    3    0    0  0.15700843017E+02 -0.24992218912E+02  0.61571847649E+02  0.68280450354E+02  0.00000000000E+00 0. -1.
         22    1    3    3    0    0 -0.79123984138E+02  0.38069792766E+02  0.78784804256E+03  0.79272596283E+03  0.00000000000E+00 0. -1.
</event>
<event>
 7    1  0.6315518E-006  0.7805696E+02  0.7818608E-02  0.1385281E+00
          2   -1    0    0  502    0  0.00000000000E+00  0.00000000000E+00  0.10182796991E+04  0.10182796991E+04  0.00000000000E+00 0. -1.
          1   -1    0    0  501    0 -0.00000000000E+00 -0.00000000000E+00 -0.99961650621E+03  0.99961650621E+03  0.00000000000E+00 0. -1.
         25    2    1    2    0    0  0.45394172770E+02  0.11150813299E+03  0.45323389613E+02  0.17937225716E+03  0.12500200938E+03 0.  0.
          2    1    1    2  501    0 -0.37280236878E+02 -0.34805223878E+02 -0.93025053857E+03  0.93164761803E+03  0.00000000000E+00 0. -1.
          1    1    1    2  502    0 -0.81139358915E+01 -0.76702909116E+02  0.90359034189E+03  0.90687633014E+03  0.00000000000E+00 0. -1.
         22    1    3    3    0    0  0.71849525864E+02  0.57990937473E+02  0.68879218366E+02  0.11519396650E+03  0.00000000000E+00 0.  1.
         22    1    3    3    0    0 -0.26455353095E+02  0.53517195521E+02 -0.23555828754E+02  0.64178290661E+02  0.00000000000E+00 0.  1.
</event>
<event>
 7    1  0.6315518E-006  0.4572489E+02  0.7818608E-02  0.1519765E+00
          2   -1    0    0  502    0  0.00000000000E+00  0.00000000000E+00  0.76687781606E+03  0.76687781606E+03  0.00000000000E+00 0. -1.
          1   -1    0    0  501    0 -0.00000000000E+00 -0.00000000000E+00 -0.96855729142E+02  0.96855729142E+02  0.00000000000E+00 0. -1.
         25    2    1    2    0    0 -0.49656752382E+01  0.25331054743E+02  0.33446007785E+03  0.35798719348E+03  0.12499986701E+03 0.  0.
          2    1    1    2  501    0  0.37274701857E+02 -0.27315862237E+02 -0.78138722055E+02  0.90781163314E+02  0.00000000000E+00 0. -1.
          1    1    1    2  502    0 -0.32309026619E+02  0.19848074942E+01  0.41370073112E+03  0.41496518841E+03  0.00000000000E+00 0. -1.
         22    1    3    3    0    0  0.38253982691E+02  0.19056813007E+02  0.34668352631E+02  0.55031118359E+02  0.00000000000E+00 0. -1.
         22    1    3    3    0    0 -0.43219657929E+02  0.62742417360E+01  0.29979172522E+03  0.30295607512E+03  0.00000000000E+00 0. -1.
</event>
<event>
 7    1  0.6315518E-006  0.6426794E+02  0.7818608E-02  0.1496132E+00
          2   -1    0    0  502    0  0.00000000000E+00  0.00000000000E+00  0.18216550240E+04  0.18216550240E+04  0.00000000000E+00 0. -1.
          1   -1    0    0  501    0 -0.00000000000E+00 -0.00000000000E+00 -0.11682040349E+03  0.11682040349E+03  0.00000000000E+00 0. -1.
         25    2    1    2    0    0  0.63229959145E+02  0.32780058641E+02  0.82053734889E+03  0.83305383381E+03  0.12499835650E+03 0.  0.
          2    1    1    2  501    0 -0.41576886528E+02 -0.48982176539E+02 -0.10102707311E+03  0.11972619017E+03  0.00000000000E+00 0. -1.
          1    1    1    2  502    0 -0.21653072616E+02  0.16202117897E+02  0.98532434473E+03  0.98569540351E+03  0.00000000000E+00 0. -1.
         22    1    3    3    0    0 -0.31021252549E+02 -0.87242482607E+01  0.34451167441E+03  0.34601549738E+03  0.00000000000E+00 0.  1.
         22    1    3    3    0    0  0.94251211693E+02  0.41504306902E+02  0.47602567448E+03  0.48703833644E+03  0.00000000000E+00 0.  1.
</event>
<event>
 7    1  0.6315518E-006  0.1176436E+03  0.7818608E-02  0.1269363E+00
          2   -1    0    0  502    0  0.00000000000E+00  0.00000000000E+00  0.15477373424E+04  0.15477373424E+04  0.00000000000E+00 0. -1.
          1   -1    0    0  501    0 -0.00000000000E+00 -0.00000000000E+00 -0.14218570598E+04  0.14218570598E+04  0.00000000000E+00 0. -1.
         25    2    1    2    0    0  0.72528805192E+02  0.17523971896E+03 -0.63579024220E+02  0.23587242887E+03  0.12499649474E+03 0.  0.
          2    1    1    2  501    0 -0.74097347580E+02 -0.58494943359E+02 -0.12680422321E+04  0.12715514845E+04  0.00000000000E+00 0. -1.
          1    1    1    2  502    0  0.15685423873E+01 -0.11674477560E+03  0.14575015388E+04  0.14621704889E+04  0.00000000000E+00 0. -1.
         22    1    3    3    0    0  0.90070118013E+02  0.10421124100E+03 -0.82165064087E+02  0.16038611744E+03  0.00000000000E+00 0. -1.
         22    1    3    3    0    0 -0.17541312821E+02  0.71028477956E+02  0.18586039867E+02  0.75486311435E+02  0.00000000000E+00 0. -1.
</event>
<event>
 7    1  0.6315518E-006  0.2161925E+03  0.7818608E-02  0.1344837E+00
          2   -1    0    0  502    0  0.00000000000E+00  0.00000000000E+00  0.28917252324E+03  0.28917252324E+03  0.00000000000E+00 0. -1.
          1   -1    0    0  501    0 -0.00000000000E+00 -0.00000000000E+00 -0.15602656192E+04  0.15602656192E+04  0.00000000000E+00 0. -1.
         25    2    1    2    0    0 -0.58917854792E+02 -0.19911246396E+03 -0.42272647041E+02  0.24602602927E+03  0.12499897389E+03 0.  0.
          2    1    1    2  501    0  0.37635765418E+02  0.21370243193E+03 -0.14068684447E+04  0.14235041275E+04  0.00000000000E+00 0. -1.
          1    1    1    2  502    0  0.21282089375E+02 -0.14589967968E+02  0.17804799581E+03  0.17990798566E+03  0.00000000000E+00 0. -1.
         22    1    3    3    0    0 -0.46628975008E+01 -0.15588544041E+03 -0.70478718382E+02  0.17114106138E+03  0.00000000000E+00 0.  1.
         22    1    3    3    0    0 -0.54254957291E+02 -0.43227023555E+02  0.28206071341E+02  0.74884967895E+02  0.00000000000E+00 0.  1.
</event>
<event>
 7    1  0.6315518E-006  0.6660929E+02  0.7818608E-02  0.1381540E+00
          2   -1    0    0  502    0  0.00000000000E+00  0.00000000000E+00  0.33761307814E+04  0.33761307814E+04  0.00000000000E+00 0. -1.
          1   -1    0    0  501    0 -0.00000000000E+00 -0.00000000000E+00 -0.15741055904E+03  0.15741055904E+03  0.00000000000E+00 0. -1.
         25    2    1    2    0    0 -0.82081585305E+02 -0.84966746615E+02  0.74130227524E+02  0.18729367172E+03  0.12500757640E+03 0.  0.
          2    1    1    2  501    0  0.27216207891E+02  0.56939424386E+02 -0.90631540572E+02  0.11043955889E+03  0.00000000000E+00 0. -1.
          1    1    1    2  502    0  0.54865377414E+02  0.28027322229E+02  0.32352215354E+04  0.32358081098E+04  0.00000000000E+00 0. -1.
         22    1    3    3    0    0 -0.38482191261E+02 -0.60697601356E+02 -0.25180278995E+02  0.76151981622E+02  0.00000000000E+00 0. -1.
         22    1    3    3    0    0 -0.43599394043E+02 -0.24269145259E+02  0.99310506519E+02  0.11114169010E+03  0.00000000000E+00 0. -1.
</event>
<event>
 7    1  0.6315518E-006  0.1780876E+03  0.7818608E-02  0.1252853E+00
          2   -1    0    0  502    0  0.00000000000E+00  0.00000000000E+00  0.13266760097E+04  0.13266760097E+04  0.00000000000E+00 0. -1.
          1   -1    0    0  501    0 -0.00000000000E+00 -0.00000000000E+00 -0.13715403801E+03  0.13715403801E+03  0.00000000000E+00 0. -1.
         25    2    1    2    0    0  0.12450159037E+03 -0.15322160206E+03  0.38520573786E+03  0.45053983627E+03  0.12500071296E+03 0.  0.
          2    1    1    2  501    0 -0.52810206166E+02  0.16862353540E+03 -0.26996152407E+02  0.17875012395E+03  0.00000000000E+00 0. -1.
          1    1    1    2  502    0 -0.71691384200E+02 -0.15401933341E+02  0.83131238626E+03  0.83454008752E+03  0.00000000000E+00 0. -1.
         22    1    3    3    0    0 -0.10321013203E+02 -0.61609502003E+02  0.59243312795E+02  0.86093113322E+02  0.00000000000E+00 0.  1.
         22    1    3    3    0    0  0.13482260357E+03 -0.91612100055E+02  0.32596242507E+03  0.36444672294E+03  0.00000000000E+00 0.  1.
</event>
<event>
 7    1  0.6315518E-006  0.1002882E+03  0.7818608E-02  0.1314257E+00
          2   -1    0    0  502    0  0.00000000000E+00  0.00000000000E+00  0.90182317402E+03  0.90182317402E+03  0.00000000000E+00 0. -1.
          1   -1    0    0  501    0 -0.00000000000E+00 -0.00000000000E+00 -0.35319540727E+03  0.35319540727E+03  0.00000000000E+00 0. -1.
         25    2    1    2    0    0 -0.73538386244E+02  0.30548050759E+02 -0.17276842532E+02  0.14921297212E+03  0.12499977642E+03 0.  0.
          2    1    1    2  501    0  0.35033499853E+02  0.63826317760E+02 -0.26185770174E+03  0.27179146586E+03  0.00000000000E+00 0. -1.
          1    1    1    2  502    0  0.38504886390E+02 -0.94374368519E+02  0.82776231102E+03  0.83401414332E+03  0.00000000000E+00 0. -1.
         22    1    3    3    0    0  0.85551371674E+01  0.47994806881E+02  0.25495166526E+02  0.55015410347E+02  0.00000000000E+00 0. -1.
         22    1    3    3    0    0 -0.82093523411E+02 -0.17446756122E+02 -0.42772009058E+02  0.94197561773E+02  0.00000000000E+00 0. -1.
</event>
<event>
 7    1  0.6315518E-006  0.5853459E+02  0.7818608E-02  0.1431229E+00
          2   -1    0    0  502    0  0.00000000000E+00  0.00000000000E+00  0.22347592022E+04  0.22347592022E+04  0.00000000000E+00 0. -1.
          1   -1    0    0  501    0 -0.00000000000E+00 -0.00000000000E+00 -0.96636218307E+02  0.96636218307E+02  0.00000000000E+00 0. -1.
         25    2    1    2    0    0 -0.34977677516E+02  0.13037307804E+02  0.14167277688E+03  0.19258668671E+03  0.12500018747E+03 0.  0.
          2    1    1    2  501    0 -0.14684216603E+02 -0.45144220055E+02 -0.62791974975E+02  0.78717589793E+02  0.00000000000E+00 0. -1.
          1    1    1    2  502    0  0.49661894119E+02  0.32106912251E+02  0.20592421820E+04  0.20600911440E+04  0.00000000000E+00 0. -1.
         22    1    3    3    0    0  0.32507544852E+02  0.33682325047E+02  0.10053705858E+03  0.11090058449E+03  0.00000000000E+00 0. -1.
         22    1    3    3    0    0 -0.67485222368E+02 -0.20645017244E+02  0.41135718303E+02  0.81686102216E+02  0.00000000000E+00 0. -1.
</event>
<event>
 7    1  0.6315518E-006  0.9357004E+02  0.7818608E-02  0.1477511E+00
          2   -1    0    0  502    0  0.00000000000E+00  0.00000000000E+00  0.10574395518E+04  0.10574395518E+04  0.00000000000E+00 0. -1.
          1   -1    0    0  501    0 -0.00000000000E+00 -0.00000000000E+00 -0.24836701104E+02  0.24836701104E+02  0.00000000000E+00 0. -1.
         25    2    1    2    0    0 -0.66893104133E+02  0.68393683422E+02  0.61890597783E+03  0.63860915719E+03  0.12499865175E+03 0.  0.
          2    1    1    2  501    0  0.78562476836E+02 -0.50742690475E+02  0.13536090455E+03  0.16452798511E+03  0.00000000000E+00 0. -1.
          1    1    1    2  502    0 -0.11669372704E+02 -0.17650992946E+02  0.27833596835E+03  0.27913911064E+03  0.00000000000E+00 0. -1.
         22    1    3    3    0    0 -0.91172393197E+02  0.35877285828E+02  0.54985901206E+03  0.55851993524E+03  0.00000000000E+00 0. -1.
         22    1    3    3    0    0  0.24279289064E+02  0.32516397593E+02  0.69046965772E+02  0.80089221948E+02  0.00000000000E+00 0. -1.
</event>
<event>
 7    1  0.6315518E-006  0.3887466E+02  0.7818608E-02  0.1564138E+00
          2   -1    0    0  502    0  0.00000000000E+00  0.00000000000E+00  0.35220685697E+03  0.35220685697E+03  0.00000000000E+00 0. -1.
          1   -1    0    0  501    0 -0.00000000000E+00 -0.00000000000E+00 -0.10828608936E+04  0.10828608936E+04  0.00000000000E+00 0. -1.
         25    2    1    2    0    0  0.47765599341E+02 -0.13815656390E+02 -0.49159002236E+02  0.14322422117E+03  0.12499658070E+03 0.  0.
          2    1    1    2  501    0 -0.24415427600E+02  0.30230442765E+02 -0.98561820009E+03  0.98638391569E+03  0.00000000000E+00 0. -1.
          1    1    1    2  502    0 -0.23350171740E+02 -0.16414786375E+02  0.30412316567E+03  0.30545961374E+03  0.00000000000E+00 0. -1.
         22    1    3    3    0    0 -0.91691187567E+01  0.29642953582E+02 -0.63043261881E+02  0.70265427519E+02  0.00000000000E+00 0. -1.
         22    1    3    3    0    0  0.56934718097E+02 -0.43458609971E+02  0.13884259645E+02  0.72958793654E+02  0.00000000000E+00 0. -1.
</event>
<event>
 7    1  0.6315518E-006  0.4815735E+02  0.7818608E-02  0.1460433E+00
          2   -1    0    0  502    0  0.00000000000E+00  0.00000000000E+00  0.15491317747E+03  0.15491317747E+03  0.00000000000E+00 0. -1.
          1   -1    0    0  501    0 -0.00000000000E+00 -0.00000000000E+00 -0.14077602564E+04  0.14077602564E+04  0.00000000000E+00 0. -1.
         25    2    1    2    0    0  0.12892675344E+02 -0.17514422059E+02 -0.92586891123E+03  0.93452153632E+03  0.12499714001E+03 0.  0.
          2    1    1    2  501    0 -0.59757217223E+02  0.64308916982E+01 -0.47175895114E+03  0.47557206537E+03  0.00000000000E+00 0. -1.
          1    1    1    2  502    0  0.46864541879E+02  0.11083530361E+02  0.14478078344E+03  0.15257983217E+03  0.00000000000E+00 0. -1.
         22    1    3    3    0    0  0.46011664914E+02 -0.58317272290E+02 -0.55370543944E+03  0.55866599254E+03  0.00000000000E+00 0.  1.
         22    1    3    3    0    0 -0.33118989570E+02  0.40802850231E+02 -0.37216347178E+03  0.37585554378E+03  0.00000000000E+00 0.  1.
</event>
<event>
 7    1  0.6315518E-006  0.3891084E+02  0.7818608E-02  0.1544298E+00
          2   -1    0    0  502    0  0.00000000000E+00  0.00000000000E+00  0.13687992538E+02  0.13687992538E+02  0.00000000000E+00 0. -1.
          1   -1    0    0  501    0 -0.00000000000E+00 -0.00000000000E+00 -0.17785198647E+04  0.17785198647E+04  0.00000000000E+00 0. -1.
         25    2    1    2    0    0 -0.14984380548E+02  0.87508822366E+01 -0.37977240259E+03  0.40019234545E+03  0.12500290390E+03 0.  0.
          2    1    1    2  501    0 -0.22748447181E+02  0.23026831564E+02 -0.12016999329E+04  0.12021357892E+04  0.00000000000E+00 0. -1.
          1    1    1    2  502    0  0.37732827729E+02 -0.31777713800E+02 -0.18335953667E+03  0.18987972264E+03  0.00000000000E+00 0. -1.
         22    1    3    3    0    0 -0.52195298924E+02  0.38228633838E+02 -0.12208259521E+03  0.13816634079E+03  0.00000000000E+00 0.  1.
         22    1    3    3    0    0  0.37210918375E+02 -0.29477751601E+02 -0.25768980738E+03  0.26202600466E+03  0.00000000000E+00 0.  1.
</event>
<event>
 7    1  0.6315518E-006  0.5059784E+02  0.7818608E-02  0.1463750E+00
          2   -1    0    0  502    0  0.00000000000E+00  0.00000000000E+00  0.18500788304E+02  0.18500788304E+02  0.00000000000E+00 0. -1.
          1   -1    0    0  501    0 -0.00000000000E+00 -0.00000000000E+00 -0.22634669901E+04  0.22634669901E+04  0.00000000000E+00 0. -1.
         25    2    1    2    0    0  0.49785930366E+01 -0.10160170365E+02 -0.12065388158E+04  0.12130492755E+04  0.12499846110E+03 0.  0.
          2    1    1    2  501    0 -0.11681005173E+02 -0.41570346035E+02 -0.10071950824E+04  0.10081202674E+04  0.00000000000E+00 0. -1.
          1    1    1    2  502    0  0.67024121363E+01  0.51730516400E+02 -0.31232303637E+02  0.60798235549E+02  0.00000000000E+00 0. -1.
         22    1    3    3    0    0 -0.51301136472E+02 -0.36453435863E+02 -0.55546615719E+03  0.55901995615E+03  0.00000000000E+00 0. -1.
         22    1    3    3    0    0  0.56279729509E+02  0.26293265498E+02 -0.65107265857E+03  0.65402931930E+03  0.00000000000E+00 0. -1.
</event>
<event>
 7    1  0.6315518E-006  0.4524326E+02  0.7818608E-02  0.1551519E+00
          2   -1    0    0  502    0  0.00000000000E+00  0.00000000000E+00  0.22472314759E+03  0.22472314759E+03  0.00000000000E+00 0. -1.
          1   -1    0    0  501    0 -0.00000000000E+00 -0.00000000000E+00 -0.36838256791E+03  0.36838256791E+03  0.00000000000E+00 0. -1.
         25    2    1    2    0    0  0.19989355159E+02 -0.74629390109E+01 -0.12983388637E+03  0.18151858885E+03  0.12504755203E+03 0.  0.
          2    1    1    2  501    0 -0.46092524697E+02  0.12438062770E+02 -0.20911631076E+03  0.21449675444E+03  0.00000000000E+00 0. -1.
          1    1    1    2  502    0  0.26103169538E+02 -0.49751237595E+01  0.19529077680E+03  0.19709037222E+03  0.00000000000E+00 0. -1.
         22    1    3    3    0    0 -0.54638215942E+01  0.37596405672E+00  0.24397465429E+02  0.25004619868E+02  0.00000000000E+00 0.  1.
         22    1    3    3    0    0  0.25453176753E+02 -0.78389030676E+01 -0.15423135180E+03  0.15651396898E+03  0.00000000000E+00 0.  1.
</event>
<event>
 7    1  0.6315518E-006  0.1010829E+03  0.7818608E-02  0.1452686E+00
          2   -1    0    0  502    0  0.00000000000E+00  0.00000000000E+00  0.11212000583E+03  0.11212000583E+03  0.00000000000E+00 0. -1.
          1   -1    0    0  501    0 -0.00000000000E+00 -0.00000000000E+00 -0.12656536706E+04  0.12656536706E+04  0.00000000000E+00 0. -1.
         25    2    1    2    0    0 -0.70632612876E+02 -0.91500900685E+02 -0.28873519173E+03  0.33519309085E+03  0.12500006551E+03 0.  0.
          2    1    1    2  501    0  0.72629203149E+02  0.68158398501E+02 -0.94949438096E+03  0.95470422012E+03  0.00000000000E+00 0. -1.
          1    1    1    2  502    0 -0.19965902729E+01  0.23342502185E+02  0.84695907944E+02  0.87876365442E+02  0.00000000000E+00 0. -1.
         22    1    3    3    0    0 -0.81297250578E+02 -0.11820223556E+02 -0.95929873271E+02  0.12629925266E+03  0.00000000000E+00 0.  1.
         22    1    3    3    0    0  0.10664637702E+02 -0.79680677130E+02 -0.19280531846E+03  0.20889383819E+03  0.00000000000E+00 0.  1.
</event>
<event>
 7    1  0.6315518E-006  0.9775169E+02  0.7818608E-02  0.1390649E+00
          2   -1    0    0  502    0  0.00000000000E+00  0.00000000000E+00  0.27689519984E+04  0.27689519984E+04  0.00000000000E+00 0. -1.
          1   -1    0    0  501    0 -0.00000000000E+00 -0.00000000000E+00 -0.67201653078E+03  0.67201653078E+03  0.00000000000E+00 0. -1.
         25    2    1    2    0    0 -0.71619367309E+02 -0.35548724366E+02 -0.81427850204E+02  0.16925593934E+03  0.12499613048E+03 0.  0.
          2    1    1    2  501    0 -0.26080678588E+02  0.28999130285E+02 -0.54509801250E+03  0.54649153204E+03  0.00000000000E+00 0. -1.
          1    1    1    2  502    0  0.97700045896E+02  0.65495940813E+01  0.27234613304E+04  0.27252210579E+04  0.00000000000E+00 0. -1.
         22    1    3    3    0    0  0.97238443111E+01 -0.44382016937E+02 -0.74344136390E+02  0.87128452248E+02  0.00000000000E+00 0. -1.
         22    1    3    3    0    0 -0.81343211620E+02  0.88332925707E+01 -0.70837138140E+01  0.82127487090E+02  0.00000000000E+00 0. -1.
</event>
<event>
 7    1  0.6315518E-006  0.8333888E+02  0.7818608E-02  0.1476714E+00
          2   -1    0    0  502    0  0.00000000000E+00  0.00000000000E+00  0.47729166839E+03  0.47729166839E+03  0.00000000000E+00 0. -1.
          1   -1    0    0  501    0 -0.00000000000E+00 -0.00000000000E+00 -0.14075838918E+03  0.14075838918E+03  0.00000000000E+00 0. -1.
         25    2    1    2    0    0 -0.35113885152E+02  0.80991978678E+02  0.21289029084E+03  0.26218362242E+03  0.12500116157E+03 0.  0.
          2    1    1    2  501    0  0.52482677751E+02 -0.64585962447E+02 -0.10048291584E+03  0.13047066485E+03  0.00000000000E+00 0. -1.
          1    1    1    2  502    0 -0.17368792599E+02 -0.16406016232E+02  0.22412590422E+03  0.22539577030E+03  0.00000000000E+00 0. -1.
         22    1    3    3    0    0 -0.22294269604E+02  0.11476049645E+03  0.16337385659E+03  0.20089306364E+03  0.00000000000E+00 0. -1.
         22    1    3    3    0    0 -0.12819615548E+02 -0.33768517773E+02  0.49516434245E+02  0.61290558781E+02  0.00000000000E+00 0. -1.
</event>
<event>
 7    1  0.6315518E-006  0.8533113E+02  0.7818608E-02  0.1435115E+00
          2   -1    0    0  502    0  0.00000000000E+00  0.00000000000E+00  0.13244042458E+04  0.13244042458E+04  0.00000000000E+00 0. -1.
          1   -1    0    0  501    0 -0.00000000000E+00 -0.00000000000E+00 -0.48610458422E+03  0.48610458422E+03  0.00000000000E+00 0. -1.
         25    2    1    2    0    0 -0.84405707059E+02  0.41910389879E+02 -0.19492726804E+02  0.15775443930E+03  0.12500277019E+03 0.  0.
          2    1    1    2  501    0  0.59240239145E+02 -0.61060907924E+02 -0.39272649850E+03  0.40183571647E+03  0.00000000000E+00 0. -1.
          1    1    1    2  502    0  0.25165467913E+02  0.19150518045E+02  0.12505188869E+04  0.12509186743E+04  0.00000000000E+00 0. -1.
         22    1    3    3    0    0 -0.12742718571E+02  0.31441358803E+01  0.49363966474E+02  0.51078994244E+02  0.00000000000E+00 0. -1.
         22    1    3    3    0    0 -0.71662988488E+02  0.38766253999E+02 -0.68856693277E+02  0.10667544505E+03  0.00000000000E+00 0. -1.
</event>
<event>
 7    1  0.6315518E-006  0.2715384E+03  0.7818608E-02  0.1294391E+00
          2   -1    0    0  502    0  0.00000000000E+00  0.00000000000E+00  0.35085214501E+04  0.35085214501E+04  0.00000000000E+00 0. -1.
          1   -1    0    0  501    0 -0.00000000000E+00 -0.00000000000E+00 -0.60313156556E+03  0.60313156556E+03  0.00000000000E+00 0. -1.
         25    2    1    2    0    0 -0.25284919442E+02 -0.25701255496E+03  0.13303343481E+04  0.13609226091E+04  0.12500435877E+03 0.  0.
          2    1    1    2  501    0  0.56262539911E+02  0.26599973938E+03 -0.55627104940E+03  0.61915976545E+03  0.00000000000E+00 0. -1.
          1    1    1    2  502    0 -0.30977620469E+02 -0.89871844187E+01  0.21313265858E+04  0.21315706410E+04  0.00000000000E+00 0. -1.
         22    1    3    3    0    0  0.45291758546E+02 -0.12943316158E+03  0.75834650245E+03  0.77064499252E+03  0.00000000000E+00 0.  1.
         22    1    3    3    0    0 -0.70576677988E+02 -0.12757939338E+03  0.57198784568E+03  0.59027761663E+03  0.00000000000E+00 0.  1.
</event>
<event>
 7    1  0.6315518E-006  0.8485395E+02  0.7818608E-02  0.1388105E+00
          2   -1    0    0  502    0  0.00000000000E+00  0.00000000000E+00  0.21116414934E+03  0.21116414934E+03  0.00000000000E+00 0. -1.
          1   -1    0    0  501    0 -0.00000000000E+00 -0.00000000000E+00 -0.71409099963E+03  0.71409099963E+03  0.00000000000E+00 0. -1.
         25    2    1    2    0    0 -0.22567226294E+02  0.50743268072E+02 -0.14727380282E+03  0.20099695929E+03  0.12500418269E+03 0.  0.
          2    1    1    2  501    0  0.67736723595E+02 -0.58665242994E+02 -0.53330586333E+03  0.54078185835E+03  0.00000000000E+00 0. -1.
          1    1    1    2  502    0 -0.45169497301E+02  0.79219749223E+01  0.17765281586E+03  0.18347633132E+03  0.00000000000E+00 0. -1.
         22    1    3    3    0    0  0.48516355829E+02  0.41962596282E+02 -0.57436112807E+02  0.86102284081E+02  0.00000000000E+00 0. -1.
         22    1    3    3    0    0 -0.71083582122E+02  0.87806717896E+01 -0.89837690015E+02  0.11489467521E+03  0.00000000000E+00 0. -1.
</event>
<event>
 7    1  0.6315518E-006  0.4392687E+02  0.7818608E-02  0.1509483E+00
          2   -1    0    0  502    0  0.00000000000E+00  0.00000000000E+00  0.12787088962E+04  0.12787088962E+04  0.00000000000E+00 0. -1.
          1   -1    0    0  501    0 -0.00000000000E+00 -0.00000000000E+00 -0.93842433604E+03  0.93842433604E+03  0.00000000000E+00 0. -1.
         25    2    1    2    0    0 -0.52646844548E+02  0.54214805087E+02  0.67995272903E+01  0.14622965710E+03  0.12500377479E+03 0.  0.
          2    1    1    2  501    0  0.14273735187E+02 -0.33170236343E+02 -0.86793539699E+03  0.86868628252E+03  0.00000000000E+00 0. -1.
          1    1    1    2  502    0  0.38373109362E+02 -0.21044568744E+02  0.12014204298E+04  0.12022172926E+04  0.00000000000E+00 0. -1.
         22    1    3    3    0    0 -0.26431869624E+01  0.35567115078E+02  0.60684958127E+02  0.70389418631E+02  0.00000000000E+00 0.  1.
         22    1    3    3    0    0 -0.50003657586E+02  0.18647690009E+02 -0.53885430837E+02  0.75840238470E+02  0.00000000000E+00 0.  1.
</event>
<event>
 7    1  0.6315518E-006  0.9596708E+02  0.7818608E-02  0.1357384E+00
          2   -1    0    0  502    0  0.00000000000E+00  0.00000000000E+00  0.10309389648E+04  0.10309389648E+04  0.00000000000E+00 0. -1.
          1   -1    0    0  501    0 -0.00000000000E+00 -0.00000000000E+00 -0.39599803876E+02  0.39599803876E+02  0.00000000000E+00 0. -1.
         25    2    1    2    0    0  0.46934402753E+02 -0.84505004022E+02  0.68811503519E+03  0.70602704348E+03  0.12501180184E+03 0.  0.
          2    1    1    2  501    0 -0.84595913418E+02  0.48306311016E+02  0.57126090154E+02  0.11293076829E+03  0.00000000000E+00 0. -1.
          1    1    1    2  502    0  0.37661510665E+02  0.36198693006E+02  0.24609803557E+03  0.25158095689E+03  0.00000000000E+00 0. -1.
         22    1    3    3    0    0  0.14995069326E+02 -0.77755315349E+02  0.65412037101E+03  0.65889619891E+03  0.00000000000E+00 0.  1.
         22    1    3    3    0    0  0.31939333427E+02 -0.67496886730E+01  0.33994664186E+02  0.47130844571E+02  0.00000000000E+00 0.  1.
</event>
<event>
 7    1  0.6315518E-006  0.6650029E+02  0.7818608E-02  0.1439675E+00
          2   -1    0    0  502    0  0.00000000000E+00  0.00000000000E+00  0.17832294960E+04  0.17832294960E+04  0.00000000000E+00 0. -1.
          1   -1    0    0  501    0 -0.00000000000E+00 -0.00000000000E+00 -0.24937608148E+03  0.24937608148E+03  0.00000000000E+00 0. -1.
         25    2    1    2    0    0 -0.19379510146E+01  0.99241081864E+02  0.71288941404E+03  0.73054013321E+03  0.12500008638E+03 0.  0.
          2    1    1    2  501    0 -0.15979760316E+02 -0.64359831216E+02 -0.23560978992E+03  0.24476420025E+03  0.00000000000E+00 0. -1.
          1    1    1    2  502    0  0.17917711331E+02 -0.34881250648E+02  0.10565737904E+04  0.10573012440E+04  0.00000000000E+00 0. -1.
         22    1    3    3    0    0  0.43452195460E+02  0.81237279360E+02  0.60678197954E+03  0.61373606668E+03  0.00000000000E+00 0. -1.
         22    1    3    3    0    0 -0.45390146475E+02  0.18003802504E+02  0.10610743450E+03  0.11680406653E+03  0.00000000000E+00 0. -1.
</event>
<event>
 7    1  0.6315518E-006  0.6693947E+02  0.7818608E-02  0.1482560E+00
          2   -1    0    0  502    0  0.00000000000E+00  0.00000000000E+00  0.21068435743E+04  0.21068435743E+04  0.00000000000E+00 0. -1.
          1   -1    0    0  501    0 -0.00000000000E+00 -0.00000000000E+00 -0.49422179471E+02  0.49422179471E+02  0.00000000000E+00 0. -1.
         25    2    1    2    0    0  0.45924052619E+02 -0.32114682802E+02  0.97509844850E+02  0.16814678606E+03  0.12499920144E+03 0.  0.
          2    1    1    2  501    0 -0.73152933786E+02  0.23558263129E+02  0.91515536703E+02  0.11950496618E+03  0.00000000000E+00 0. -1.
          1    1    1    2  502    0  0.27228881167E+02  0.85564196738E+01  0.18683960132E+04  0.18686140015E+04  0.00000000000E+00 0. -1.
         22    1    3    3    0    0  0.75997757787E+01  0.57310664762E+01 -0.29067527801E+02  0.30586318629E+02  0.00000000000E+00 0. -1.
         22    1    3    3    0    0  0.38324276841E+02 -0.37845749278E+02  0.12657737265E+03  0.13756046743E+03  0.00000000000E+00 0. -1.
</event>
<event>
 7    1  0.6315518E-006  0.8120885E+02  0.7818608E-02  0.1333836E+00
          2   -1    0    0  502    0  0.00000000000E+00  0.00000000000E+00  0.88515821665E+03  0.88515821665E+03  0.00000000000E+00 0. -1.
          1   -1    0    0  501    0 -0.00000000000E+00 -0.00000000000E+00 -0.43869104503E+03  0.43869104503E+03  0.00000000000E+00 0. -1.
         25    2    1    2    0    0  0.90308129014E+02  0.89863982599E+02 -0.12073867347E+03  0.21548898586E+03  0.12500632873E+03 0.  0.
          2    1    1    2  501    0 -0.74843947436E+02 -0.10434496696E+02 -0.26329587562E+03  0.27392556162E+03  0.00000000000E+00 0. -1.
          1    1    1    2  502    0 -0.15464181578E+02 -0.79429485903E+02  0.83050172071E+03  0.83443471419E+03  0.00000000000E+00 0. -1.
         22    1    3    3    0    0  0.88391448478E+02  0.96692916098E+02 -0.43667410662E+02  0.13809203794E+03  0.00000000000E+00 0. -1.
         22    1    3    3    0    0  0.19166805360E+01 -0.68289334991E+01 -0.77071262812E+02  0.77396947928E+02  0.00000000000E+00 0. -1.
</event>
<event>
 7    1  0.6315518E-006  0.6013228E+02  0.7818608E-02  0.1441439E+00
          2   -1    0    0  502    0  0.00000000000E+00  0.00000000000E+00  0.10598954267E+04  0.10598954267E+04  0.00000000000E+00 0. -1.
          1   -1    0    0  501    0 -0.00000000000E+00 -0.00000000000E+00 -0.21923947057E+03  0.21923947057E+03  0.00000000000E+00 0. -1.
         25    2    1    2    0    0  0.20083893021E+02  0.30792486314E+02 -0.15451025793E+03  0.20211365207E+03  0.12499987430E+03 0.  0.
          2    1    1    2  501    0  0.38840096995E+02 -0.17978819079E+02 -0.28603172164E+02  0.51477495353E+02  0.00000000000E+00 0. -1.
          1    1    1    2  502    0 -0.58923990016E+02 -0.12813667234E+02  0.10237693862E+04  0.10255437498E+04  0.00000000000E+00 0. -1.
         22    1    3    3    0    0  0.16303890830E+02  0.73249378527E+02 -0.52578455132E+02  0.91628501324E+02  0.00000000000E+00 0. -1.
         22    1    3    3    0    0  0.37800021913E+01 -0.42456892213E+02 -0.10193180280E+03  0.11048515074E+03  0.00000000000E+00 0. -1.
</event>
<event>
 7    1  0.6315518E-006  0.3473110E+02  0.7818608E-02  0.1591029E+00
          2   -1    0    0  502    0  0.00000000000E+00  0.00000000000E+00  0.38025101614E+01  0.38025101614E+01  0.00000000000E+00 0. -1.
          1   -1    0    0  501    0 -0.00000000000E+00 -0.00000000000E+00 -0.32332214251E+04  0.32332214251E+04  0.00000000000E+00 0. -1.
         25    2    1    2    0    0  0.89207139264E+01  0.48440237666E+02 -0.21827146011E+04  0.21868455811E+04  0.12499811893E+03 0.  0.
          2    1    1    2  501    0 -0.22319601309E+02 -0.24946624868E+02 -0.92050633640E+03  0.92111476704E+03  0.00000000000E+00 0. -1.
          1    1    1    2  502    0  0.13398887382E+02 -0.23493612798E+02 -0.12619797736E+03  0.12906358710E+03  0.00000000000E+00 0. -1.
         22    1    3    3    0    0 -0.49117815343E+02  0.16799574182E+02 -0.47043151741E+03  0.47328701445E+03  0.00000000000E+00 0. -1.
         22    1    3    3    0    0  0.58038529269E+02  0.31640663485E+02 -0.17122830837E+04  0.17135585666E+04  0.00000000000E+00 0. -1.
</event>
<event>
 7    1  0.6315518E-006  0.1600490E+03  0.7818608E-02  0.1337259E+00
          2   -1    0    0  502    0  0.00000000000E+00  0.00000000000E+00  0.10719503603E+04  0.10719503603E+04  0.00000000000E+00 0. -1.
          1   -1    0    0  501    0 -0.00000000000E+00 -0.00000000000E+00 -0.68217141745E+03  0.68217141745E+03  0.00000000000E+00 0. -1.
         25    2    1    2    0    0 -0.82699297253E+02  0.15023983085E+03 -0.31719151721E+03  0.38163958806E+03  0.12500854390E+03 0.  0.
          2    1    1    2  501    0 -0.22404452836E+02 -0.29715914219E+02 -0.32554050038E+03  0.32766081922E+03  0.00000000000E+00 0. -1.
          1    1    1    2  502    0  0.10510375009E+03 -0.12052391663E+03  0.10325109605E+04  0.10448213705E+04  0.00000000000E+00 0. -1.
         22    1    3    3    0    0 -0.57803404282E+02  0.17245690238E+02 -0.37737268825E+02  0.71152995979E+02  0.00000000000E+00 0. -1.
         22    1    3    3    0    0 -0.24895892970E+02  0.13299414061E+03 -0.27945424838E+03  0.31048659208E+03  0.00000000000E+00 0. -1.
</event>
<event>
 7    1  0.6315518E-006  0.6600349E+02  0.7818608E-02  0.1428480E+00
          2   -1    0    0  502    0  0.00000000000E+00  0.00000000000E+00  0.42524154287E+03  0.42524154287E+03  0.00000000000E+00 0. -1.
          1   -1    0    0  501    0 -0.00000000000E+00 -0.00000000000E+00 -0.21105459391E+03  0.21105459391E+03  0.00000000000E+00 0. -1.
         25    2    1    2    0    0 -0.19073887576E+02  0.25446922783E+02 -0.10967016200E+02  0.12945260136E+03  0.12500536583E+03 0.  0.
          2    1    1    2  501    0  0.10371509845E+02  0.41717193482E+02 -0.13432741560E+03  0.14103810489E+03  0.00000000000E+00 0. -1.
          1    1    1    2  502    0  0.87023777318E+01 -0.67164116265E+02  0.35948138077E+03  0.36580543054E+03  0.00000000000E+00 0. -1.
         22    1    3    3    0    0 -0.19435844271E+01 -0.50042084597E+02 -0.13951471980E+02  0.51986837966E+02  0.00000000000E+00 0.  1.
         22    1    3    3    0    0 -0.17130303149E+02  0.75489007380E+02  0.29844557803E+01  0.77465763390E+02  0.00000000000E+00 0.  1.
</event>
<event>
 7    1  0.6315518E-006  0.7290842E+02  0.7818608E-02  0.1435785E+00
          2   -1    0    0  502    0  0.00000000000E+00  0.00000000000E+00  0.17118830956E+04  0.17118830956E+04  0.00000000000E+00 0. -1.
          1   -1    0    0  501    0 -0.00000000000E+00 -0.00000000000E+00 -0.76389141860E+03  0.76389141860E+03  0.00000000000E+00 0. -1.
         25    2    1    2    0    0 -0.42823280319E+02 -0.46107341160E+02 -0.49191226977E+03  0.51143157764E+03  0.12499942885E+03 0.  0.
          2    1    1    2  501    0  0.76234805783E+02  0.30621732940E+02 -0.25557973476E+03  0.26845937674E+03  0.00000000000E+00 0. -1.
          1    1    1    2  502    0 -0.33411525464E+02  0.15485608220E+02  0.16954836815E+04  0.16958835598E+04  0.00000000000E+00 0. -1.
         22    1    3    3    0    0  0.21464254448E+01 -0.12264404561E+02  0.34200920620E+01  0.12912001825E+02  0.00000000000E+00 0. -1.
         22    1    3    3    0    0 -0.44969705764E+02 -0.33842936599E+02 -0.49533236183E+03  0.49851957581E+03  0.00000000000E+00 0. -1.
</event>
<event>
 7    1  0.6315518E-006  0.4736904E+02  0.7818608E-02  0.1462938E+00
          2   -1    0    0  502    0  0.00000000000E+00  0.00000000000E+00  0.22988987961E+04  0.22988987961E+04  0.00000000000E+00 0. -1.
          1   -1    0    0  501    0 -0.00000000000E+00 -0.00000000000E+00 -0.45585093998E+02  0.45585093998E+02  0.00000000000E+00 0. -1.
         25    2    1    2    0    0 -0.28035767109E+00 -0.12676859791E+02  0.58295929813E+03  0.59634372546E+03  0.12499405683E+03 0.  0.
          2    1    1    2  501    0 -0.47303080044E+02  0.24989243338E+01 -0.23989766428E+02  0.53097409520E+02  0.00000000000E+00 0. -1.
          1    1    1    2  502    0  0.47583437715E+02  0.10177935457E+02  0.16943441704E+04  0.16950427551E+04  0.00000000000E+00 0. -1.
         22    1    3    3    0    0  0.45005617692E+02 -0.38703311991E+02  0.44293583938E+03  0.44689552447E+03  0.00000000000E+00 0.  1.
         22    1    3    3    0    0 -0.45285975363E+02  0.26026452200E+02  0.14002345875E+03  0.14944820099E+03  0.00000000000E+00 0.  1.
</event>
<event>
 7    1  0.6315518E-006  0.8322718E+02  0.7818608E-02  0.1368732E+00
          2   -1    0    0  502    0  0.00000000000E+00  0.00000000000E+00  0.27356503436E+03  0.27356503436E+03  0.00000000000E+00 0. -1.
          1   -1    0    0  501    0 -0.00000000000E+00 -0.00000000000E+00 -0.41547034581E+03  0.41547034581E+03  0.00000000000E+00 0. -1.
         25    2    1    2    0    0  0.63145254505E+02 -0.97030250443E+02  0.25985344526E+02  0.17234117530E+03  0.12499619956E+03 0.  0.
          2    1    1    2  501    0 -0.70151475013E+02  0.42701561638E+02 -0.33287365476E+03  0.34285495890E+03  0.00000000000E+00 0. -1.
          1    1    1    2  502    0  0.70062205085E+01  0.54328688805E+02  0.16498299878E+03  0.17383924597E+03  0.00000000000E+00 0. -1.
         22    1    3    3    0    0 -0.12737924634E+02 -0.91711926783E+02  0.21218457576E+01  0.92616599309E+02  0.00000000000E+00 0. -1.
         22    1    3    3    0    0  0.75883179138E+02 -0.53183236608E+01  0.23863498768E+02  0.79724575986E+02  0.00000000000E+00 0. -1.
</event>
<event>
 7    1  0.6315518E-006  0.1053391E+03  0.7818608E-02  0.1271416E+00
          2   -1    0    0  502    0  0.00000000000E+00  0.00000000000E+00  0.69996749415E+03  0.69996749415E+03  0.00000000000E+00 0. -1.
          1   -1    0    0  501    0 -0.00000000000E+00 -0.00000000000E+00 -0.14018078923E+04  0.14018078923E+04  0.00000000000E+00 0. -1.
         25    2    1    2    0    0  0.66867764715E+02  0.45177474954E-01 -0.65532966108E+03  0.67048707027E+03  0.12499858683E+03 0.  0.
          2    1    1    2  501    0 -0.11905721852E+03 -0.91546970009E+02 -0.72717457762E+03  0.74252160598E+03  0.00000000000E+00 0. -1.
          1    1    1    2  502    0  0.52189453803E+02  0.91501792534E+02  0.68066384060E+03  0.68876671016E+03  0.00000000000E+00 0. -1.
         22    1    3    3    0    0  0.75055242706E+01 -0.18081065405E+02 -0.53255844194E+03  0.53291814747E+03  0.00000000000E+00 0.  1.
         22    1    3    3    0    0  0.59362240445E+02  0.18126242880E+02 -0.12277121913E+03  0.13756892279E+03  0.00000000000E+00 0.  1.
</event>
<event>
 7    1  0.6315518E-006  0.1640219E+03  0.7818608E-02  0.1309783E+00
          2   -1    0    0  502    0  0.00000000000E+00  0.00000000000E+00  0.67473457175E+03  0.67473457175E+03  0.00000000000E+00 0. -1.
          1   -1    0    0  501    0 -0.00000000000E+00 -0.00000000000E+00 -0.60022737715E+03  0.60022737715E+03  0.00000000000E+00 0. -1.
         25    2    1    2    0    0  0.11810250675E+03  0.14674517389E+03  0.12609315104E+02  0.22642047919E+03  0.12499956163E+03 0.  0.
          2    1    1    2  501    0 -0.12625720161E+03 -0.10111161959E+03 -0.47904445920E+03  0.50561648951E+03  0.00000000000E+00 0. -1.
          1    1    1    2  502    0  0.81546948617E+01 -0.45633554307E+02  0.54094233870E+03  0.54292498020E+03  0.00000000000E+00 0. -1.
         22    1    3    3    0    0  0.20366469061E+01 -0.15921380722E+02  0.20980238261E+02  0.26416068825E+02  0.00000000000E+00 0.  1.
         22    1    3    3    0    0  0.11606585985E+03  0.16266655461E+03 -0.83709231570E+01  0.20000441037E+03  0.00000000000E+00 0.  1.
</event>
<event>
 7    1  0.6315518E-006  0.9818667E+02  0.7818608E-02  0.1381415E+00
          2   -1    0    0  502    0  0.00000000000E+00  0.00000000000E+00  0.16348695341E+04  0.16348695341E+04  0.00000000000E+00 0. -1.
          1   -1    0    0  501    0 -0.00000000000E+00 -0.00000000000E+00 -0.13671020702E+03  0.13671020702E+03  0.00000000000E+00 0. -1.
         25    2    1    2    0    0  0.25584921994E+01 -0.10144352285E+01  0.11082917115E+04  0.11153218041E+04  0.12499853623E+03 0.  0.
          2    1    1    2  501    0  0.46108029442E+02  0.86687201406E+02 -0.10960905904E+03  0.14715558804E+03  0.00000000000E+00 0. -1.
          1    1    1    2  502    0 -0.48666521641E+02 -0.85672766177E+02  0.49947667464E+03  0.50910234895E+03  0.00000000000E+00 0. -1.
         22    1    3    3    0    0 -0.60901059232E+02  0.53533623845E+01  0.56632176043E+03  0.56961209067E+03  0.00000000000E+00 0.  1.
         22    1    3    3    0    0  0.63459551431E+02 -0.63677976130E+01  0.54196995106E+03  0.54570971347E+03  0.00000000000E+00 0.  1.
</event>
<event>
 7    1  0.6315518E-006  0.9137759E+02  0.7818608E-02  0.1377101E+00
          2   -1    0    0  502    0  0.00000000000E+00  0.00000000000E+00  0.38647458547E+04  0.38647458547E+04  0.00000000000E+00 0. -1.
          1   -1    0    0  501    0 -0.00000000000E+00 -0.00000000000E+00 -0.14404986606E+03  0.14404986606E+03  0.00000000000E+00 0. -1.
         25    2    1    2    0    0 -0.31328986623E+02 -0.10270175666E+03  0.93572894020E+03  0.95012708190E+03  0.12499466392E+03 0.  0.
          2    1    1    2  501    0 -0.29872952226E+02  0.35722650169E+02 -0.13216353308E+03  0.14012744373E+03  0.00000000000E+00 0. -1.
          1    1    1    2  502    0  0.61201938850E+02  0.66979106496E+02  0.29171305815E+04  0.29185411951E+04  0.00000000000E+00 0. -1.
         22    1    3    3    0    0 -0.46905286589E+02 -0.12727392484E+03  0.77886204905E+03  0.79058513097E+03  0.00000000000E+00 0.  1.
         22    1    3    3    0    0  0.15576299966E+02  0.24572168172E+02  0.15686689114E+03  0.15954195093E+03  0.00000000000E+00 0.  1.
</event>
<event>
 7    1  0.6315518E-006  0.5563037E+02  0.7818608E-02  0.1433648E+00
          2   -1    0    0  502    0  0.00000000000E+00  0.00000000000E+00  0.20237552744E+03  0.20237552744E+03  0.00000000000E+00 0. -1.
          1   -1    0    0  501    0 -0.00000000000E+00 -0.00000000000E+00 -0.41917824558E+03  0.41917824558E+03  0.00000000000E+00 0. -1.
         25    2    1    2    0    0 -0.98259942184E+02  0.35191825113E+01 -0.12657621418E+03  0.20325720602E+03  0.12499821167E+03 0.  0.
          2    1    1    2  501    0  0.50569010201E+02 -0.14970175849E+02 -0.24775680006E+03  0.25330764484E+03  0.00000000000E+00 0. -1.
          1    1    1    2  502    0  0.47690931983E+02  0.11450993337E+02  0.15753029611E+03  0.16498892215E+03  0.00000000000E+00 0. -1.
         22    1    3    3    0    0 -0.12752761116E+03 -0.33913216556E+01 -0.11233906422E+03  0.16998487586E+03  0.00000000000E+00 0. -1.
         22    1    3    3    0    0  0.29267668981E+02  0.69105041669E+01 -0.14237149961E+02  0.33272330162E+02  0.00000000000E+00 0. -1.
</event>
<event>
 7    1  0.6315518E-006  0.9840303E+02  0.7818608E-02  0.1316635E+00
          2   -1    0    0  502    0  0.00000000000E+00  0.00000000000E+00  0.13467271472E+03  0.13467271472E+03  0.00000000000E+00 0. -1.
          1   -1    0    0  501    0 -0.00000000000E+00 -0.00000000000E+00 -0.11148007692E+04  0.11148007692E+04  0.00000000000E+00 0. -1.
         25    2    1    2    0    0  0.94973525008E+01 -0.10675459957E+03 -0.84621077425E+02  0.18513086691E+03  0.12500386756E+03 0.  0.
          2    1    1    2  501    0 -0.71456730326E+02  0.68851874327E+02 -0.96125985274E+03  0.96636801965E+03  0.00000000000E+00 0. -1.
          1    1    1    2  502    0  0.61959377825E+02  0.37902725242E+02  0.65752875643E+02  0.97974597405E+02  0.00000000000E+00 0. -1.
         22    1    3    3    0    0  0.74833430537E+01 -0.13113078146E+03 -0.45517344764E+02  0.13900759312E+03  0.00000000000E+00 0. -1.
         22    1    3    3    0    0  0.20140094471E+01  0.24376181892E+02 -0.39103732662E+02  0.46123273797E+02  0.00000000000E+00 0. -1.
</event>
<event>
 7    1  0.6315518E-006  0.1377436E+03  0.7818608E-02  0.1269631E+00
          2   -1    0    0  502    0  0.00000000000E+00  0.00000000000E+00  0.64051776275E+03  0.64051776275E+03  0.00000000000E+00 0. -1.
          1   -1    0    0  501    0 -0.00000000000E+00 -0.00000000000E+00 -0.29528965309E+03  0.29528965309E+03  0.00000000000E+00 0. -1.
         25    2    1    2    0    0 -0.57886764796E+02 -0.69706904396E+02  0.54434343070E+02  0.16370100376E+03  0.12499996347E+03 0.  0.
          2    1    1    2  501    0 -0.79403382487E+02  0.12742324035E+02 -0.22309818924E+03  0.23714988091E+03  0.00000000000E+00 0. -1.
          1    1    1    2  502    0  0.13729014728E+03  0.56964580361E+02  0.51389195584E+03  0.53495653116E+03  0.00000000000E+00 0. -1.
         22    1    3    3    0    0 -0.27159234846E+02 -0.99719199491E+02  0.61359615591E+02  0.12019378191E+03  0.00000000000E+00 0. -1.
         22    1    3    3    0    0 -0.30727529950E+02  0.30012295095E+02 -0.69252725214E+01  0.43507221851E+02  0.00000000000E+00 0. -1.
</event>
<event>
 7    1  0.6315518E-006  0.6428313E+02  0.7818608E-02  0.1461571E+00
          2   -1    0    0  502    0  0.00000000000E+00  0.00000000000E+00  0.25533634933E+03  0.25533634933E+03  0.00000000000E+00 0. -1.
          1   -1    0    0  501    0 -0.00000000000E+00 -0.00000000000E+00 -0.12893910874E+04  0.12893910874E+04  0.00000000000E+00 0. -1.
         25    2    1    2    0    0 -0.48722280659E+02  0.53969841432E+02 -0.27816904727E+03  0.31351082043E+03  0.12499764498E+03 0.  0.
          2    1    1    2  501    0  0.15248231870E+02 -0.62435070907E+02 -0.99125091023E+03  0.99333227758E+03  0.00000000000E+00 0. -1.
          1    1    1    2  502    0  0.33474048789E+02  0.84652294745E+01  0.23536521947E+03  0.23788433868E+03  0.00000000000E+00 0. -1.
         22    1    3    3    0    0  0.32009804081E+01 -0.14342991121E+02 -0.18968921474E+03  0.19025763022E+03  0.00000000000E+00 0.  1.
         22    1    3    3    0    0 -0.51923261067E+02  0.68312832554E+02 -0.88479832534E+02  0.12325319021E+03  0.00000000000E+00 0.  1.
</event>
<event>
 7    1  0.6315518E-006  0.1294666E+03  0.7818608E-02  0.1251855E+00
          2   -1    0    0  502    0  0.00000000000E+00  0.00000000000E+00  0.16893042729E+03  0.16893042729E+03  0.00000000000E+00 0. -1.
          1   -1    0    0  501    0 -0.00000000000E+00 -0.00000000000E+00 -0.10438428371E+04  0.10438428371E+04  0.00000000000E+00 0. -1.
         25    2    1    2    0    0  0.11496279857E+03  0.19522931685E+03 -0.74797992071E+02  0.26935296821E+03  0.12500140260E+03 0.  0.
          2    1    1    2  501    0 -0.66373938484E+02 -0.10569167119E+03 -0.82835690823E+03  0.83770603225E+03  0.00000000000E+00 0. -1.
          1    1    1    2  502    0 -0.48588860090E+02 -0.89537645664E+02  0.28242490541E+02  0.10571426388E+03  0.00000000000E+00 0. -1.
         22    1    3    3    0    0  0.80752609734E+02  0.75341350330E+02  0.20627752030E+02  0.11235126703E+03  0.00000000000E+00 0.  1.
         22    1    3    3    0    0  0.34210188840E+02  0.11988796652E+03 -0.95425744101E+02  0.15700170119E+03  0.00000000000E+00 0.  1.
</event>
<event>
 7    1  0.6315518E-006  0.2136752E+03  0.7818608E-02  0.1232066E+00
          2   -1    0    0  502    0  0.00000000000E+00  0.00000000000E+00  0.10251961109E+04  0.10251961109E+04  0.00000000000E+00 0. -1.
          1   -1    0    0  501    0 -0.00000000000E+00 -0.00000000000E+00 -0.12749393887E+04  0.12749393887E+04  0.00000000000E+00 0. -1.
         25    2    1    2    0    0  0.14638193802E+03  0.22441351806E+03 -0.56560355223E+03  0.63821458641E+03  0.12498552375E+03 0.  0.
          2    1    1    2  501    0 -0.11139166927E+03 -0.15760789551E+03 -0.65770596734E+03  0.68543817531E+03  0.00000000000E+00 0. -1.
          1    1    1    2  502    0 -0.34990268751E+02 -0.66805622555E+02  0.97356624176E+03  0.97648273780E+03  0.00000000000E+00 0. -1.
         22    1    3    3    0    0  0.49701782995E+02  0.22231292683E+01 -0.13845560056E+03  0.14712295152E+03  0.00000000000E+00 0.  1.
         22    1    3    3    0    0  0.96680155028E+02  0.22219038879E+03 -0.42714795167E+03  0.49109163490E+03  0.00000000000E+00 0.  1.
</event>
<event>
 7    1  0.6315518E-006  0.5195104E+02  0.7818608E-02  0.1445894E+00
          2   -1    0    0  502    0  0.00000000000E+00  0.00000000000E+00  0.90724271662E+03  0.90724271662E+03  0.00000000000E+00 0. -1.
          1   -1    0    0  501    0 -0.00000000000E+00 -0.00000000000E+00 -0.15110666175E+04  0.15110666175E+04  0.00000000000E+00 0. -1.
         25    2    1    2    0    0 -0.51702688284E+02  0.84591181416E+02 -0.27333571549E+03  0.31649129176E+03  0.12500195377E+03 0.  0.
          2    1    1    2  501    0  0.29545785649E+02 -0.37734667339E+02 -0.12149219403E+04  0.12158668428E+04  0.00000000000E+00 0. -1.
          1    1    1    2  502    0  0.22156902636E+02 -0.46856514076E+02  0.88443375485E+03  0.88595119954E+03  0.00000000000E+00 0. -1.
         22    1    3    3    0    0 -0.92575713604E+02  0.47580626067E+02 -0.16902314414E+03  0.19850189415E+03  0.00000000000E+00 0. -1.
         22    1    3    3    0    0  0.40873025320E+02  0.37010555348E+02 -0.10431257135E+03  0.11798939761E+03  0.00000000000E+00 0. -1.
</event>
<event>
 7    1  0.6315518E-006  0.8387869E+02  0.7818608E-02  0.1428554E+00
          2   -1    0    0  502    0  0.00000000000E+00  0.00000000000E+00  0.64354648907E+03  0.64354648907E+03  0.00000000000E+00 0. -1.
          1   -1    0    0  501    0 -0.00000000000E+00 -0.00000000000E+00 -0.77970062270E+03  0.77970062270E+03  0.00000000000E+00 0. -1.
         25    2    1    2    0    0 -0.27966645392E+02  0.96265705064E+02 -0.42835275127E+03  0.45733885216E+03  0.12499410768E+03 0.  0.
          2    1    1    2  501    0  0.31400380484E+02 -0.12528072390E+02 -0.33320427257E+03  0.33491495003E+03  0.00000000000E+00 0. -1.
          1    1    1    2  502    0 -0.34337350926E+01 -0.83737632674E+02  0.62540289021E+03  0.63099330958E+03  0.00000000000E+00 0. -1.
         22    1    3    3    0    0  0.21960143749E+02  0.76155374135E+02 -0.36814181373E+03  0.37657706241E+03  0.00000000000E+00 0.  1.
         22    1    3    3    0    0 -0.49926789141E+02  0.20110330928E+02 -0.60210937541E+02  0.80761789750E+02  0.00000000000E+00 0.  1.
</event>
<event>
 7    1  0.6315518E-006  0.1110812E+03  0.7818608E-02  0.1396400E+00
          2   -1    0    0  502    0  0.00000000000E+00  0.00000000000E+00  0.12651984726E+03  0.12651984726E+03  0.00000000000E+00 0. -1.
          1   -1    0    0  501    0 -0.00000000000E+00 -0.00000000000E+00 -0.34234951865E+03  0.34234951865E+03  0.00000000000E+00 0. -1.
         25    2    1    2    0    0 -0.95956866162E+02 -0.94921076679E+02 -0.58428612910E+02  0.19301253093E+03  0.12498881281E+03 0.  0.
          2    1    1    2  501    0  0.25684482407E+02  0.20367154619E+02 -0.16954724755E+03  0.17268695022E+03  0.00000000000E+00 0. -1.
          1    1    1    2  502    0  0.70272383756E+02  0.74553922060E+02  0.12146189071E+02  0.10316988476E+03  0.00000000000E+00 0. -1.
         22    1    3    3    0    0 -0.56248919764E+02  0.18990505746E+02 -0.38459362636E+02  0.70736856429E+02  0.00000000000E+00 0. -1.
         22    1    3    3    0    0 -0.39707946399E+02 -0.11391158242E+03 -0.19969250274E+02  0.12227567450E+03  0.00000000000E+00 0. -1.
</event>
<event>
 7    1  0.6315518E-006  0.9430111E+02  0.7818608E-02  0.1403359E+00
          2   -1    0    0  502    0  0.00000000000E+00  0.00000000000E+00  0.13996235056E+04  0.13996235056E+04  0.00000000000E+00 0. -1.
          1   -1    0    0  501    0 -0.00000000000E+00 -0.00000000000E+00 -0.11300925449E+04  0.11300925449E+04  0.00000000000E+00 0. -1.
         25    2    1    2    0    0  0.74694006833E+02 -0.50084758897E+02 -0.73119227248E+02  0.17046412047E+03  0.12499566890E+03 0.  0.
          2    1    1    2  501    0 -0.92991985610E+02  0.18453581240E+02 -0.10058242905E+04  0.10102824098E+04  0.00000000000E+00 0. -1.
          1    1    1    2  502    0  0.18297978777E+02  0.31631177657E+02  0.13484744784E+04  0.13489695202E+04  0.00000000000E+00 0. -1.
         22    1    3    3    0    0  0.45138707294E+02 -0.72272792337E+02  0.36219722938E+01  0.85287619803E+02  0.00000000000E+00 0. -1.
         22    1    3    3    0    0  0.29555299539E+02  0.22188033440E+02 -0.76741199542E+02  0.85176500667E+02  0.00000000000E+00 0. -1.
</event>
<event>
 7    1  0.6315518E-006  0.7558378E+02  0.7818608E-02  0.1434584E+00
          2   -1    0    0  502    0  0.00000000000E+00  0.00000000000E+00  0.91403411048E+03  0.91403411048E+03  0.00000000000E+00 0. -1.
          1   -1    0    0  501    0 -0.00000000000E+00 -0.00000000000E+00 -0.27327488739E+02  0.27327488739E+02  0.00000000000E+00 0. -1.
         25    2    1    2    0    0  0.76907344524E+02  0.29911050650E+02  0.69864970893E+03  0.71452490921E+03  0.12500007803E+03 0.  0.
          2    1    1    2  501    0 -0.51594170972E+02 -0.55289942127E+02  0.68546068640E+02  0.10206615357E+03  0.00000000000E+00 0. -1.
          1    1    1    2  502    0 -0.25313173552E+02  0.25378891476E+02  0.11951084417E+03  0.12477053644E+03  0.00000000000E+00 0. -1.
         22    1    3    3    0    0  0.88793153248E+02  0.65987082270E+02  0.55639719618E+03  0.56728860292E+03  0.00000000000E+00 0.  1.
         22    1    3    3    0    0 -0.11885808725E+02 -0.36076031620E+02  0.14225251275E+03  0.14723630629E+03  0.00000000000E+00 0.  1.
</event>
<event>
 7    1  0.6315518E-006  0.1053239E+03  0.7818608E-02  0.1440655E+00
          2   -1    0    0  502    0  0.00000000000E+00  0.00000000000E+00  0.16520080270E+04  0.16520080270E+04  0.00000000000E+00 0. -1.
          1   -1    0    0  501    0 -0.00000000000E+00 -0.00000000000E+00 -0.59621344818E+02  0.59621344818E+02  0.00000000000E+00 0. -1.
         25    2    1    2    0    0 -0.99729822317E+02  0.22579657372E+02  0.51084484115E+03  0.53576342960E+03  0.12499648950E+03 0.  0.
          2    1    1    2  501    0  0.95105073027E+02 -0.46719360150E+02  0.12674513692E+02  0.10671605702E+03  0.00000000000E+00 0. -1.
          1    1    1    2  502    0  0.46247492896E+01  0.24139702778E+02  0.10688673274E+04  0.10691498852E+04  0.00000000000E+00 0. -1.
         22    1    3    3    0    0  0.27069748100E+02 -0.70239546850E+01  0.13884619813E+03  0.14163464949E+03  0.00000000000E+00 0.  1.
         22    1    3    3    0    0 -0.12679957042E+03  0.29603612057E+02  0.37199864302E+03  0.39412878011E+03  0.00000000000E+00 0.  1.
</event>
<event>
 7    1  0.1031976E-005  0.7542921E+02  0.7818608E-02  0.1423323E+00
          2   -1    0    0  502    0  0.00000000000E+00  0.00000000000E+00  0.12554167209E+04  0.12554167209E+04  0.00000000000E+00 0. -1.
          1   -1    0    0  501    0 -0.00000000000E+00 -0.00000000000E+00 -0.98843726732E+03  0.98843726732E+03  0.00000000000E+00 0. -1.
         25    2    1    2    0    0 -0.93250929403E+02 -0.15483292893E+02 -0.10636473181E+03  0.18938945846E+03  0.12497776846E+03 0.  0.
          2    1    1    2  501    0  0.20112766705E+02  0.33558598589E+02 -0.83893489972E+03  0.83984669368E+03  0.00000000000E+00 0. -1.
          1    1    1    2  502    0  0.73138162698E+02 -0.18075305696E+02  0.12122790851E+04  0.12146178361E+04  0.00000000000E+00 0. -1.
         22    1    3    3    0    0 -0.59992626798E+02 -0.69241759482E+02 -0.48365498650E+02  0.10359902502E+03  0.00000000000E+00 0. -1.
         22    1    3    3    0    0 -0.33258302605E+02  0.53758466589E+02 -0.57999233165E+02  0.85790433440E+02  0.00000000000E+00 0. -1.
</event>
<event>
 7    1  0.6315518E-006  0.2666289E+03  0.7818608E-02  0.1289231E+00
          2   -1    0    0  502    0  0.00000000000E+00  0.00000000000E+00  0.13188247022E+03  0.13188247022E+03  0.00000000000E+00 0. -1.
          1   -1    0    0  501    0 -0.00000000000E+00 -0.00000000000E+00 -0.19241025051E+04  0.19241025051E+04  0.00000000000E+00 0. -1.
         25    2    1    2    0    0 -0.13211518216E+03 -0.25595715900E+03 -0.10673847569E+04  0.11126103710E+04  0.12499251926E+03 0.  0.
          2    1    1    2  501    0 -0.90052078709E+01  0.33273511722E+02 -0.67400385630E+03  0.67488474472E+03  0.00000000000E+00 0. -1.
          1    1    1    2  502    0  0.14112039003E+03  0.22268364728E+03 -0.50831421664E+02  0.26848985954E+03  0.00000000000E+00 0. -1.
         22    1    3    3    0    0 -0.69257618658E+02 -0.45221145795E+02 -0.17551396600E+03  0.19402763213E+03  0.00000000000E+00 0. -1.
         22    1    3    3    0    0 -0.62857563505E+02 -0.21073601321E+03 -0.89187079090E+03  0.91858273891E+03  0.00000000000E+00 0. -1.
</event>
<event>
 7    1  0.6315518E-006  0.8582584E+02  0.7818608E-02  0.1462295E+00
          2   -1    0    0  502    0  0.00000000000E+00  0.00000000000E+00  0.33385555330E+04  0.33385555330E+04  0.00000000000E+00 0. -1.
          1   -1    0    0  501    0 -0.00000000000E+00 -0.00000000000E+00 -0.56841682362E+03  0.56841682362E+03  0.00000000000E+00 0. -1.
         25    2    1    2    0    0  0.51557402494E+02  0.96309240335E+02  0.20790085649E+04  0.20856260033E+04  0.12500230865E+03 0.  0.
          2    1    1    2  501    0 -0.31996781843E+02 -0.79600065540E+02 -0.56171929703E+03  0.56823281597E+03  0.00000000000E+00 0. -1.
          1    1    1    2  502    0 -0.19560620651E+02 -0.16709174795E+02  0.12528494415E+04  0.12531135373E+04  0.00000000000E+00 0. -1.
         22    1    3    3    0    0 -0.23077970641E+02  0.65422713942E+02  0.53115115012E+03  0.53566245761E+03  0.00000000000E+00 0. -1.
         22    1    3    3    0    0  0.74635373135E+02  0.30886526393E+02  0.15478574148E+04  0.15499635457E+04  0.00000000000E+00 0. -1.
</event>
<event>
 7    1  0.6315518E-006  0.6238131E+02  0.7818608E-02  0.1459785E+00
          2   -1    0    0  502    0  0.00000000000E+00  0.00000000000E+00  0.17836626482E+04  0.17836626482E+04  0.00000000000E+00 0. -1.
          1   -1    0    0  501    0 -0.00000000000E+00 -0.00000000000E+00 -0.67012120416E+02  0.67012120416E+02  0.00000000000E+00 0. -1.
         25    2    1    2    0    0  0.44779781452E+01  0.62811991241E+02  0.12685977271E+04  0.12762956828E+04  0.12500031244E+03 0.  0.
          2    1    1    2  501    0  0.34618483384E+02 -0.10038869582E+02 -0.55709585923E+02  0.66353419340E+02  0.00000000000E+00 0. -1.
          1    1    1    2  502    0 -0.39096461529E+02 -0.52773121659E+02  0.50376238663E+03  0.50802566653E+03  0.00000000000E+00 0. -1.
         22    1    3    3    0    0  0.62285765812E+01 -0.19465569365E+02  0.39759535757E+02  0.44704857013E+02  0.00000000000E+00 0. -1.
         22    1    3    3    0    0 -0.17505984359E+01  0.82277560606E+02  0.12288381913E+04  0.12315908257E+04  0.00000000000E+00 0. -1.
</event>
<event>
 7    1  0.6315518E-006  0.9774129E+02  0.7818608E-02  0.1297523E+00
          2   -1    0    0  502    0  0.00000000000E+00  0.00000000000E+00  0.10525031466E+04  0.10525031466E+04  0.00000000000E+00 0. -1.
          1   -1    0    0  501    0 -0.00000000000E+00 -0.00000000000E+00 -0.67060321092E+03  0.67060321092E+03  0.00000000000E+00 0. -1.
         25    2    1    2    0    0  0.42153105746E+01  0.18091784835E+03  0.11601018477E+03  0.24865991410E+03  0.12499741282E+03 0.  0.
          2    1    1    2  501    0 -0.94135642344E+01 -0.86532606791E+02 -0.59855387219E+03  0.60484977072E+03  0.00000000000E+00 0. -1.
          1    1    1    2  502    0  0.51982536598E+01 -0.94385241561E+02  0.86444362312E+03  0.86959667273E+03  0.00000000000E+00 0. -1.
         22    1    3    3    0    0  0.31654588430E+02 -0.37530218637E+01  0.27250017008E+02  0.41936399090E+02  0.00000000000E+00 0.  1.
         22    1    3    3    0    0 -0.27439277855E+02  0.18467087022E+03  0.88760167758E+02  0.20672351501E+03  0.00000000000E+00 0.  1.
</event>
<event>
 7    1  0.6315518E-006  0.5385469E+02  0.7818608E-02  0.1516244E+00
          2   -1    0    0  502    0  0.00000000000E+00  0.00000000000E+00  0.27288284895E+04  0.27288284895E+04  0.00000000000E+00 0. -1.
          1   -1    0    0  501    0 -0.00000000000E+00 -0.00000000000E+00 -0.12560553376E+03  0.12560553376E+03  0.00000000000E+00 0. -1.
         25    2    1    2    0    0  0.12880704620E+02  0.26988529916E+02  0.27882667545E+03  0.30702068174E+03  0.12499236285E+03 0.  0.
          2    1    1    2  501    0  0.25768134580E+02  0.11307410190E+02 -0.10942431177E+03  0.11298466396E+03  0.00000000000E+00 0. -1.
          1    1    1    2  502    0 -0.38648839201E+02 -0.38295940106E+02  0.24338205921E+04  0.24344286776E+04  0.00000000000E+00 0. -1.
         22    1    3    3    0    0 -0.31319252021E+02  0.30731730643E+01  0.24365875415E+03  0.24568257654E+03  0.00000000000E+00 0.  1.
         22    1    3    3    0    0  0.44199956641E+02  0.23915356852E+02  0.35167921300E+02  0.61338105196E+02  0.00000000000E+00 0.  1.
</event>
<event>
 7    1  0.6315518E-006  0.8791785E+02  0.7818608E-02  0.1366622E+00
          2   -1    0    0  502    0  0.00000000000E+00  0.00000000000E+00  0.31023192500E+03  0.31023192500E+03  0.00000000000E+00 0. -1.
          1   -1    0    0  501    0 -0.00000000000E+00 -0.00000000000E+00 -0.41085478758E+03  0.41085478758E+03  0.00000000000E+00 0. -1.
         25    2    1    2    0    0  0.50085157752E+02 -0.94480902469E+02  0.11940708364E+03  0.20327142719E+03  0.12500423004E+03 0.  0.
          2    1    1    2  501    0 -0.73847810541E+02  0.47360315158E+02 -0.35878933682E+03  0.36935929228E+03  0.00000000000E+00 0. -1.
          1    1    1    2  502    0  0.23762652789E+02  0.47120587312E+02  0.13875939059E+03  0.14845599312E+03  0.00000000000E+00 0. -1.
         22    1    3    3    0    0  0.28205108175E+02 -0.67926271046E+02 -0.54588016440E+01  0.73751643648E+02  0.00000000000E+00 0. -1.
         22    1    3    3    0    0  0.21880049577E+02 -0.26554631423E+02  0.12486588529E+03  0.12951978354E+03  0.00000000000E+00 0. -1.
</event>
<event>
 7    1  0.6315518E-006  0.1057358E+03  0.7818608E-02  0.1377300E+00
          2   -1    0    0  502    0  0.00000000000E+00  0.00000000000E+00  0.22338402900E+03  0.22338402900E+03  0.00000000000E+00 0. -1.
          1   -1    0    0  501    0 -0.00000000000E+00 -0.00000000000E+00 -0.99006950905E+03  0.99006950905E+03  0.00000000000E+00 0. -1.
         25    2    1    2    0    0 -0.73592562532E+02 -0.43160793468E+00 -0.26415771791E+02  0.14743348412E+03  0.12499115047E+03 0.  0.
          2    1    1    2  501    0  0.10426504809E+03  0.26383426847E+02 -0.89740630304E+03  0.90382816852E+03  0.00000000000E+00 0. -1.
          1    1    1    2  502    0 -0.30672485561E+02 -0.25951818912E+02  0.15713659478E+03  0.16219188542E+03  0.00000000000E+00 0. -1.
         22    1    3    3    0    0 -0.93483981290E+02  0.36031094527E+02 -0.40731856177E+01  0.10027006219E+03  0.00000000000E+00 0.  1.
         22    1    3    3    0    0  0.19891418758E+02 -0.36462702462E+02 -0.22342586173E+02  0.47163421928E+02  0.00000000000E+00 0.  1.
</event>
<event>
 7    1  0.6315518E-006  0.1643461E+03  0.7818608E-02  0.1310961E+00
          2   -1    0    0  502    0  0.00000000000E+00  0.00000000000E+00  0.12198985851E+03  0.12198985851E+03  0.00000000000E+00 0. -1.
          1   -1    0    0  501    0 -0.00000000000E+00 -0.00000000000E+00 -0.15222370967E+04  0.15222370967E+04  0.00000000000E+00 0. -1.
         25    2    1    2    0    0 -0.13026273977E+03  0.13729064687E+03 -0.71395294859E+03  0.74911399733E+03  0.12500346039E+03 0.  0.
          2    1    1    2  501    0 -0.39183020887E+01 -0.45605222502E+02 -0.72630522985E+03  0.72774616201E+03  0.00000000000E+00 0. -1.
          1    1    1    2  502    0  0.13418104185E+03 -0.91685424370E+02  0.40010940219E+02  0.16736679591E+03  0.00000000000E+00 0. -1.
         22    1    3    3    0    0 -0.11255080142E+02 -0.10047697772E+02 -0.59540850437E+01  0.16219870167E+02  0.00000000000E+00 0.  1.
         22    1    3    3    0    0 -0.11900765962E+03  0.14733834464E+03 -0.70799886354E+03  0.73289412716E+03  0.00000000000E+00 0.  1.
</event>
<event>
 7    1  0.6315518E-006  0.1046998E+03  0.7818608E-02  0.1341182E+00
          2   -1    0    0  502    0  0.00000000000E+00  0.00000000000E+00  0.57014324961E+03  0.57014324961E+03  0.00000000000E+00 0. -1.
          1   -1    0    0  501    0 -0.00000000000E+00 -0.00000000000E+00 -0.99411981692E+03  0.99411981692E+03  0.00000000000E+00 0. -1.
         25    2    1    2    0    0  0.36919693266E+02 -0.13674569299E+03 -0.67030080247E+02  0.20045080778E+03  0.12500018551E+03 0.  0.
          2    1    1    2  501    0  0.65713385879E+01  0.10309996265E+03 -0.85576196543E+03  0.86197524690E+03  0.00000000000E+00 0. -1.
          1    1    1    2  502    0 -0.43491031854E+02  0.33645730340E+02  0.49881547836E+03  0.50183701186E+03  0.00000000000E+00 0. -1.
         22    1    3    3    0    0  0.59136820275E+02 -0.10806351340E+03  0.11802459461E+01  0.12319204285E+03  0.00000000000E+00 0.  1.
         22    1    3    3    0    0 -0.22217127009E+02 -0.28682179596E+02 -0.68210326193E+02  0.77258764928E+02  0.00000000000E+00 0.  1.
</event>
<event>
 7    1  0.6315518E-006  0.5887058E+02  0.7818608E-02  0.1404907E+00
          2   -1    0    0  502    0  0.00000000000E+00  0.00000000000E+00  0.57762873699E+03  0.57762873699E+03  0.00000000000E+00 0. -1.
          1   -1    0    0  501    0 -0.00000000000E+00 -0.00000000000E+00 -0.56630166473E+03  0.56630166473E+03  0.00000000000E+00 0. -1.
         25    2    1    2    0    0 -0.14998034679E+02  0.44587903957E+02  0.53355261627E+02  0.14382274358E+03  0.12500070162E+03 0.  0.
          2    1    1    2  501    0  0.58706357084E+02 -0.43941141377E+01 -0.51755265149E+03  0.52089009557E+03  0.00000000000E+00 0. -1.
          1    1    1    2  502    0 -0.43708322405E+02 -0.40193789820E+02  0.47552446212E+03  0.47921756256E+03  0.00000000000E+00 0. -1.
         22    1    3    3    0    0  0.10210182054E+02  0.29490256496E+02 -0.37236533583E+02  0.48584796790E+02  0.00000000000E+00 0.  1.
         22    1    3    3    0    0 -0.25208216733E+02  0.15097647461E+02  0.90591795210E+02  0.95237946792E+02  0.00000000000E+00 0.  1.
</event>
<event>
 7    1  0.6315518E-006  0.9760458E+02  0.7818608E-02  0.1368019E+00
          2   -1    0    0  502    0  0.00000000000E+00  0.00000000000E+00  0.25297969273E+04  0.25297969273E+04  0.00000000000E+00 0. -1.
          1   -1    0    0  501    0 -0.00000000000E+00 -0.00000000000E+00 -0.57146906633E+02  0.57146906633E+02  0.00000000000E+00 0. -1.
         25    2    1    2    0    0  0.81051668576E+02  0.10907910208E+03  0.68596287189E+03  0.71037870960E+03  0.12500090379E+03 0.  0.
          2    1    1    2  501    0 -0.40025465293E+02 -0.86174729966E+02  0.59439835152E+01  0.95202168550E+02  0.00000000000E+00 0. -1.
          1    1    1    2  502    0 -0.41026203282E+02 -0.22904372117E+02  0.17807431653E+04  0.17813629558E+04  0.00000000000E+00 0. -1.
         22    1    3    3    0    0 -0.96968512672E+01  0.85910933244E+02  0.40803776914E+03  0.41709655767E+03  0.00000000000E+00 0.  1.
         22    1    3    3    0    0  0.90748519843E+02  0.23168168839E+02  0.27792510276E+03  0.29328215193E+03  0.00000000000E+00 0.  1.
</event>
<event>
 7    1  0.6315518E-006  0.9423914E+02  0.7818608E-02  0.1434780E+00
          2   -1    0    0  502    0  0.00000000000E+00  0.00000000000E+00  0.19774307619E+03  0.19774307619E+03  0.00000000000E+00 0. -1.
          1   -1    0    0  501    0 -0.00000000000E+00 -0.00000000000E+00 -0.11978045564E+04  0.11978045564E+04  0.00000000000E+00 0. -1.
         25    2    1    2    0    0 -0.43568387219E+02 -0.62060355636E+02 -0.90706743209E+02  0.17205380449E+03  0.12500042508E+03 0.  0.
          2    1    1    2  501    0  0.72274826010E+02  0.62149940165E+02 -0.10629618624E+04  0.10672273358E+04  0.00000000000E+00 0. -1.
          1    1    1    2  502    0 -0.28706438792E+02 -0.89584528698E-01  0.15360712534E+03  0.15626649228E+03  0.00000000000E+00 0. -1.
         22    1    3    3    0    0 -0.17183627224E+02  0.59927961933E+01  0.27590312313E+02  0.33051716813E+02  0.00000000000E+00 0. -1.
         22    1    3    3    0    0 -0.26384759995E+02 -0.68053151829E+02 -0.11829705552E+03  0.13900208768E+03  0.00000000000E+00 0. -1.
</event>
<event>
 7    1  0.6315518E-006  0.6680879E+02  0.7818608E-02  0.1511273E+00
          2   -1    0    0  502    0  0.00000000000E+00  0.00000000000E+00  0.31667205458E+04  0.31667205458E+04  0.00000000000E+00 0. -1.
          1   -1    0    0  501    0 -0.00000000000E+00 -0.00000000000E+00 -0.15980350196E+03  0.15980350196E+03  0.00000000000E+00 0. -1.
         25    2    1    2    0    0  0.94601809459E+01  0.76499183124E+02  0.26260968418E+04  0.26301997630E+04  0.12499820397E+03 0.  0.
          2    1    1    2  501    0 -0.27104858094E+02 -0.61042904484E+02 -0.15041211319E+03  0.16457433978E+03  0.00000000000E+00 0. -1.
          1    1    1    2  502    0  0.17644677148E+02 -0.15456278641E+02  0.53123231523E+03  0.53174994492E+03  0.00000000000E+00 0. -1.
         22    1    3    3    0    0  0.56963459304E+02  0.36343350431E+01  0.80084827381E+03  0.80287981776E+03  0.00000000000E+00 0. -1.
         22    1    3    3    0    0 -0.47503278358E+02  0.72864848081E+02  0.18252485680E+04  0.18273199453E+04  0.00000000000E+00 0. -1.
</event>
<event>
 7    1  0.6315518E-006  0.1601445E+03  0.7818608E-02  0.1221382E+00
          2   -1    0    0  502    0  0.00000000000E+00  0.00000000000E+00  0.12568371311E+04  0.12568371311E+04  0.00000000000E+00 0. -1.
          1   -1    0    0  501    0 -0.00000000000E+00 -0.00000000000E+00 -0.87956825236E+03  0.87956825236E+03  0.00000000000E+00 0. -1.
         25    2    1    2    0    0 -0.22440523382E+02 -0.99728998353E+02 -0.98530158366E+02  0.18916561263E+03  0.12500394670E+03 0.  0.
          2    1    1    2  501    0  0.13337571342E+03  0.11797453784E+03 -0.72227584733E+03  0.74390152046E+03  0.00000000000E+00 0. -1.
          1    1    1    2  502    0 -0.11093519004E+03 -0.18245539489E+02  0.11980748844E+04  0.12033382504E+04  0.00000000000E+00 0. -1.
         22    1    3    3    0    0 -0.44366444656E+02 -0.32776329938E+02  0.13533338368E+02  0.56796306772E+02  0.00000000000E+00 0.  1.
         22    1    3    3    0    0  0.21925921275E+02 -0.66952668416E+02 -0.11206349673E+03  0.13236930585E+03  0.00000000000E+00 0.  1.
</event>
<event>
 7    1  0.6315518E-006  0.6326957E+02  0.7818608E-02  0.1412099E+00
          2   -1    0    0  502    0  0.00000000000E+00  0.00000000000E+00  0.97227104146E+03  0.97227104146E+03  0.00000000000E+00 0. -1.
          1   -1    0    0  501    0 -0.00000000000E+00 -0.00000000000E+00 -0.65238649406E+02  0.65238649406E+02  0.00000000000E+00 0. -1.
         25    2    1    2    0    0 -0.15896745222E+02 -0.87105611474E+02  0.19532722849E+03  0.24823014642E+03  0.12500154136E+03 0.  0.
          2    1    1    2  501    0  0.43278974148E+02  0.44242375846E+02 -0.12625430175E+02  0.63165329976E+02  0.00000000000E+00 0. -1.
          1    1    1    2  502    0 -0.27382228926E+02  0.42863235628E+02  0.72433059374E+03  0.72611421447E+03  0.00000000000E+00 0. -1.
         22    1    3    3    0    0 -0.23969500504E+02 -0.11617189829E+03  0.17654746700E+03  0.21269568640E+03  0.00000000000E+00 0.  1.
         22    1    3    3    0    0  0.80727552821E+01  0.29066286820E+02  0.18779761489E+02  0.35534460020E+02  0.00000000000E+00 0.  1.
</event>
<event>
 7    1  0.6315518E-006  0.3078615E+03  0.7818608E-02  0.1192511E+00
          2   -1    0    0  502    0  0.00000000000E+00  0.00000000000E+00  0.14546521138E+04  0.14546521138E+04  0.00000000000E+00 0. -1.
          1   -1    0    0  501    0 -0.00000000000E+00 -0.00000000000E+00 -0.52412395015E+03  0.52412395015E+03  0.00000000000E+00 0. -1.
         25    2    1    2    0    0 -0.35529967402E+03  0.55040356373E+02  0.14186105269E+03  0.40622252662E+03  0.12499953470E+03 0.  0.
          2    1    1    2  501    0  0.54377755519E+02 -0.58304642430E+02 -0.36843241887E+03  0.37695996988E+03  0.00000000000E+00 0. -1.
          1    1    1    2  502    0  0.30092191850E+03  0.32642860565E+01  0.11570995298E+04  0.11955935674E+04  0.00000000000E+00 0. -1.
         22    1    3    3    0    0 -0.21029656609E+03  0.31805478393E+02  0.14820701116E+03  0.25923262202E+03  0.00000000000E+00 0. -1.
         22    1    3    3    0    0 -0.14500310794E+03  0.23234877980E+02 -0.63459584658E+01  0.14698990460E+03  0.00000000000E+00 0. -1.
</event>
<event>
 7    1  0.6315518E-006  0.9772678E+02  0.7818608E-02  0.1393127E+00
          2   -1    0    0  502    0  0.00000000000E+00  0.00000000000E+00  0.16532312316E+03  0.16532312316E+03  0.00000000000E+00 0. -1.
          1   -1    0    0  501    0 -0.00000000000E+00 -0.00000000000E+00 -0.15350603470E+04  0.15350603470E+04  0.00000000000E+00 0. -1.
         25    2    1    2    0    0  0.71496223645E+02  0.67043778659E+02 -0.90243176500E+03  0.91630482996E+03  0.12499949074E+03 0.  0.
          2    1    1    2  501    0  0.20069017466E+02 -0.32556220487E+02 -0.60992464355E+03  0.61112252762E+03  0.00000000000E+00 0. -1.
          1    1    1    2  502    0 -0.91565241111E+02 -0.34487558172E+02  0.14261918468E+03  0.17295611261E+03  0.00000000000E+00 0. -1.
         22    1    3    3    0    0  0.94755584216E+00 -0.28674832768E+02 -0.35244151305E+03  0.35360735855E+03  0.00000000000E+00 0. -1.
         22    1    3    3    0    0  0.70548667803E+02  0.95718611428E+02 -0.54999025194E+03  0.56269747141E+03  0.00000000000E+00 0. -1.
</event>
<event>
 7    1  0.6315518E-006  0.6325608E+02  0.7818608E-02  0.1441875E+00
          2   -1    0    0  502    0  0.00000000000E+00  0.00000000000E+00  0.59499081475E+03  0.59499081475E+03  0.00000000000E+00 0. -1.
          1   -1    0    0  501    0 -0.00000000000E+00 -0.00000000000E+00 -0.73179407571E+03  0.73179407571E+03  0.00000000000E+00 0. -1.
         25    2    1    2    0    0 -0.10017915021E+03  0.25338957614E+02 -0.11395816375E+03  0.19821482490E+03  0.12499891525E+03 0.  0.
          2    1    1    2  501    0  0.39078983332E+02 -0.10836373539E+02 -0.57320563961E+03  0.57463840735E+03  0.00000000000E+00 0. -1.
          1    1    1    2  502    0  0.61100166877E+02 -0.14502584075E+02  0.55036054239E+03  0.55393165820E+03  0.00000000000E+00 0. -1.
         22    1    3    3    0    0 -0.67710474832E+02  0.35988856684E+02  0.26266377939E+01  0.76725520093E+02  0.00000000000E+00 0. -1.
         22    1    3    3    0    0 -0.32468675377E+02 -0.10649899070E+02 -0.11658480154E+03  0.12148930480E+03  0.00000000000E+00 0. -1.
</event>
<event>
 7    1  0.6315518E-006  0.4595859E+02  0.7818608E-02  0.1556384E+00
          2   -1    0    0  502    0  0.00000000000E+00  0.00000000000E+00  0.16206889646E+04  0.16206889646E+04  0.00000000000E+00 0. -1.
          1   -1    0    0  501    0 -0.00000000000E+00 -0.00000000000E+00 -0.10367487364E+04  0.10367487364E+04  0.00000000000E+00 0. -1.
         25    2    1    2    0    0  0.13954541800E+02  0.28420117736E+02 -0.42122425099E+03  0.44051899375E+03  0.12499872759E+03 0.  0.
          2    1    1    2  501    0 -0.39279192060E+02 -0.27102396092E+02 -0.60483739935E+03  0.60671712886E+03  0.00000000000E+00 0. -1.
          1    1    1    2  502    0  0.25324650260E+02 -0.13177216439E+01  0.16100018786E+04  0.16102015785E+04  0.00000000000E+00 0. -1.
         22    1    3    3    0    0 -0.40402800355E+02  0.54519441254E+02 -0.19859102342E+03  0.20986460001E+03  0.00000000000E+00 0. -1.
         22    1    3    3    0    0  0.54357342156E+02 -0.26099323518E+02 -0.22263322757E+03  0.23065439374E+03  0.00000000000E+00 0. -1.
</event>
<event>
 7    1  0.6315518E-006  0.7803801E+02  0.7818608E-02  0.1404640E+00
          2   -1    0    0  502    0  0.00000000000E+00  0.00000000000E+00  0.16460864510E+03  0.16460864510E+03  0.00000000000E+00 0. -1.
          1   -1    0    0  501    0 -0.00000000000E+00 -0.00000000000E+00 -0.31598301680E+03  0.31598301680E+03  0.00000000000E+00 0. -1.
         25    2    1    2    0    0 -0.90617516021E+02 -0.53383583748E+02 -0.16305838909E+03  0.23081274899E+03  0.12500058248E+03 0.  0.
          2    1    1    2  501    0  0.43147245283E+02 -0.70198734177E+01 -0.10291348309E+03  0.11181300640E+03  0.00000000000E+00 0. -1.
          1    1    1    2  502    0  0.47470270738E+02  0.60403457165E+02  0.11459750048E+03  0.13796590650E+03  0.00000000000E+00 0. -1.
         22    1    3    3    0    0 -0.72740120888E+02 -0.75766794170E+01 -0.14804473025E+02  0.74617046842E+02  0.00000000000E+00 0. -1.
         22    1    3    3    0    0 -0.17877395132E+02 -0.45806904331E+02 -0.14825391607E+03  0.15619570215E+03  0.00000000000E+00 0. -1.
</event>
<event>
 7    1  0.6315518E-006  0.7800964E+02  0.7818608E-02  0.1355380E+00
          2   -1    0    0  502    0  0.00000000000E+00  0.00000000000E+00  0.90867999246E+03  0.90867999246E+03  0.00000000000E+00 0. -1.
          1   -1    0    0  501    0 -0.00000000000E+00 -0.00000000000E+00 -0.12736620931E+03  0.12736620931E+03  0.00000000000E+00 0. -1.
         25    2    1    2    0    0  0.55706650659E+01 -0.16912863675E+02  0.39190238349E+02  0.13220290157E+03  0.12499862053E+03 0.  0.
          2    1    1    2  501    0 -0.79267567012E+02 -0.86658354658E+01 -0.58834317411E+02  0.99095513469E+02  0.00000000000E+00 0. -1.
          1    1    1    2  502    0  0.73696901946E+02  0.25578699141E+02  0.80095786221E+03  0.80474778673E+03  0.00000000000E+00 0. -1.
         22    1    3    3    0    0  0.36066587772E+02 -0.26505207337E+02  0.73027301512E+02  0.85652271048E+02  0.00000000000E+00 0.  1.
         22    1    3    3    0    0 -0.30495922706E+02  0.95923436620E+01 -0.33837063163E+02  0.46550630523E+02  0.00000000000E+00 0.  1.
</event>
<event>
 7    1  0.6315518E-006  0.4550028E+02  0.7818608E-02  0.1531840E+00
          2   -1    0    0  502    0  0.00000000000E+00  0.00000000000E+00  0.72792549205E+03  0.72792549205E+03  0.00000000000E+00 0. -1.
          1   -1    0    0  501    0 -0.00000000000E+00 -0.00000000000E+00 -0.59030306461E+03  0.59030306461E+03  0.00000000000E+00 0. -1.
         25    2    1    2    0    0 -0.35873643574E+02  0.46704750816E+02  0.13864003272E+01  0.13818501576E+03  0.12499969769E+03 0.  0.
          2    1    1    2  501    0 -0.61350450251E+01 -0.29391950291E+02 -0.52068654237E+03  0.52155153238E+03  0.00000000000E+00 0. -1.
          1    1    1    2  502    0  0.42008688599E+02 -0.17312800525E+02  0.65692256948E+03  0.65849200851E+03  0.00000000000E+00 0. -1.
         22    1    3    3    0    0  0.46948550827E+02  0.17958803053E+02  0.44485024354E+01  0.50462602051E+02  0.00000000000E+00 0. -1.
         22    1    3    3    0    0 -0.82822194401E+02  0.28745947764E+02 -0.30621021082E+01  0.87722413713E+02  0.00000000000E+00 0. -1.
</event>
<event>
 7    1  0.6315518E-006  0.5776382E+02  0.7818608E-02  0.1434902E+00
          2   -1    0    0  502    0  0.00000000000E+00  0.00000000000E+00  0.14035592263E+04  0.14035592263E+04  0.00000000000E+00 0. -1.
          1   -1    0    0  501    0 -0.00000000000E+00 -0.00000000000E+00 -0.74680322224E+02  0.74680322224E+02  0.00000000000E+00 0. -1.
         25    2    1    2    0    0 -0.98957591950E+02 -0.21621781109E+02  0.28189713502E+03  0.32457823431E+03  0.12499971614E+03 0.  0.
          2    1    1    2  501    0  0.46788893537E+02  0.38073916431E+00 -0.42208765027E+02  0.63015278828E+02  0.00000000000E+00 0. -1.
          1    1    1    2  502    0  0.52168698413E+02  0.21241041945E+02  0.10891905341E+04  0.10906460354E+04  0.00000000000E+00 0. -1.
         22    1    3    3    0    0  0.23844209402E+02 -0.29333018764E+02  0.69467305894E+02  0.79086527929E+02  0.00000000000E+00 0.  1.
         22    1    3    3    0    0 -0.12280180135E+03  0.77112376542E+01  0.21242982912E+03  0.24549170638E+03  0.00000000000E+00 0.  1.
</event>
<event>
 7    1  0.6315518E-006  0.1387679E+03  0.7818608E-02  0.1277765E+00
          2   -1    0    0  502    0  0.00000000000E+00  0.00000000000E+00  0.47928173501E+03  0.47928173501E+03  0.00000000000E+00 0. -1.
          1   -1    0    0  501    0 -0.00000000000E+00 -0.00000000000E+00 -0.30192448877E+03  0.30192448877E+03  0.00000000000E+00 0. -1.
         25    2    1    2    0    0 -0.13917584097E+03  0.73958452086E+02  0.10828894509E+03  0.22845398648E+03  0.12499984385E+03 0.  0.
          2    1    1    2  501    0  0.13845712840E+03 -0.14012208182E+00 -0.21694662863E+03  0.25736401402E+03  0.00000000000E+00 0. -1.
          1    1    1    2  502    0  0.71871257348E+00 -0.73818330004E+02  0.28601492978E+03  0.29538822328E+03  0.00000000000E+00 0. -1.
         22    1    3    3    0    0 -0.15095863744E+03  0.29984838223E+02  0.70488674630E+02  0.16928158197E+03  0.00000000000E+00 0. -1.
         22    1    3    3    0    0  0.11782796468E+02  0.43973613864E+02  0.37800270459E+02  0.59172404511E+02  0.00000000000E+00 0. -1.
</event>
<event>
 7    1  0.6315518E-006  0.3785693E+03  0.7818608E-02  0.1155515E+00
          2   -1    0    0  502    0  0.00000000000E+00  0.00000000000E+00  0.69410670336E+03  0.69410670336E+03  0.00000000000E+00 0. -1.
          1   -1    0    0  501    0 -0.00000000000E+00 -0.00000000000E+00 -0.99714936531E+03  0.99714936531E+03  0.00000000000E+00 0. -1.
         25    2    1    2    0    0  0.15277082317E+03  0.25947560595E+03  0.20745737691E+02  0.32668353250E+03  0.12500092112E+03 0.  0.
          2    1    1    2  501    0 -0.20182286512E+03 -0.34512824263E+03 -0.79140030911E+03  0.88665687952E+03  0.00000000000E+00 0. -1.
          1    1    1    2  502    0  0.49052041957E+02  0.85652636684E+02  0.46761190947E+03  0.47791565665E+03  0.00000000000E+00 0. -1.
         22    1    3    3    0    0  0.21129068084E+02  0.15656665216E+03 -0.23454536480E+01  0.15800333933E+03  0.00000000000E+00 0. -1.
         22    1    3    3    0    0  0.13164175508E+03  0.10290895379E+03  0.23091191339E+02  0.16868019317E+03  0.00000000000E+00 0. -1.
</event>
<event>
 7    1  0.6315518E-006  0.1292364E+03  0.7818608E-02  0.1245455E+00
          2   -1    0    0  502    0  0.00000000000E+00  0.00000000000E+00  0.13531004438E+04  0.13531004438E+04  0.00000000000E+00 0. -1.
          1   -1    0    0  501    0 -0.00000000000E+00 -0.00000000000E+00 -0.20776220549E+03  0.20776220549E+03  0.00000000000E+00 0. -1.
         25    2    1    2    0    0 -0.14678219381E+03  0.93814272195E+02  0.54948674428E+03  0.58983635541E+03  0.12500045576E+03 0.  0.
          2    1    1    2  501    0  0.10602753545E+03  0.24429942908E+02 -0.16627201174E+03  0.19870843533E+03  0.00000000000E+00 0. -1.
          1    1    1    2  502    0  0.40754658362E+02 -0.11824421510E+03  0.76212350580E+03  0.77231785857E+03  0.00000000000E+00 0. -1.
         22    1    3    3    0    0 -0.67913863502E+02  0.86898861574E+02  0.44658817029E+03  0.46000510740E+03  0.00000000000E+00 0.  1.
         22    1    3    3    0    0 -0.78868330307E+02  0.69154106211E+01  0.10289857400E+03  0.12983124801E+03  0.00000000000E+00 0.  1.
</event>
<event>
 7    1  0.6315518E-006  0.9380554E+02  0.7818608E-02  0.1341375E+00
          2   -1    0    0  502    0  0.00000000000E+00  0.00000000000E+00  0.12688402365E+04  0.12688402365E+04  0.00000000000E+00 0. -1.
          1   -1    0    0  501    0 -0.00000000000E+00 -0.00000000000E+00 -0.20521995693E+03  0.20521995693E+03  0.00000000000E+00 0. -1.
         25    2    1    2    0    0 -0.74159128388E+02  0.74088787210E+02  0.27578610716E+03  0.32042430506E+03  0.12500013462E+03 0.  0.
          2    1    1    2  501    0  0.92791283995E+02 -0.15720524868E+02 -0.16974985497E+03  0.19409371590E+03  0.00000000000E+00 0. -1.
          1    1    1    2  502    0 -0.18632155606E+02 -0.58368262342E+02  0.95758402735E+03  0.95954217245E+03  0.00000000000E+00 0. -1.
         22    1    3    3    0    0 -0.57714704981E+02 -0.17483272947E+02  0.58318648956E+02  0.83891100959E+02  0.00000000000E+00 0. -1.
         22    1    3    3    0    0 -0.16444423407E+02  0.91572060157E+02  0.21746745820E+03  0.23653320410E+03  0.00000000000E+00 0. -1.
</event>
<event>
 7    1  0.6315518E-006  0.6695429E+02  0.7818608E-02  0.1393905E+00
          2   -1    0    0  502    0  0.00000000000E+00  0.00000000000E+00  0.67709783367E+03  0.67709783367E+03  0.00000000000E+00 0. -1.
          1   -1    0    0  501    0 -0.00000000000E+00 -0.00000000000E+00 -0.22159395126E+03  0.22159395126E+03  0.00000000000E+00 0. -1.
         25    2    1    2    0    0 -0.96527662575E+01 -0.35985615971E+02  0.83005550588E+02  0.15460542101E+03  0.12499909730E+03 0.  0.
          2    1    1    2  501    0  0.64253188737E+02  0.26165245063E+02 -0.17787420867E+03  0.19092492352E+03  0.00000000000E+00 0. -1.
          1    1    1    2  502    0 -0.54600422479E+02  0.98203709077E+01  0.55037254049E+03  0.55316144040E+03  0.00000000000E+00 0. -1.
         22    1    3    3    0    0  0.48126912325E+02 -0.45034551958E+02  0.66966891889E+02  0.93962094322E+02  0.00000000000E+00 0.  1.
         22    1    3    3    0    0 -0.57779678582E+02  0.90489359870E+01  0.16038658698E+02  0.60643326693E+02  0.00000000000E+00 0.  1.
</event>
<event>
 7    1  0.6315518E-006  0.7068715E+02  0.7818608E-02  0.1418608E+00
          2   -1    0    0  502    0  0.00000000000E+00  0.00000000000E+00  0.34314975345E+03  0.34314975345E+03  0.00000000000E+00 0. -1.
          1   -1    0    0  501    0 -0.00000000000E+00 -0.00000000000E+00 -0.18828633184E+04  0.18828633184E+04  0.00000000000E+00 0. -1.
         25    2    1    2    0    0 -0.71622320300E+02 -0.20610402339E+02  0.22561025762E+03  0.26847585967E+03  0.12499901372E+03 0.  0.
          2    1    1    2  501    0  0.19060376230E+01  0.43246036290E+02 -0.18471640104E+04  0.18476711649E+04  0.00000000000E+00 0. -1.
          1    1    1    2  502    0  0.69716282677E+02 -0.22635633951E+02  0.81840187791E+02  0.10986604722E+03  0.00000000000E+00 0. -1.
         22    1    3    3    0    0 -0.20751595132E+02  0.51953764255E+02  0.72592360570E+02  0.91648639564E+02  0.00000000000E+00 0. -1.
         22    1    3    3    0    0 -0.50870725168E+02 -0.72564166594E+02  0.15301789705E+03  0.17682722010E+03  0.00000000000E+00 0. -1.
</event>
<event>
 7    1  0.6315518E-006  0.1468969E+03  0.7818608E-02  0.1227037E+00
          2   -1    0    0  502    0  0.00000000000E+00  0.00000000000E+00  0.11576276218E+04  0.11576276218E+04  0.00000000000E+00 0. -1.
          1   -1    0    0  501    0 -0.00000000000E+00 -0.00000000000E+00 -0.21722293491E+04  0.21722293491E+04  0.00000000000E+00 0. -1.
         25    2    1    2    0    0  0.91690254332E+02  0.45961225500E+02  0.46269511518E+03  0.49013616614E+03  0.12500861875E+03 0.  0.
          2    1    1    2  501    0  0.25513343324E+02 -0.14466433305E+03 -0.21473510291E+04  0.21523696574E+04  0.00000000000E+00 0. -1.
          1    1    1    2  502    0 -0.11720359766E+03  0.98703107555E+02  0.67005418663E+03  0.68735114735E+03  0.00000000000E+00 0. -1.
         22    1    3    3    0    0 -0.18583490344E+02  0.10105772781E+02  0.11094914442E+02  0.23886604684E+02  0.00000000000E+00 0. -1.
         22    1    3    3    0    0  0.11027374468E+03  0.35855452719E+02  0.45160020074E+03  0.46624956146E+03  0.00000000000E+00 0. -1.
</event>
<event>
 7    1  0.6315518E-006  0.1751649E+03  0.7818608E-02  0.1227376E+00
          2   -1    0    0  502    0  0.00000000000E+00  0.00000000000E+00  0.40914828698E+03  0.40914828698E+03  0.00000000000E+00 0. -1.
          1   -1    0    0  501    0 -0.00000000000E+00 -0.00000000000E+00 -0.13450451156E+04  0.13450451156E+04  0.00000000000E+00 0. -1.
         25    2    1    2    0    0 -0.25202101408E+03 -0.37076419038E+02 -0.44778347404E+03  0.53011855988E+03  0.12500558195E+03 0.  0.
          2    1    1    2  501    0  0.92511644257E+02 -0.27666728295E+02 -0.83301799891E+03  0.83859575403E+03  0.00000000000E+00 0. -1.
          1    1    1    2  502    0  0.15950936983E+03  0.64743147333E+02  0.34490464428E+03  0.38547908872E+03  0.00000000000E+00 0. -1.
         22    1    3    3    0    0 -0.15827976324E+03  0.35988733563E+02 -0.29312197827E+03  0.33506442148E+03  0.00000000000E+00 0. -1.
         22    1    3    3    0    0 -0.93741250848E+02 -0.73065152601E+02 -0.15466149577E+03  0.19505413840E+03  0.00000000000E+00 0. -1.
</event>
<event>
 7    1  0.6315518E-006  0.8593550E+02  0.7818608E-02  0.1353112E+00
          2   -1    0    0  502    0  0.00000000000E+00  0.00000000000E+00  0.47495233908E+03  0.47495233908E+03  0.00000000000E+00 0. -1.
          1   -1    0    0  501    0 -0.00000000000E+00 -0.00000000000E+00 -0.15907492553E+04  0.15907492553E+04  0.00000000000E+00 0. -1.
         25    2    1    2    0    0  0.82198045187E+02 -0.99765089307E+01 -0.26347191473E+03  0.30314821986E+03  0.12500137595E+03 0.  0.
          2    1    1    2  501    0 -0.25337190999E+02 -0.54919794664E+02 -0.13026417251E+04  0.13040450993E+04  0.00000000000E+00 0. -1.
          1    1    1    2  502    0 -0.56860854189E+02  0.64896303595E+02  0.45031672355E+03  0.45850827525E+03  0.00000000000E+00 0. -1.
         22    1    3    3    0    0  0.32220958240E+02 -0.52772784113E+02 -0.49248176359E+02  0.79047705644E+02  0.00000000000E+00 0.  1.
         22    1    3    3    0    0  0.49977086947E+02  0.42796275182E+02 -0.21422373837E+03  0.22410051421E+03  0.00000000000E+00 0.  1.
</event>
<event>
 7    1  0.6315518E-006  0.1280208E+03  0.7818608E-02  0.1324264E+00
          2   -1    0    0  502    0  0.00000000000E+00  0.00000000000E+00  0.76105034273E+03  0.76105034273E+03  0.00000000000E+00 0. -1.
          1   -1    0    0  501    0 -0.00000000000E+00 -0.00000000000E+00 -0.10174731470E+04  0.10174731470E+04  0.00000000000E+00 0. -1.
         25    2    1    2    0    0 -0.23388272480E+02  0.73177264511E+02  0.23965546158E+03  0.28100003240E+03  0.12499741841E+03 0.  0.
          2    1    1    2  501    0  0.43833532164E+02 -0.12115599771E+03 -0.99126235319E+03  0.99960052379E+03  0.00000000000E+00 0. -1.
          1    1    1    2  502    0 -0.20445259684E+02  0.47978733195E+02  0.49518408729E+03  0.49792293358E+03  0.00000000000E+00 0. -1.
         22    1    3    3    0    0  0.39022063495E+02  0.13260409775E+02  0.21864605563E+02  0.46654269721E+02  0.00000000000E+00 0.  1.
         22    1    3    3    0    0 -0.62410335975E+02  0.59916854736E+02  0.21779085602E+03  0.23434576268E+03  0.00000000000E+00 0.  1.
</event>
<event>
 7    1  0.6315518E-006  0.9169059E+02  0.7818608E-02  0.1427631E+00
          2   -1    0    0  502    0  0.00000000000E+00  0.00000000000E+00  0.11463543364E+04  0.11463543364E+04  0.00000000000E+00 0. -1.
          1   -1    0    0  501    0 -0.00000000000E+00 -0.00000000000E+00 -0.69889344611E+03  0.69889344611E+03  0.00000000000E+00 0. -1.
         25    2    1    2    0    0 -0.87628907971E+02 -0.66982121119E+02 -0.35564880280E+03  0.39277849785E+03  0.12499378935E+03 0.  0.
          2    1    1    2  501    0  0.56524670288E+02  0.65393649226E+02 -0.31870696500E+03  0.33022037679E+03  0.00000000000E+00 0. -1.
          1    1    1    2  502    0  0.31104237684E+02  0.15884718938E+01  0.11218166581E+04  0.11222489079E+04  0.00000000000E+00 0. -1.
         22    1    3    3    0    0 -0.74679743459E+02 -0.99423673287E+02 -0.31786911102E+03  0.34132521535E+03  0.00000000000E+00 0.  1.
         22    1    3    3    0    0 -0.12949164512E+02  0.32441552167E+02 -0.37779691777E+02  0.51453282493E+02  0.00000000000E+00 0.  1.
</event>
<event>
 7    1  0.6315518E-006  0.9191089E+02  0.7818608E-02  0.1381798E+00
          2   -1    0    0  502    0  0.00000000000E+00  0.00000000000E+00  0.85635165706E+02  0.85635165706E+02  0.00000000000E+00 0. -1.
          1   -1    0    0  501    0 -0.00000000000E+00 -0.00000000000E+00 -0.23190399345E+04  0.23190399345E+04  0.00000000000E+00 0. -1.
         25    2    1    2    0    0  0.62800391858E+02  0.20192866504E+02 -0.46388909618E+03  0.48494337522E+03  0.12500137014E+03 0.  0.
          2    1    1    2  501    0  0.30267603598E+02 -0.32697230017E+02 -0.18148919410E+04  0.18154387883E+04  0.00000000000E+00 0. -1.
          1    1    1    2  502    0 -0.93067995456E+02  0.12504363513E+02  0.45376268447E+02  0.10429293659E+03  0.00000000000E+00 0. -1.
         22    1    3    3    0    0  0.92103651780E+02 -0.13757440308E+02 -0.25983846363E+03  0.27602242122E+03  0.00000000000E+00 0.  1.
         22    1    3    3    0    0 -0.29303259923E+02  0.33950306812E+02 -0.20405063255E+03  0.20892095400E+03  0.00000000000E+00 0.  1.
</event>
<event>
 7    1  0.6315518E-006  0.1130467E+03  0.7818608E-02  0.1314568E+00
          2   -1    0    0  502    0  0.00000000000E+00  0.00000000000E+00  0.79849083828E+03  0.79849083828E+03  0.00000000000E+00 0. -1.
          1   -1    0    0  501    0 -0.00000000000E+00 -0.00000000000E+00 -0.71592018374E+03  0.71592018374E+03  0.00000000000E+00 0. -1.
         25    2    1    2    0    0  0.52283765346E+02 -0.25644744886E+02 -0.13349338441E+03  0.19192532705E+03  0.12499440957E+03 0.  0.
          2    1    1    2  501    0  0.62017136761E+02  0.17397017165E+02 -0.54704295245E+03  0.55082190705E+03  0.00000000000E+00 0. -1.
          1    1    1    2  502    0 -0.11430090211E+03  0.82477277202E+01  0.76310699141E+03  0.77166378791E+03  0.00000000000E+00 0. -1.
         22    1    3    3    0    0  0.75750597230E+02 -0.45647091938E+02 -0.47114238186E+02  0.10020759164E+03  0.00000000000E+00 0.  1.
         22    1    3    3    0    0 -0.23466831884E+02  0.20002347053E+02 -0.86379146225E+02  0.91717735411E+02  0.00000000000E+00 0.  1.
</event>
<event>
 7    1  0.6315518E-006  0.5218967E+02  0.7818608E-02  0.1469060E+00
          2   -1    0    0  502    0  0.00000000000E+00  0.00000000000E+00  0.14271675915E+03  0.14271675915E+03  0.00000000000E+00 0. -1.
          1   -1    0    0  501    0 -0.00000000000E+00 -0.00000000000E+00 -0.92279388164E+03  0.92279388164E+03  0.00000000000E+00 0. -1.
         25    2    1    2    0    0  0.66602357715E+01  0.45490339189E+02 -0.88207083142E+02  0.15975161419E+03  0.12500543596E+03 0.  0.
          2    1    1    2  501    0  0.33358725938E+02 -0.40798835937E+02 -0.79411463180E+03  0.79586141887E+03  0.00000000000E+00 0. -1.
          1    1    1    2  502    0 -0.40018961710E+02 -0.46915032521E+01  0.10224459245E+03  0.10989760773E+03  0.00000000000E+00 0. -1.
         22    1    3    3    0    0 -0.55497979619E+02  0.43691315098E+02 -0.52871769672E+02  0.88229137959E+02  0.00000000000E+00 0. -1.
         22    1    3    3    0    0  0.62158215390E+02  0.17990240907E+01 -0.35335313470E+02  0.71522476231E+02  0.00000000000E+00 0. -1.
</event>
<event>
 7    1  0.6315518E-006  0.1281425E+03  0.7818608E-02  0.1236595E+00
          2   -1    0    0  502    0  0.00000000000E+00  0.00000000000E+00  0.62455233983E+03  0.62455233983E+03  0.00000000000E+00 0. -1.
          1   -1    0    0  501    0 -0.00000000000E+00 -0.00000000000E+00 -0.35345953795E+03  0.35345953795E+03  0.00000000000E+00 0. -1.
         25    2    1    2    0    0 -0.72863545470E+02 -0.13362650615E+03  0.14593684973E+03  0.24512761486E+03  0.12499937620E+03 0.  0.
          2    1    1    2  501    0 -0.56528571315E+02  0.10590464040E+03 -0.28107824316E+03  0.30564072211E+03  0.00000000000E+00 0. -1.
          1    1    1    2  502    0  0.12939211679E+03  0.27721865754E+02  0.40623419531E+03  0.42724354081E+03  0.00000000000E+00 0. -1.
         22    1    3    3    0    0 -0.28970082683E+02 -0.28892365753E+02  0.12252968952E+03  0.12918033636E+03  0.00000000000E+00 0. -1.
         22    1    3    3    0    0 -0.43893462787E+02 -0.10473414040E+03  0.23407160218E+02  0.11594727849E+03  0.00000000000E+00 0. -1.
</event>
<event>
 7    1  0.6315518E-006  0.8562023E+02  0.7818608E-02  0.1334536E+00
          2   -1    0    0  502    0  0.00000000000E+00  0.00000000000E+00  0.21723942423E+04  0.21723942423E+04  0.00000000000E+00 0. -1.
          1   -1    0    0  501    0 -0.00000000000E+00 -0.00000000000E+00 -0.86577385828E+02  0.86577385828E+02  0.00000000000E+00 0. -1.
         25    2    1    2    0    0  0.87686675852E+02 -0.64941156380E+02  0.27658825918E+03  0.32254205049E+03  0.12500400916E+03 0.  0.
          2    1    1    2  501    0 -0.85419131617E+02 -0.62602933366E+01 -0.33762203708E+02  0.92062509840E+02  0.00000000000E+00 0. -1.
          1    1    1    2  502    0 -0.22675442353E+01  0.71201449717E+02  0.18429908010E+04  0.18443670678E+04  0.00000000000E+00 0. -1.
         22    1    3    3    0    0  0.88155389166E+02 -0.11869868524E+02  0.82470989715E+02  0.12130016720E+03  0.00000000000E+00 0.  1.
         22    1    3    3    0    0 -0.46871331421E+00 -0.53071287856E+02  0.19411726946E+03  0.20124188329E+03  0.00000000000E+00 0.  1.
</event>
<event>
 7    1  0.6315518E-006  0.5238077E+02  0.7818608E-02  0.1505332E+00
          2   -1    0    0  502    0  0.00000000000E+00  0.00000000000E+00  0.12761673258E+03  0.12761673258E+03  0.00000000000E+00 0. -1.
          1   -1    0    0  501    0 -0.00000000000E+00 -0.00000000000E+00 -0.63931083955E+03  0.63931083955E+03  0.00000000000E+00 0. -1.
         25    2    1    2    0    0 -0.62542713698E+02  0.47546849060E+02 -0.39044735406E+03  0.41742911313E+03  0.12500253717E+03 0.  0.
          2    1    1    2  501    0  0.35972371832E+02 -0.31287814629E+02 -0.23076396508E+03  0.23563731975E+03  0.00000000000E+00 0. -1.
          1    1    1    2  502    0  0.26570341866E+02 -0.16259034431E+02  0.10951721218E+03  0.11386113925E+03  0.00000000000E+00 0. -1.
         22    1    3    3    0    0 -0.51475985815E+00  0.62906523967E+02 -0.30098323328E+03  0.30748723949E+03  0.00000000000E+00 0.  1.
         22    1    3    3    0    0 -0.62027953840E+02 -0.15359674907E+02 -0.89464120786E+02  0.10994187364E+03  0.00000000000E+00 0.  1.
</event>
<event>
 7    1  0.6315518E-006  0.9378361E+02  0.7818608E-02  0.1404660E+00
          2   -1    0    0  502    0  0.00000000000E+00  0.00000000000E+00  0.13350487557E+04  0.13350487557E+04  0.00000000000E+00 0. -1.
          1   -1    0    0  501    0 -0.00000000000E+00 -0.00000000000E+00 -0.10188244995E+04  0.10188244995E+04  0.00000000000E+00 0. -1.
         25    2    1    2    0    0  0.43412429077E+02 -0.50723935251E+02 -0.73788448325E+02  0.15977165138E+03  0.12499875548E+03 0.  0.
          2    1    1    2  501    0 -0.39656533780E+02  0.86899039127E+02 -0.89925856731E+03  0.90431745232E+03  0.00000000000E+00 0. -1.
          1    1    1    2  502    0 -0.37558952974E+01 -0.36175103876E+02  0.12892712719E+04  0.12897841515E+04  0.00000000000E+00 0. -1.
         22    1    3    3    0    0 -0.25725928064E+02 -0.31159070366E+02  0.17129936690E+02  0.43887877276E+02  0.00000000000E+00 0.  1.
         22    1    3    3    0    0  0.69138357141E+02 -0.19564864885E+02 -0.90918385015E+02  0.11588377410E+03  0.00000000000E+00 0.  1.
</event>
<event>
 7    1  0.6315518E-006  0.2285084E+03  0.7818608E-02  0.1246682E+00
          2   -1    0    0  502    0  0.00000000000E+00  0.00000000000E+00  0.59675795794E+03  0.59675795794E+03  0.00000000000E+00 0. -1.
          1   -1    0    0  501    0 -0.00000000000E+00 -0.00000000000E+00 -0.20524814424E+03  0.20524814424E+03  0.00000000000E+00 0. -1.
         25    2    1    2    0    0 -0.29719951326E+02  0.19572049147E+03  0.27361721228E+03  0.36011224259E+03  0.12499864846E+03 0.  0.
          2    1    1    2  501    0 -0.14144681925E+02 -0.23779608734E+03 -0.66842262542E+02  0.24741652985E+03  0.00000000000E+00 0. -1.
          1    1    1    2  502    0  0.43864633251E+02  0.42075595878E+02  0.18473486396E+03  0.19447732973E+03  0.00000000000E+00 0. -1.
         22    1    3    3    0    0 -0.74823679080E+02  0.11345629839E+03  0.19511707629E+03  0.23778475152E+03  0.00000000000E+00 0.  1.
         22    1    3    3    0    0  0.45103727753E+02  0.82264193080E+02  0.78500135996E+02  0.12232749107E+03  0.00000000000E+00 0.  1.
</event>
<event>
 7    1  0.6315518E-006  0.9894936E+02  0.7818608E-02  0.1309786E+00
          2   -1    0    0  502    0  0.00000000000E+00  0.00000000000E+00  0.11314344312E+04  0.11314344312E+04  0.00000000000E+00 0. -1.
          1   -1    0    0  501    0 -0.00000000000E+00 -0.00000000000E+00 -0.22229900448E+03  0.22229900448E+03  0.00000000000E+00 0. -1.
         25    2    1    2    0    0  0.73338934632E+02  0.83211702677E+02 -0.34788242630E+02  0.17069891361E+03  0.12500044194E+03 0.  0.
          2    1    1    2  501    0  0.25408655624E+02 -0.72517227113E+02 -0.10461479969E+03  0.12980217380E+03  0.00000000000E+00 0. -1.
          1    1    1    2  502    0 -0.98747590256E+02 -0.10694475564E+02  0.10485384690E+04  0.10532323483E+04  0.00000000000E+00 0. -1.
         22    1    3    3    0    0  0.29282943802E+02  0.75783705798E+02 -0.75015000375E+02  0.11057988580E+03  0.00000000000E+00 0.  1.
         22    1    3    3    0    0  0.44055990830E+02  0.74279968790E+01  0.40226757745E+02  0.60119027806E+02  0.00000000000E+00 0.  1.
</event>
<event>
 7    1  0.6315518E-006  0.1574375E+03  0.7818608E-02  0.1266014E+00
          2   -1    0    0  502    0  0.00000000000E+00  0.00000000000E+00  0.40055088423E+03  0.40055088423E+03  0.00000000000E+00 0. -1.
          1   -1    0    0  501    0 -0.00000000000E+00 -0.00000000000E+00 -0.65722722246E+03  0.65722722246E+03  0.00000000000E+00 0. -1.
         25    2    1    2    0    0 -0.68230437606E+02  0.12831783015E+03  0.16100491051E+03  0.25033717030E+03  0.12500103789E+03 0.  0.
          2    1    1    2  501    0  0.56489131204E+02  0.46036787098E+02 -0.57059775417E+03  0.57523230505E+03  0.00000000000E+00 0. -1.
          1    1    1    2  502    0  0.11741306402E+02 -0.17435461725E+03  0.15291650544E+03  0.23220863133E+03  0.00000000000E+00 0. -1.
         22    1    3    3    0    0  0.21683932875E+02 -0.70230651956E+01  0.45786993746E+02  0.51146507074E+02  0.00000000000E+00 0. -1.
         22    1    3    3    0    0 -0.89914370481E+02  0.13534089535E+03  0.11521791677E+03  0.19919066322E+03  0.00000000000E+00 0. -1.
</event>
<event>
 7    1  0.6315518E-006  0.1077661E+03  0.7818608E-02  0.1357740E+00
          2   -1    0    0  502    0  0.00000000000E+00  0.00000000000E+00  0.23214990213E+03  0.23214990213E+03  0.00000000000E+00 0. -1.
          1   -1    0    0  501    0 -0.00000000000E+00 -0.00000000000E+00 -0.19957923607E+04  0.19957923607E+04  0.00000000000E+00 0. -1.
         25    2    1    2    0    0 -0.10550642801E+03  0.11672526100E+02 -0.24300200421E+02  0.16579775259E+03  0.12502216126E+03 0.  0.
          2    1    1    2  501    0  0.92285381685E+02 -0.56126509818E+02 -0.18958424371E+04  0.18989168816E+04  0.00000000000E+00 0. -1.
          1    1    1    2  502    0  0.13221046326E+02  0.44453983717E+02  0.15650017898E+03  0.16322762865E+03  0.00000000000E+00 0. -1.
         22    1    3    3    0    0  0.46248233665E+00  0.13523117621E+02 -0.54048811455E+02  0.55716807337E+02  0.00000000000E+00 0. -1.
         22    1    3    3    0    0 -0.10596891035E+03 -0.18505915210E+01  0.29748611034E+02  0.11008094525E+03  0.00000000000E+00 0. -1.
</event>
<event>
 7    1  0.6315518E-006  0.6263573E+02  0.7818608E-02  0.1398820E+00
          2   -1    0    0  502    0  0.00000000000E+00  0.00000000000E+00  0.16457790992E+04  0.16457790992E+04  0.00000000000E+00 0. -1.
          1   -1    0    0  501    0 -0.00000000000E+00 -0.00000000000E+00 -0.10689245183E+03  0.10689245183E+03  0.00000000000E+00 0. -1.
         25    2    1    2    0    0  0.24029771252E+02 -0.18228223657E+01  0.28110027880E+03  0.30858093763E+03  0.12499630292E+03 0.  0.
          2    1    1    2  501    0 -0.35301197923E+02 -0.54078418609E+02 -0.81278744249E+02  0.10381177294E+03  0.00000000000E+00 0. -1.
          1    1    1    2  502    0  0.11271426672E+02  0.55901240975E+02  0.13390651129E+04  0.13402788405E+04  0.00000000000E+00 0. -1.
         22    1    3    3    0    0  0.66071169600E+02 -0.33783507504E+02  0.17420864100E+03  0.18935515687E+03  0.00000000000E+00 0. -1.
         22    1    3    3    0    0 -0.42041398348E+02  0.31960685139E+02  0.10689163779E+03  0.11922578077E+03  0.00000000000E+00 0. -1.
</event>
<event>
 7    1  0.6315518E-006  0.1099349E+03  0.7818608E-02  0.1272510E+00
          2   -1    0    0  502    0  0.00000000000E+00  0.00000000000E+00  0.23437353980E+03  0.23437353980E+03  0.00000000000E+00 0. -1.
          1   -1    0    0  501    0 -0.00000000000E+00 -0.00000000000E+00 -0.64857044762E+03  0.64857044762E+03  0.00000000000E+00 0. -1.
         25    2    1    2    0    0  0.56525631528E+02  0.49110223846E+02  0.82523787280E+01  0.14594703088E+03  0.12500189183E+03 0.  0.
          2    1    1    2  501    0 -0.51183903125E+02  0.83571613936E+02 -0.54653673182E+03  0.55525346089E+03  0.00000000000E+00 0. -1.
          1    1    1    2  502    0 -0.53417284031E+01 -0.13268183778E+03  0.12408744527E+03  0.18174349566E+03  0.00000000000E+00 0. -1.
         22    1    3    3    0    0  0.17559704690E+02  0.71637509050E+02  0.46236374878E+02  0.87052158466E+02  0.00000000000E+00 0. -1.
         22    1    3    3    0    0  0.38965926838E+02 -0.22527285204E+02 -0.37983996150E+02  0.58894872413E+02  0.00000000000E+00 0. -1.
</event>
<event>
 7    1  0.6315518E-006  0.5078527E+02  0.7818608E-02  0.1534499E+00
          2   -1    0    0  502    0  0.00000000000E+00  0.00000000000E+00  0.11602551823E+04  0.11602551823E+04  0.00000000000E+00 0. -1.
          1   -1    0    0  501    0 -0.00000000000E+00 -0.00000000000E+00 -0.66305217515E+02  0.66305217515E+02  0.00000000000E+00 0. -1.
         25    2    1    2    0    0 -0.63417681609E+02  0.35783358823E+02  0.78863886345E+03  0.80179638741E+03  0.12499575513E+03 0.  0.
          2    1    1    2  501    0  0.48557401146E+02 -0.13920549565E+02 -0.48464030191E+02  0.70002608013E+02  0.00000000000E+00 0. -1.
          1    1    1    2  502    0  0.14860280463E+02 -0.21862809259E+02  0.35377513153E+03  0.35476140440E+03  0.00000000000E+00 0. -1.
         22    1    3    3    0    0 -0.84230142547E+02  0.46261058434E+02  0.36251410658E+03  0.37503503824E+03  0.00000000000E+00 0. -1.
         22    1    3    3    0    0  0.20812460938E+02 -0.10477699611E+02  0.42612475688E+03  0.42676134917E+03  0.00000000000E+00 0. -1.
</event>
<event>
 7    1  0.6315518E-006  0.1014603E+03  0.7818608E-02  0.1340327E+00
          2   -1    0    0  502    0  0.00000000000E+00  0.00000000000E+00  0.36062649787E+02  0.36062649787E+02  0.00000000000E+00 0. -1.
          1   -1    0    0  501    0 -0.00000000000E+00 -0.00000000000E+00 -0.17047682257E+04  0.17047682257E+04  0.00000000000E+00 0. -1.
         25    2    1    2    0    0  0.10718204137E+03  0.73122117768E+02 -0.14015151113E+04  0.14130492671E+04  0.12501515821E+03 0.  0.
          2    1    1    2  501    0 -0.55681676825E+02  0.12929764490E+02 -0.19763501742E+03  0.20573582103E+03  0.00000000000E+00 0. -1.
          1    1    1    2  502    0 -0.51500364541E+02 -0.86051882259E+02 -0.69555447153E+02  0.12204578738E+03  0.00000000000E+00 0. -1.
         22    1    3    3    0    0  0.30915609048E+02 -0.21090045309E+02 -0.71040214005E+03  0.71138721206E+03  0.00000000000E+00 0. -1.
         22    1    3    3    0    0  0.76266432318E+02  0.94212163077E+02 -0.69111297130E+03  0.70166205503E+03  0.00000000000E+00 0. -1.
</event>
<event>
 7    1  0.6315518E-006  0.6471531E+02  0.7818608E-02  0.1463645E+00
          2   -1    0    0  502    0  0.00000000000E+00  0.00000000000E+00  0.67603029712E+03  0.67603029712E+03  0.00000000000E+00 0. -1.
          1   -1    0    0  501    0 -0.00000000000E+00 -0.00000000000E+00 -0.19803051756E+04  0.19803051756E+04  0.00000000000E+00 0. -1.
         25    2    1    2    0    0  0.26586885441E+01  0.46969186360E+02 -0.16078056448E+04  0.16133434241E+04  0.12499935779E+03 0.  0.
          2    1    1    2  501    0  0.33046191832E+02  0.70330970481E+01 -0.36739746281E+03  0.36894770758E+03  0.00000000000E+00 0. -1.
          1    1    1    2  502    0 -0.35704880377E+02 -0.54002283408E+02  0.67092822912E+03  0.67404434107E+03  0.00000000000E+00 0. -1.
         22    1    3    3    0    0 -0.36482706278E+02 -0.21276096985E+02 -0.93505377396E+03  0.93600706213E+03  0.00000000000E+00 0. -1.
         22    1    3    3    0    0  0.39141394822E+02  0.68245283345E+02 -0.67275187087E+03  0.67733636197E+03  0.00000000000E+00 0. -1.
</event>
<event>
 7    1  0.6315518E-006  0.5144268E+02  0.7818608E-02  0.1461602E+00
          2   -1    0    0  502    0  0.00000000000E+00  0.00000000000E+00  0.84392159736E+03  0.84392159736E+03  0.00000000000E+00 0. -1.
          1   -1    0    0  501    0 -0.00000000000E+00 -0.00000000000E+00 -0.15983584441E+03  0.15983584441E+03  0.00000000000E+00 0. -1.
         25    2    1    2    0    0  0.43310427878E+01 -0.90496448607E+02 -0.40635995785E+02  0.15963835247E+03  0.12499901713E+03 0.  0.
          2    1    1    2  501    0  0.10999505249E+02  0.41710447069E+02 -0.50953009709E+02  0.66760465164E+02  0.00000000000E+00 0. -1.
          1    1    1    2  502    0 -0.15330548037E+02  0.48786001538E+02  0.77567475844E+03  0.77735862414E+03  0.00000000000E+00 0. -1.
         22    1    3    3    0    0  0.46886409578E+02  0.61043830624E+01 -0.23134530416E+02  0.52638440262E+02  0.00000000000E+00 0. -1.
         22    1    3    3    0    0 -0.42555366790E+02 -0.96600831669E+02 -0.17501465369E+02  0.10699991220E+03  0.00000000000E+00 0. -1.
</event>
<event>
 7    1  0.6315518E-006  0.8944593E+02  0.7818608E-02  0.1466664E+00
          2   -1    0    0  502    0  0.00000000000E+00  0.00000000000E+00  0.24875358912E+03  0.24875358912E+03  0.00000000000E+00 0. -1.
          1   -1    0    0  501    0 -0.00000000000E+00 -0.00000000000E+00 -0.36147477413E+03  0.36147477413E+03  0.00000000000E+00 0. -1.
         25    2    1    2    0    0  0.68545513373E+02 -0.25968646066E+01 -0.98554061951E+02  0.17332996088E+03  0.12500056441E+03 0.  0.
          2    1    1    2  501    0  0.21484044178E+02 -0.10512870511E+02 -0.21504880887E+03  0.21637484789E+03  0.00000000000E+00 0. -1.
          1    1    1    2  502    0 -0.90029557551E+02  0.13109735117E+02  0.20088168581E+03  0.22052355449E+03  0.00000000000E+00 0. -1.
         22    1    3    3    0    0  0.87320338855E+02  0.14848265253E+02 -0.11326021198E+03  0.14378173798E+03  0.00000000000E+00 0.  1.
         22    1    3    3    0    0 -0.18774825482E+02 -0.17445129859E+02  0.14706150033E+02  0.29548222899E+02  0.00000000000E+00 0.  1.
</event>
<event>
 7    1  0.6315518E-006  0.8077484E+02  0.7818608E-02  0.1463997E+00
          2   -1    0    0  502    0  0.00000000000E+00  0.00000000000E+00  0.26261013710E+04  0.26261013710E+04  0.00000000000E+00 0. -1.
          1   -1    0    0  501    0 -0.00000000000E+00 -0.00000000000E+00 -0.30135475481E+02  0.30135475481E+02  0.00000000000E+00 0. -1.
         25    2    1    2    0    0 -0.97811655743E+02  0.12095304046E+02  0.11276107723E+04  0.11387905242E+04  0.12499755095E+03 0.  0.
          2    1    1    2  501    0  0.20211499968E+02 -0.17902561545E+02 -0.15779528081E+02  0.31272990699E+02  0.00000000000E+00 0. -1.
          1    1    1    2  502    0  0.77600155775E+02  0.58072574986E+01  0.14841346513E+04  0.14861733316E+04  0.00000000000E+00 0. -1.
         22    1    3    3    0    0 -0.60010227301E+02 -0.53179302099E+02  0.46047364126E+03  0.46740265280E+03  0.00000000000E+00 0.  1.
         22    1    3    3    0    0 -0.37801428442E+02  0.65274606145E+02  0.66713713109E+03  0.67138787141E+03  0.00000000000E+00 0.  1.
</event>
<event>
 7    1  0.6315518E-006  0.1866390E+03  0.7818608E-02  0.1255612E+00
          2   -1    0    0  502    0  0.00000000000E+00  0.00000000000E+00  0.44355493887E+03  0.44355493887E+03  0.00000000000E+00 0. -1.
          1   -1    0    0  501    0 -0.00000000000E+00 -0.00000000000E+00 -0.93824543515E+03  0.93824543515E+03  0.00000000000E+00 0. -1.
         25    2    1    2    0    0 -0.92609110154E+02 -0.11578757290E+03 -0.14010082713E+03  0.23925149010E+03  0.12501929623E+03 0.  0.
          2    1    1    2  501    0  0.77596865503E+02  0.18219003877E+03 -0.73237688012E+03  0.75867672845E+03  0.00000000000E+00 0. -1.
          1    1    1    2  502    0  0.15012244651E+02 -0.66402465874E+02  0.37778721098E+03  0.38387215547E+03  0.00000000000E+00 0. -1.
         22    1    3    3    0    0 -0.94142974054E+01 -0.98010765863E+02 -0.11319308380E+03  0.15002470943E+03  0.00000000000E+00 0. -1.
         22    1    3    3    0    0 -0.83194812749E+02 -0.17776807037E+02 -0.26907743338E+02  0.89226780668E+02  0.00000000000E+00 0. -1.
</event>
<event>
 7    1  0.6315518E-006  0.4308349E+02  0.7818608E-02  0.1487992E+00
          2   -1    0    0  502    0  0.00000000000E+00  0.00000000000E+00  0.15659580789E+04  0.15659580789E+04  0.00000000000E+00 0. -1.
          1   -1    0    0  501    0 -0.00000000000E+00 -0.00000000000E+00 -0.12129975636E+04  0.12129975636E+04  0.00000000000E+00 0. -1.
         25    2    1    2    0    0  0.68855290319E+02  0.45128756063E+01  0.26929843686E+02  0.14529781169E+03  0.12499928220E+03 0.  0.
          2    1    1    2  501    0 -0.35886439829E+02  0.23118084243E+02 -0.11531059471E+04  0.11538958391E+04  0.00000000000E+00 0. -1.
          1    1    1    2  502    0 -0.32968850489E+02 -0.27630959849E+02  0.14791366188E+04  0.14797619917E+04  0.00000000000E+00 0. -1.
         22    1    3    3    0    0 -0.33682411235E+02  0.14373190702E+02  0.20775043700E+02  0.42103395092E+02  0.00000000000E+00 0. -1.
         22    1    3    3    0    0  0.10253770155E+03 -0.98603150953E+01  0.61547999864E+01  0.10319441660E+03  0.00000000000E+00 0. -1.
</event>
<event>
 7    1  0.6315518E-006  0.1372288E+03  0.7818608E-02  0.1368952E+00
          2   -1    0    0  502    0  0.00000000000E+00  0.00000000000E+00  0.27861626246E+04  0.27861626246E+04  0.00000000000E+00 0. -1.
          1   -1    0    0  501    0 -0.00000000000E+00 -0.00000000000E+00 -0.13981251430E+04  0.13981251430E+04  0.00000000000E+00 0. -1.
         25    2    1    2    0    0  0.74009323777E+02 -0.83883287827E+02  0.22147787186E+03  0.27783250646E+03  0.12499867174E+03 0.  0.
          2    1    1    2  501    0  0.32757217338E+02 -0.51643614648E+01 -0.13678416728E+04  0.13682435996E+04  0.00000000000E+00 0. -1.
          1    1    1    2  502    0 -0.10676654111E+03  0.89047649292E+02  0.25344012825E+04  0.25382116616E+04  0.00000000000E+00 0. -1.
         22    1    3    3    0    0  0.72062547405E+01 -0.78536988719E+02  0.18594399079E+03  0.20197810876E+03  0.00000000000E+00 0.  1.
         22    1    3    3    0    0  0.66803069037E+02 -0.53462991086E+01  0.35533881068E+02  0.75854397701E+02  0.00000000000E+00 0.  1.
</event>
<event>
 7    1  0.6315518E-006  0.8253040E+02  0.7818608E-02  0.1354814E+00
          2   -1    0    0  502    0  0.00000000000E+00  0.00000000000E+00  0.11325379761E+04  0.11325379761E+04  0.00000000000E+00 0. -1.
          1   -1    0    0  501    0 -0.00000000000E+00 -0.00000000000E+00 -0.13555043022E+03  0.13555043022E+03  0.00000000000E+00 0. -1.
         25    2    1    2    0    0 -0.75994820682E+02 -0.11722510769E+03  0.48324389039E+01  0.18752469244E+03  0.12500087665E+03 0.  0.
          2    1    1    2  501    0  0.18692350413E+02  0.59194790928E+02 -0.19930933390E+02  0.65197157475E+02  0.00000000000E+00 0. -1.
          1    1    1    2  502    0  0.57302470269E+02  0.58030316765E+02  0.10120860404E+04  0.10153665564E+04  0.00000000000E+00 0. -1.
         22    1    3    3    0    0 -0.78828971700E+02 -0.69194433477E+02  0.54644081348E+02  0.11827024998E+03  0.00000000000E+00 0.  1.
         22    1    3    3    0    0  0.28341510176E+01 -0.48030674216E+02 -0.49811642444E+02  0.69254442461E+02  0.00000000000E+00 0.  1.
</event>
<event>
 7    1  0.6315518E-006  0.1014144E+03  0.7818608E-02  0.1315212E+00
          2   -1    0    0  502    0  0.00000000000E+00  0.00000000000E+00  0.93878315997E+03  0.93878315997E+03  0.00000000000E+00 0. -1.
          1   -1    0    0  501    0 -0.00000000000E+00 -0.00000000000E+00 -0.44684747262E+03  0.44684747262E+03  0.00000000000E+00 0. -1.
         25    2    1    2    0    0  0.90907354645E+02  0.43884219766E+02  0.10648601507E+03  0.19275879250E+03  0.12500683504E+03 0.  0.
          2    1    1    2  501    0 -0.98843448884E+02  0.27056978990E+02 -0.39555355043E+03  0.40861316518E+03  0.00000000000E+00 0. -1.
          1    1    1    2  502    0  0.79360942393E+01 -0.70941198756E+02  0.78100322272E+03  0.78425867491E+03  0.00000000000E+00 0. -1.
         22    1    3    3    0    0  0.32050831081E+02  0.81232452823E+02  0.79232056172E+02  0.11791389184E+03  0.00000000000E+00 0.  1.
         22    1    3    3    0    0  0.58856523564E+02 -0.37348233057E+02  0.27253958898E+02  0.74844900656E+02  0.00000000000E+00 0.  1.
</event>
<event>
 7    1  0.6315518E-006  0.5873382E+02  0.7818608E-02  0.1463619E+00
          2   -1    0    0  502    0  0.00000000000E+00  0.00000000000E+00  0.26620505069E+03  0.26620505069E+03  0.00000000000E+00 0. -1.
          1   -1    0    0  501    0 -0.00000000000E+00 -0.00000000000E+00 -0.92020267260E+03  0.92020267260E+03  0.00000000000E+00 0. -1.
         25    2    1    2    0    0  0.55894085688E+02  0.19615094052E+02 -0.88353395213E+02  0.16413589202E+03  0.12500147148E+03 0.  0.
          2    1    1    2  501    0  0.48270580253E+00 -0.37230934302E+02 -0.78969199368E+03  0.79056930142E+03  0.00000000000E+00 0. -1.
          1    1    1    2  502    0 -0.56376791490E+02  0.17615840249E+02  0.22404776699E+03  0.23170252985E+03  0.00000000000E+00 0. -1.
         22    1    3    3    0    0  0.46935883827E+02 -0.45210645691E+02 -0.71120888114E+02  0.96463259330E+02  0.00000000000E+00 0. -1.
         22    1    3    3    0    0  0.89582018604E+01  0.64825739743E+02 -0.17232507099E+02  0.67672632686E+02  0.00000000000E+00 0. -1.
</event>
<event>
 7    1  0.6315518E-006  0.1985315E+03  0.7818608E-02  0.1229285E+00
          2   -1    0    0  502    0  0.00000000000E+00  0.00000000000E+00  0.18265113900E+04  0.18265113900E+04  0.00000000000E+00 0. -1.
          1   -1    0    0  501    0 -0.00000000000E+00 -0.00000000000E+00 -0.90219596217E+03  0.90219596217E+03  0.00000000000E+00 0. -1.
         25    2    1    2    0    0  0.41930658111E+02  0.12847093253E+03  0.19630554346E+02  0.18512971166E+03  0.12499876351E+03 0.  0.
          2    1    1    2  501    0 -0.12819585352E+02 -0.20676242419E+03 -0.80531796018E+03  0.83153596363E+03  0.00000000000E+00 0. -1.
          1    1    1    2  502    0 -0.29111072759E+02  0.78291491656E+02  0.17100028336E+04  0.17120416768E+04  0.00000000000E+00 0. -1.
         22    1    3    3    0    0  0.77471871483E+02  0.12652960693E+03  0.13089318401E+02  0.14893945937E+03  0.00000000000E+00 0.  1.
         22    1    3    3    0    0 -0.35541213372E+02  0.19413256014E+01  0.65412359443E+01  0.36190252289E+02  0.00000000000E+00 0.  1.
</event>
<event>
 7    1  0.6315518E-006  0.5684625E+02  0.7818608E-02  0.1479777E+00
          2   -1    0    0  502    0  0.00000000000E+00  0.00000000000E+00  0.22634466781E+03  0.22634466781E+03  0.00000000000E+00 0. -1.
          1   -1    0    0  501    0 -0.00000000000E+00 -0.00000000000E+00 -0.29654962471E+03  0.29654962471E+03  0.00000000000E+00 0. -1.
         25    2    1    2    0    0  0.51756285111E+02 -0.26413453854E+02 -0.58812194473E+02  0.14986556707E+03  0.12499772151E+03 0.  0.
          2    1    1    2  501    0 -0.27503941985E+02  0.50633575008E+02 -0.18619018336E+03  0.19490256572E+03  0.00000000000E+00 0. -1.
          1    1    1    2  502    0 -0.24252343126E+02 -0.24220121154E+02  0.17479742093E+03  0.17812615973E+03  0.00000000000E+00 0. -1.
         22    1    3    3    0    0 -0.12751349371E+02 -0.11134027805E+02 -0.78821759046E+02  0.80619062169E+02  0.00000000000E+00 0.  1.
         22    1    3    3    0    0  0.64507634482E+02 -0.15279426049E+02  0.20009564573E+02  0.69246504903E+02  0.00000000000E+00 0.  1.
</event>
<event>
 7    1  0.6315518E-006  0.1798050E+03  0.7818608E-02  0.1347789E+00
          2   -1    0    0  502    0  0.00000000000E+00  0.00000000000E+00  0.14374174809E+04  0.14374174809E+04  0.00000000000E+00 0. -1.
          1   -1    0    0  501    0 -0.00000000000E+00 -0.00000000000E+00 -0.22436750253E+04  0.22436750253E+04  0.00000000000E+00 0. -1.
         25    2    1    2    0    0  0.17587031184E+03 -0.11195567174E+03  0.12073219148E+01  0.24308584125E+03  0.12499931827E+03 0.  0.
          2    1    1    2  501    0 -0.14765452737E+03  0.10105274246E+03 -0.21187907230E+04  0.21263319694E+04  0.00000000000E+00 0. -1.
          1    1    1    2  502    0 -0.28215784478E+02  0.10902929276E+02  0.13113258568E+04  0.13116746956E+04  0.00000000000E+00 0. -1.
         22    1    3    3    0    0  0.15746291045E+03 -0.72490568795E+02 -0.45507813484E+02  0.17922168345E+03  0.00000000000E+00 0.  1.
         22    1    3    3    0    0  0.18407401398E+02 -0.39465102945E+02  0.46715135399E+02  0.63864157804E+02  0.00000000000E+00 0.  1.
</event>
<event>
 7    1  0.6315518E-006  0.1326416E+03  0.7818608E-02  0.1295402E+00
          2   -1    0    0  502    0  0.00000000000E+00  0.00000000000E+00  0.58983155685E+03  0.58983155685E+03  0.00000000000E+00 0. -1.
          1   -1    0    0  501    0 -0.00000000000E+00 -0.00000000000E+00 -0.27054831035E+03  0.27054831035E+03  0.00000000000E+00 0. -1.
         25    2    1    2    0    0 -0.10537882217E+03  0.77424459027E+02 -0.10165288013E+03  0.20749794161E+03  0.12499137856E+03 0.  0.
          2    1    1    2  501    0  0.13954432135E+03 -0.21641714305E+02 -0.69997739537E+02  0.15760921597E+03  0.00000000000E+00 0. -1.
          1    1    1    2  502    0 -0.34165499179E+02 -0.55782744722E+02  0.49093386616E+03  0.49527270962E+03  0.00000000000E+00 0. -1.
         22    1    3    3    0    0 -0.95261295047E+02  0.15014931040E+02 -0.11123769077E+02  0.97076777484E+02  0.00000000000E+00 0. -1.
         22    1    3    3    0    0 -0.10117527122E+02  0.62409527987E+02 -0.90529111050E+02  0.11042116412E+03  0.00000000000E+00 0. -1.
</event>
<event>
 7    1  0.6315518E-006  0.1547975E+03  0.7818608E-02  0.1253883E+00
          2   -1    0    0  502    0  0.00000000000E+00  0.00000000000E+00  0.15639857395E+04  0.15639857395E+04  0.00000000000E+00 0. -1.
          1   -1    0    0  501    0 -0.00000000000E+00 -0.00000000000E+00 -0.50354309904E+03  0.50354309904E+03  0.00000000000E+00 0. -1.
         25    2    1    2    0    0 -0.35764680105E+01 -0.86543752545E+02  0.22103399250E+03  0.26829769877E+03  0.12500006839E+03 0.  0.
          2    1    1    2  501    0 -0.49824823619E+02  0.15073664498E+03 -0.46541056309E+03  0.49174286108E+03  0.00000000000E+00 0. -1.
          1    1    1    2  502    0  0.53401291630E+02 -0.64192892431E+02  0.13048192111E+04  0.13074882787E+04  0.00000000000E+00 0. -1.
         22    1    3    3    0    0 -0.12135961020E+02 -0.86669641126E+02  0.57890088960E+02  0.10492936025E+03  0.00000000000E+00 0. -1.
         22    1    3    3    0    0  0.85594930100E+01  0.12588858152E+00  0.16314390354E+03  0.16336833852E+03  0.00000000000E+00 0. -1.
</event>
<event>
 7    1  0.6315518E-006  0.3678706E+02  0.7818608E-02  0.1546978E+00
          2   -1    0    0  502    0  0.00000000000E+00  0.00000000000E+00  0.19463264526E+02  0.19463264526E+02  0.00000000000E+00 0. -1.
          1   -1    0    0  501    0 -0.00000000000E+00 -0.00000000000E+00 -0.54230871749E+03  0.54230871749E+03  0.00000000000E+00 0. -1.
         25    2    1    2    0    0  0.43589820261E+02 -0.10050842968E+02 -0.36646248063E+03  0.38977053836E+03  0.12500092394E+03 0.  0.
          2    1    1    2  501    0 -0.31151135818E+02 -0.21215397447E+02 -0.90130921763E+02  0.97693753175E+02  0.00000000000E+00 0. -1.
          1    1    1    2  502    0 -0.12438684443E+02  0.31266240415E+02 -0.66252050573E+02  0.74307690487E+02  0.00000000000E+00 0. -1.
         22    1    3    3    0    0 -0.12341645615E+02  0.46973268931E+02 -0.18935481377E+03  0.19548414183E+03  0.00000000000E+00 0. -1.
         22    1    3    3    0    0  0.55931465876E+02 -0.57024111899E+02 -0.17710766686E+03  0.19428639652E+03  0.00000000000E+00 0. -1.
</event>
<event>
 7    1  0.6315518E-006  0.1097241E+03  0.7818608E-02  0.1386705E+00
          2   -1    0    0  502    0  0.00000000000E+00  0.00000000000E+00  0.20423646487E+04  0.20423646487E+04  0.00000000000E+00 0. -1.
          1   -1    0    0  501    0 -0.00000000000E+00 -0.00000000000E+00 -0.23426641887E+03  0.23426641887E+03  0.00000000000E+00 0. -1.
         25    2    1    2    0    0 -0.11810074003E+03 -0.33722306990E+02 -0.77985382643E+02  0.19181215687E+03  0.12500081933E+03 0.  0.
          2    1    1    2  501    0  0.84733325074E+01  0.34852242130E+02 -0.94564898851E+02  0.10113850029E+03  0.00000000000E+00 0. -1.
          1    1    1    2  502    0  0.10962740752E+03 -0.11299351397E+01  0.19806485113E+04  0.19836804104E+04  0.00000000000E+00 0. -1.
         22    1    3    3    0    0 -0.18997830160E+02 -0.20378175975E+02  0.32491212488E+02  0.42800309530E+02  0.00000000000E+00 0.  1.
         22    1    3    3    0    0 -0.99102909867E+02 -0.13344131015E+02 -0.11047659513E+03  0.14901184734E+03  0.00000000000E+00 0.  1.
</event>
<event>
 7    1  0.6315518E-006  0.1093949E+03  0.7818608E-02  0.1349339E+00
          2   -1    0    0  502    0  0.00000000000E+00  0.00000000000E+00  0.19695059597E+04  0.19695059597E+04  0.00000000000E+00 0. -1.
          1   -1    0    0  501    0 -0.00000000000E+00 -0.00000000000E+00 -0.39299879076E+03  0.39299879076E+03  0.00000000000E+00 0. -1.
         25    2    1    2    0    0 -0.39335436464E+02 -0.76321174061E+02  0.36296325368E+03  0.39336998389E+03  0.12500169010E+03 0.  0.
          2    1    1    2  501    0  0.32368774979E+02 -0.36871715149E+02 -0.37417135666E+03  0.37737443623E+03  0.00000000000E+00 0. -1.
          1    1    1    2  502    0  0.69666614853E+01  0.11319288921E+03  0.15877152719E+04  0.15917603304E+04  0.00000000000E+00 0. -1.
         22    1    3    3    0    0 -0.20526153111E+02 -0.41491097244E+02  0.34797896368E+03  0.35104443205E+03  0.00000000000E+00 0.  1.
         22    1    3    3    0    0 -0.18809283353E+02 -0.34830076817E+02  0.14984290006E+02  0.42325551838E+02  0.00000000000E+00 0.  1.
</event>
<event>
 7    1  0.6315518E-006  0.8652493E+02  0.7818608E-02  0.1438652E+00
          2   -1    0    0  502    0  0.00000000000E+00  0.00000000000E+00  0.15985134590E+04  0.15985134590E+04  0.00000000000E+00 0. -1.
          1   -1    0    0  501    0 -0.00000000000E+00 -0.00000000000E+00 -0.95338545331E+02  0.95338545331E+02  0.00000000000E+00 0. -1.
         25    2    1    2    0    0 -0.66984448095E+02  0.53502086288E+02  0.27669470055E+03  0.31548934880E+03  0.12499672943E+03 0.  0.
          2    1    1    2  501    0  0.82566725431E+02 -0.27434114560E+02 -0.50781096827E+02  0.10074033246E+03  0.00000000000E+00 0. -1.
          1    1    1    2  502    0 -0.15582277336E+02 -0.26067971728E+02  0.12772613099E+04  0.12776223231E+04  0.00000000000E+00 0. -1.
         22    1    3    3    0    0  0.76854995372E+01  0.60536642680E+02  0.57602502163E+02  0.83915435205E+02  0.00000000000E+00 0. -1.
         22    1    3    3    0    0 -0.74669947632E+02 -0.70345563924E+01  0.21909219839E+03  0.23157391360E+03  0.00000000000E+00 0. -1.
</event>
<event>
 7    1  0.6315518E-006  0.1508744E+03  0.7818608E-02  0.1332629E+00
          2   -1    0    0  502    0  0.00000000000E+00  0.00000000000E+00  0.28083200334E+04  0.28083200334E+04  0.00000000000E+00 0. -1.
          1   -1    0    0  501    0 -0.00000000000E+00 -0.00000000000E+00 -0.73955647525E+02  0.73955647525E+02  0.00000000000E+00 0. -1.
         25    2    1    2    0    0  0.94094178453E+02  0.75548075551E+02  0.19752930433E+04  0.19829191984E+04  0.12499885786E+03 0.  0.
          2    1    1    2  501    0 -0.13489775835E+03 -0.70562228956E+02  0.13700876096E+02  0.15285335249E+03  0.00000000000E+00 0. -1.
          1    1    1    2  502    0  0.40803579897E+02 -0.49858465950E+01  0.74537046647E+03  0.74650312999E+03  0.00000000000E+00 0. -1.
         22    1    3    3    0    0  0.87796550234E+02  0.35859773610E+01  0.14529763154E+04  0.14556308826E+04  0.00000000000E+00 0.  1.
         22    1    3    3    0    0  0.62976282192E+01  0.71962098190E+02  0.52231672792E+03  0.52728831579E+03  0.00000000000E+00 0.  1.
</event>
<event>
 7    1  0.6315518E-006  0.5912698E+02  0.7818608E-02  0.1442922E+00
          2   -1    0    0  502    0  0.00000000000E+00  0.00000000000E+00  0.19067796717E+04  0.19067796717E+04  0.00000000000E+00 0. -1.
          1   -1    0    0  501    0 -0.00000000000E+00 -0.00000000000E+00 -0.18023677077E+04  0.18023677077E+04  0.00000000000E+00 0. -1.
         25    2    1    2    0    0 -0.11878853042E+01  0.19030418182E+02  0.11253949874E+03  0.16927505260E+03  0.12500134707E+03 0.  0.
          2    1    1    2  501    0  0.29654351263E+02 -0.51323659403E+02 -0.17732422838E+04  0.17742327061E+04  0.00000000000E+00 0. -1.
          1    1    1    2  502    0 -0.28466465958E+02  0.32293241220E+02  0.17651147490E+04  0.17656396207E+04  0.00000000000E+00 0. -1.
         22    1    3    3    0    0  0.13330152715E+02 -0.48724999008E+02  0.21589195284E+02  0.54935524506E+02  0.00000000000E+00 0.  1.
         22    1    3    3    0    0 -0.14518038020E+02  0.67755417190E+02  0.90950303453E+02  0.11433952809E+03  0.00000000000E+00 0.  1.
</event>
<event>
 7    1  0.6315518E-006  0.8990496E+02  0.7818608E-02  0.1341768E+00
          2   -1    0    0  502    0  0.00000000000E+00  0.00000000000E+00  0.12978607653E+04  0.12978607653E+04  0.00000000000E+00 0. -1.
          1   -1    0    0  501    0 -0.00000000000E+00 -0.00000000000E+00 -0.13364186254E+03  0.13364186254E+03  0.00000000000E+00 0. -1.
         25    2    1    2    0    0 -0.12799409252E+01  0.42932035685E+02  0.60996293477E+02  0.14556477183E+03  0.12499502808E+03 0.  0.
          2    1    1    2  501    0 -0.56880115871E+02  0.28701229706E+02 -0.78227931686E+02  0.10088963011E+03  0.00000000000E+00 0. -1.
          1    1    1    2  502    0  0.58160056796E+02 -0.71633265391E+02  0.11814505410E+04  0.11850482259E+04  0.00000000000E+00 0. -1.
         22    1    3    3    0    0  0.17486861639E+02  0.81996248560E+02  0.20633636809E+02  0.86341890620E+02  0.00000000000E+00 0.  1.
         22    1    3    3    0    0 -0.18766802564E+02 -0.39064212875E+02  0.40362656668E+02  0.59222881214E+02  0.00000000000E+00 0.  1.
</event>
<event>
 7    1  0.6315518E-006  0.5505332E+02  0.7818608E-02  0.1477982E+00
          2   -1    0    0  502    0  0.00000000000E+00  0.00000000000E+00  0.84709127127E+03  0.84709127127E+03  0.00000000000E+00 0. -1.
          1   -1    0    0  501    0 -0.00000000000E+00 -0.00000000000E+00 -0.87376813958E+02  0.87376813958E+02  0.00000000000E+00 0. -1.
         25    2    1    2    0    0  0.48702902180E+02 -0.51071195504E+02  0.33826777156E+03  0.36746348090E+03  0.12499633924E+03 0.  0.
          2    1    1    2  501    0 -0.12929750310E+02  0.53319265681E+02 -0.61679910024E+02  0.82550189802E+02  0.00000000000E+00 0. -1.
          1    1    1    2  502    0 -0.35773151870E+02 -0.22480701761E+01  0.48312659577E+03  0.48445441452E+03  0.00000000000E+00 0. -1.
         22    1    3    3    0    0  0.15381791594E+02 -0.21285267899E+02  0.55233492900E-02  0.26261419852E+02  0.00000000000E+00 0.  1.
         22    1    3    3    0    0  0.33321110586E+02 -0.29785927606E+02  0.33826224821E+03  0.34120206104E+03  0.00000000000E+00 0.  1.
</event>
<event>
 7    1  0.6315518E-006  0.7151820E+02  0.7818608E-02  0.1381941E+00
          2   -1    0    0  502    0  0.00000000000E+00  0.00000000000E+00  0.97812320064E+03  0.97812320064E+03  0.00000000000E+00 0. -1.
          1   -1    0    0  501    0 -0.00000000000E+00 -0.00000000000E+00 -0.30916175276E+03  0.30916175276E+03  0.00000000000E+00 0. -1.
         25    2    1    2    0    0 -0.95224483962E+02  0.52788244878E+02  0.10443184203E+03  0.19592014533E+03  0.12499757027E+03 0.  0.
          2    1    1    2  501    0  0.24547175163E+02 -0.51658253645E+02 -0.25878070083E+03  0.26502564046E+03  0.00000000000E+00 0. -1.
          1    1    1    2  502    0  0.70677308799E+02 -0.11299912331E+01  0.82331030668E+03  0.82633916762E+03  0.00000000000E+00 0. -1.
         22    1    3    3    0    0  0.16457864112E+01  0.23504092131E+02 -0.23179376525E+02  0.33051996247E+02  0.00000000000E+00 0.  1.
         22    1    3    3    0    0 -0.96870270373E+02  0.29284152747E+02  0.12761121855E+03  0.16286814908E+03  0.00000000000E+00 0.  1.
</event>
<event>
 7    1  0.6315518E-006  0.4802556E+02  0.7818608E-02  0.1518343E+00
          2   -1    0    0  502    0  0.00000000000E+00  0.00000000000E+00  0.13905523731E+04  0.13905523731E+04  0.00000000000E+00 0. -1.
          1   -1    0    0  501    0 -0.00000000000E+00 -0.00000000000E+00 -0.25900550432E+02  0.25900550432E+02  0.00000000000E+00 0. -1.
         25    2    1    2    0    0  0.93320060802E+01  0.23745035408E+02  0.71525023107E+03  0.72653838844E+03  0.12499689511E+03 0.  0.
          2    1    1    2  501    0  0.10010694125E+02 -0.48115968378E+02  0.10499587346E+02  0.50255365328E+02  0.00000000000E+00 0. -1.
          1    1    1    2  502    0 -0.19342700205E+02  0.24370932970E+02  0.63890200428E+03  0.63965916979E+03  0.00000000000E+00 0. -1.
         22    1    3    3    0    0 -0.14298822922E+02 -0.43823540692E+02  0.42917565256E+03  0.43164418194E+03  0.00000000000E+00 0.  1.
         22    1    3    3    0    0  0.23630829002E+02  0.67568576100E+02  0.28607457852E+03  0.29489420650E+03  0.00000000000E+00 0.  1.
</event>
<event>
 7    1  0.6315518E-006  0.6647839E+02  0.7818608E-02  0.1430432E+00
          2   -1    0    0  502    0  0.00000000000E+00  0.00000000000E+00  0.11448716542E+04  0.11448716542E+04  0.00000000000E+00 0. -1.
          1   -1    0    0  501    0 -0.00000000000E+00 -0.00000000000E+00 -0.26303081602E+02  0.26303081602E+02  0.00000000000E+00 0. -1.
         25    2    1    2    0    0  0.18406403045E+02 -0.35554623607E+02  0.16527326227E+03  0.21105146883E+03  0.12499817734E+03 0.  0.
          2    1    1    2  501    0 -0.26148090802E+02 -0.32934711573E+02  0.25614922891E+03  0.25957820662E+03  0.00000000000E+00 0. -1.
          1    1    1    2  502    0  0.77416877567E+01  0.68489335179E+02  0.69714608139E+03  0.70054506034E+03  0.00000000000E+00 0. -1.
         22    1    3    3    0    0  0.48977338435E+02 -0.15266055581E+02  0.10989891990E+02  0.52465320538E+02  0.00000000000E+00 0.  1.
         22    1    3    3    0    0 -0.30570935390E+02 -0.20288568026E+02  0.15428337028E+03  0.15858614829E+03  0.00000000000E+00 0.  1.
</event>
<event>
 7    1  0.6315518E-006  0.9494781E+02  0.7818608E-02  0.1317174E+00
          2   -1    0    0  502    0  0.00000000000E+00  0.00000000000E+00  0.58329946671E+03  0.58329946671E+03  0.00000000000E+00 0. -1.
          1   -1    0    0  501    0 -0.00000000000E+00 -0.00000000000E+00 -0.61390524256E+02  0.61390524256E+02  0.00000000000E+00 0. -1.
         25    2    1    2    0    0  0.24379895769E+02  0.96146353572E+02  0.14709095742E+03  0.21702988666E+03  0.12501088483E+03 0.  0.
          2    1    1    2  501    0  0.50327129960E+02 -0.90593435974E+02  0.10458042235E+03  0.14723129895E+03  0.00000000000E+00 0. -1.
          1    1    1    2  502    0 -0.74707025729E+02 -0.55529175975E+01  0.27023756268E+03  0.28042880535E+03  0.00000000000E+00 0. -1.
         22    1    3    3    0    0  0.63911404453E+02  0.37941414943E+02  0.12096757816E+03  0.14197666552E+03  0.00000000000E+00 0.  1.
         22    1    3    3    0    0 -0.39531508684E+02  0.58204938629E+02  0.26123379260E+02  0.75053221140E+02  0.00000000000E+00 0.  1.
</event>
<event>
 7    1  0.6315518E-006  0.3020768E+02  0.7818608E-02  0.1660957E+00
          2   -1    0    0  502    0  0.00000000000E+00  0.00000000000E+00  0.58411604118E+03  0.58411604118E+03  0.00000000000E+00 0. -1.
          1   -1    0    0  501    0 -0.00000000000E+00 -0.00000000000E+00 -0.37758704400E+02  0.37758704400E+02  0.00000000000E+00 0. -1.
         25    2    1    2    0    0  0.23591917769E+02 -0.41789511768E+02  0.24896013472E+03  0.28268209051E+03  0.12500029495E+03 0.  0.
          2    1    1    2  501    0 -0.15866390246E+02  0.13287380275E+02 -0.14900792255E+02  0.25501576889E+02  0.00000000000E+00 0. -1.
          1    1    1    2  502    0 -0.77255275231E+01  0.28502131493E+02  0.31229799432E+03  0.31369107818E+03  0.00000000000E+00 0. -1.
         22    1    3    3    0    0  0.24758998981E+02 -0.86019357372E+02  0.16046819567E+03  0.18374542088E+03  0.00000000000E+00 0.  1.
         22    1    3    3    0    0 -0.11670812122E+01  0.44229845604E+02  0.88491939042E+02  0.98936669624E+02  0.00000000000E+00 0.  1.
</event>
<event>
 7    1  0.6315518E-006  0.6218634E+02  0.7818608E-02  0.1395970E+00
          2   -1    0    0  502    0  0.00000000000E+00  0.00000000000E+00  0.34760114917E+03  0.34760114917E+03  0.00000000000E+00 0. -1.
          1   -1    0    0  501    0 -0.00000000000E+00 -0.00000000000E+00 -0.15503949861E+03  0.15503949861E+03  0.00000000000E+00 0. -1.
         25    2    1    2    0    0 -0.16333712916E+02 -0.63539895111E+02  0.48424391337E+02  0.14924613804E+03  0.12500151837E+03 0.  0.
          2    1    1    2  501    0  0.59765549546E+02  0.23970326399E+02 -0.90747571542E+02  0.11127272442E+03  0.00000000000E+00 0. -1.
          1    1    1    2  502    0 -0.43431836629E+02  0.39569568712E+02  0.23488483077E+03  0.24212178532E+03  0.00000000000E+00 0. -1.
         22    1    3    3    0    0 -0.40576050085E+02 -0.32165061376E+02 -0.31089431912E+02  0.60395031174E+02  0.00000000000E+00 0.  1.
         22    1    3    3    0    0  0.24242337169E+02 -0.31374833734E+02  0.79513823249E+02  0.88851106864E+02  0.00000000000E+00 0.  1.
</event>
<event>
 7    1  0.6315518E-006  0.1199322E+03  0.7818608E-02  0.1412582E+00
          2   -1    0    0  502    0  0.00000000000E+00  0.00000000000E+00  0.77528538725E+02  0.77528538725E+02  0.00000000000E+00 0. -1.
          1   -1    0    0  501    0 -0.00000000000E+00 -0.00000000000E+00 -0.67368059691E+03  0.67368059691E+03  0.00000000000E+00 0. -1.
         25    2    1    2    0    0  0.12041274135E+03  0.82209863161E+01 -0.17152726530E+03  0.24415915786E+03  0.12500111491E+03 0.  0.
          2    1    1    2  501    0 -0.11887061367E+03  0.18466358017E+02 -0.45262501337E+03  0.46833815978E+03  0.00000000000E+00 0. -1.
          1    1    1    2  502    0 -0.15421276744E+01 -0.26687344334E+02  0.28000220489E+02  0.38711817999E+02  0.00000000000E+00 0. -1.
         22    1    3    3    0    0  0.14014231463E+03 -0.15948669098E+02 -0.15196135356E+03  0.20733181466E+03  0.00000000000E+00 0. -1.
         22    1    3    3    0    0 -0.19729573281E+02  0.24169655414E+02 -0.19565911738E+02  0.36827343195E+02  0.00000000000E+00 0. -1.
</event>
<event>
 7    1  0.6315518E-006  0.3967689E+02  0.7818608E-02  0.1590682E+00
          2   -1    0    0  502    0  0.00000000000E+00  0.00000000000E+00  0.14429469826E+04  0.14429469826E+04  0.00000000000E+00 0. -1.
          1   -1    0    0  501    0 -0.00000000000E+00 -0.00000000000E+00 -0.22322877685E+03  0.22322877685E+03  0.00000000000E+00 0. -1.
         25    2    1    2    0    0  0.10814242739E+02 -0.13024422391E+02  0.47381194993E+03  0.49031258711E+03  0.12498834252E+03 0.  0.
          2    1    1    2  501    0 -0.32145322723E+02  0.23409172941E+02 -0.21299156055E+03  0.21667190869E+03  0.00000000000E+00 0. -1.
          1    1    1    2  502    0  0.21331079985E+02 -0.10384750551E+02  0.95889781641E+03  0.95919126369E+03  0.00000000000E+00 0. -1.
         22    1    3    3    0    0 -0.52341354942E+02  0.17845518699E+02  0.23121759018E+03  0.23773862535E+03  0.00000000000E+00 0. -1.
         22    1    3    3    0    0  0.63155597681E+02 -0.30869941089E+02  0.24259435974E+03  0.25257396176E+03  0.00000000000E+00 0. -1.
</event>
<event>
 7    1  0.6315518E-006  0.4679478E+03  0.7818608E-02  0.1171928E+00
          2   -1    0    0  502    0  0.00000000000E+00  0.00000000000E+00  0.21756292199E+04  0.21756292199E+04  0.00000000000E+00 0. -1.
          1   -1    0    0  501    0 -0.00000000000E+00 -0.00000000000E+00 -0.48815560170E+03  0.48815560170E+03  0.00000000000E+00 0. -1.
         25    2    1    2    0    0  0.38771780343E+03  0.17546062784E+03  0.21728885605E+03  0.49391444215E+03  0.12500200870E+03 0.  0.
          2    1    1    2  501    0 -0.45349368910E+03 -0.18144378272E+03 -0.17836898615E+03  0.51999410339E+03  0.00000000000E+00 0. -1.
          1    1    1    2  502    0  0.65775885669E+02  0.59831548733E+01  0.16485537483E+04  0.16498762761E+04  0.00000000000E+00 0. -1.
         22    1    3    3    0    0  0.31532133809E+03  0.12709447500E+03  0.22312736780E+03  0.40665264550E+03  0.00000000000E+00 0. -1.
         22    1    3    3    0    0  0.72396465345E+02  0.48366152842E+02 -0.58385117521E+01  0.87261796650E+02  0.00000000000E+00 0. -1.
</event>
<event>
 7    1  0.6315518E-006  0.4770511E+02  0.7818608E-02  0.1491430E+00
          2   -1    0    0  502    0  0.00000000000E+00  0.00000000000E+00  0.88805322624E+03  0.88805322624E+03  0.00000000000E+00 0. -1.
          1   -1    0    0  501    0 -0.00000000000E+00 -0.00000000000E+00 -0.28027878601E+03  0.28027878601E+03  0.00000000000E+00 0. -1.
         25    2    1    2    0    0  0.62883315694E+02 -0.52177389719E+02  0.87153630364E+02  0.17290891570E+03  0.12499978580E+03 0.  0.
          2    1    1    2  501    0 -0.42390482750E+02  0.20605241293E+02 -0.23458838621E+03  0.23927649266E+03  0.00000000000E+00 0. -1.
          1    1    1    2  502    0 -0.20492832944E+02  0.31572148426E+02  0.75520919607E+03  0.75614660390E+03  0.00000000000E+00 0. -1.
         22    1    3    3    0    0 -0.34670405831E+02 -0.25074863360E+02  0.61146196194E+01  0.43222382929E+02  0.00000000000E+00 0.  1.
         22    1    3    3    0    0  0.97553721525E+02 -0.27102526358E+02  0.81039010745E+02  0.12968653277E+03  0.00000000000E+00 0.  1.
</event>
<event>
 7    1  0.6315518E-006  0.2791869E+03  0.7818608E-02  0.1186983E+00
          2   -1    0    0  502    0  0.00000000000E+00  0.00000000000E+00  0.19873975376E+04  0.19873975376E+04  0.00000000000E+00 0. -1.
          1   -1    0    0  501    0 -0.00000000000E+00 -0.00000000000E+00 -0.15267066883E+04  0.15267066883E+04  0.00000000000E+00 0. -1.
         25    2    1    2    0    0  0.12670179541E+03 -0.22591872372E+03 -0.55941659243E+03  0.62901853495E+03  0.12499911493E+03 0.  0.
          2    1    1    2  501    0 -0.79095409995E+02 -0.49775432935E+02 -0.92008825928E+03  0.92482218965E+03  0.00000000000E+00 0. -1.
          1    1    1    2  502    0 -0.47606385420E+02  0.27569415665E+03  0.19401957011E+04  0.19602635013E+04  0.00000000000E+00 0. -1.
         22    1    3    3    0    0  0.54018510636E+02 -0.19256742498E+03 -0.45876548435E+03  0.50046576535E+03  0.00000000000E+00 0.  1.
         22    1    3    3    0    0  0.72683284779E+02 -0.33351298741E+02 -0.10065110808E+03  0.12855276960E+03  0.00000000000E+00 0.  1.
</event>
<event>
 7    1  0.6315518E-006  0.9083794E+02  0.7818608E-02  0.1375412E+00
          2   -1    0    0  502    0  0.00000000000E+00  0.00000000000E+00  0.14752679483E+04  0.14752679483E+04  0.00000000000E+00 0. -1.
          1   -1    0    0  501    0 -0.00000000000E+00 -0.00000000000E+00 -0.38738915122E+03  0.38738915122E+03  0.00000000000E+00 0. -1.
         25    2    1    2    0    0  0.68264415381E+01 -0.43595514221E+02 -0.44292495551E+02  0.13976516697E+03  0.12500123028E+03 0.  0.
          2    1    1    2  501    0  0.10084344050E+02 -0.46414547703E+02 -0.29197031800E+03  0.29580850364E+03  0.00000000000E+00 0. -1.
          1    1    1    2  502    0 -0.16910785588E+02  0.90010061924E+02  0.14241416106E+04  0.14270834289E+04  0.00000000000E+00 0. -1.
         22    1    3    3    0    0  0.96982087555E+00 -0.96897405837E+00  0.42695542137E+02  0.42717546531E+02  0.00000000000E+00 0.  1.
         22    1    3    3    0    0  0.58566206625E+01 -0.42626540162E+02 -0.86988037688E+02  0.97047620438E+02  0.00000000000E+00 0.  1.
</event>
<event>
 7    1  0.6315518E-006  0.7848930E+02  0.7818608E-02  0.1421713E+00
          2   -1    0    0  502    0  0.00000000000E+00  0.00000000000E+00  0.13246681870E+03  0.13246681870E+03  0.00000000000E+00 0. -1.
          1   -1    0    0  501    0 -0.00000000000E+00 -0.00000000000E+00 -0.32017325384E+03  0.32017325384E+03  0.00000000000E+00 0. -1.
         25    2    1    2    0    0  0.58556828322E+02 -0.49301009791E+02  0.41749603227E+02  0.15240109365E+03  0.12499428894E+03 0.  0.
          2    1    1    2  501    0 -0.29230647101E+02  0.73569433349E+02 -0.24622905870E+03  0.25864191772E+03  0.00000000000E+00 0. -1.
          1    1    1    2  502    0 -0.29326181221E+02 -0.24268423558E+02  0.16773020334E+02  0.41597061172E+02  0.00000000000E+00 0. -1.
         22    1    3    3    0    0  0.30735569879E+01 -0.63980159358E+02 -0.20957140976E+02  0.67395172690E+02  0.00000000000E+00 0. -1.
         22    1    3    3    0    0  0.55483271334E+02  0.14679149568E+02  0.62706744202E+02  0.85005920961E+02  0.00000000000E+00 0. -1.
</event>
<event>
 7    1  0.6315518E-006  0.8788112E+02  0.7818608E-02  0.1381075E+00
          2   -1    0    0  502    0  0.00000000000E+00  0.00000000000E+00  0.13940760339E+02  0.13940760339E+02  0.00000000000E+00 0. -1.
          1   -1    0    0  501    0 -0.00000000000E+00 -0.00000000000E+00 -0.15877946850E+04  0.15877946850E+04  0.00000000000E+00 0. -1.
         25    2    1    2    0    0  0.79810475437E+02 -0.16202291761E+02 -0.88435463451E+03  0.89685035133E+03  0.12500082742E+03 0.  0.
          2    1    1    2  501    0  0.91933122063E+01  0.45963664545E+02 -0.33113584074E+03  0.33443702018E+03  0.00000000000E+00 0. -1.
          1    1    1    2  502    0 -0.89003787643E+02 -0.29761372784E+02 -0.35836344936E+03  0.37044807377E+03  0.00000000000E+00 0. -1.
         22    1    3    3    0    0  0.81573420886E+02 -0.30665688450E+02 -0.30223127435E+03  0.31454467193E+03  0.00000000000E+00 0.  1.
         22    1    3    3    0    0 -0.17629454489E+01  0.14463396689E+02 -0.58212336016E+03  0.58230567940E+03  0.00000000000E+00 0.  1.
</event>
<event>
 7    1  0.6315518E-006  0.7428915E+02  0.7818608E-02  0.1370508E+00
          2   -1    0    0  502    0  0.00000000000E+00  0.00000000000E+00  0.10393987522E+03  0.10393987522E+03  0.00000000000E+00 0. -1.
          1   -1    0    0  501    0 -0.00000000000E+00 -0.00000000000E+00 -0.13442283774E+04  0.13442283774E+04  0.00000000000E+00 0. -1.
         25    2    1    2    0    0  0.15286842120E+02  0.20464983723E+02 -0.14156432419E+03  0.19057261746E+03  0.12499984616E+03 0.  0.
          2    1    1    2  501    0 -0.75621579194E+01  0.59998674761E+02 -0.11565994101E+04  0.11581792705E+04  0.00000000000E+00 0. -1.
          1    1    1    2  502    0 -0.77246842006E+01 -0.80463658484E+02  0.57875232065E+02  0.99416364695E+02  0.00000000000E+00 0. -1.
         22    1    3    3    0    0  0.35818669768E+02 -0.31662975171E+02 -0.12232560681E+03  0.13133573460E+03  0.00000000000E+00 0. -1.
         22    1    3    3    0    0 -0.20531827648E+02  0.52127958894E+02 -0.19238717385E+02  0.59236882866E+02  0.00000000000E+00 0. -1.
</event>
<event>
 7    1  0.6315518E-006  0.2780782E+02  0.7818608E-02  0.1671637E+00
          2   -1    0    0  502    0  0.00000000000E+00  0.00000000000E+00  0.59947743410E+03  0.59947743410E+03  0.00000000000E+00 0. -1.
          1   -1    0    0  501    0 -0.00000000000E+00 -0.00000000000E+00 -0.57996205509E+03  0.57996205509E+03  0.00000000000E+00 0. -1.
         25    2    1    2    0    0  0.30434607501E+02  0.35287668037E+02  0.44900621947E+03  0.46840503355E+03  0.12500082190E+03 0.  0.
          2    1    1    2  501    0 -0.15242125104E+02 -0.14722350321E+02 -0.56890274762E+03  0.56929729160E+03  0.00000000000E+00 0. -1.
          1    1    1    2  502    0 -0.15192482397E+02 -0.20565317717E+02  0.13941190716E+03  0.14173716404E+03  0.00000000000E+00 0. -1.
         22    1    3    3    0    0 -0.11456332174E+02  0.40909774942E+02  0.43866653516E+02  0.61066689147E+02  0.00000000000E+00 0. -1.
         22    1    3    3    0    0  0.41890939675E+02 -0.56221069053E+01  0.40513956596E+03  0.40733834440E+03  0.00000000000E+00 0. -1.
</event>
<event>
 7    1  0.6315518E-006  0.1491369E+03  0.7818608E-02  0.1247488E+00
          2   -1    0    0  502    0  0.00000000000E+00  0.00000000000E+00  0.86106103250E+03  0.86106103250E+03  0.00000000000E+00 0. -1.
          1   -1    0    0  501    0 -0.00000000000E+00 -0.00000000000E+00 -0.31840574281E+03  0.31840574281E+03  0.00000000000E+00 0. -1.
         25    2    1    2    0    0 -0.17177171623E+03 -0.94637407580E+02  0.33833938213E+03  0.41056222670E+03  0.12500417229E+03 0.  0.
          2    1    1    2  501    0  0.14760230705E+03  0.54750185505E+01 -0.25808699938E+03  0.29736394557E+03  0.00000000000E+00 0. -1.
          1    1    1    2  502    0  0.24169409176E+02  0.89162389029E+02  0.46240290694E+03  0.47154060303E+03  0.00000000000E+00 0. -1.
         22    1    3    3    0    0 -0.34189277635E+02 -0.69605409796E+02  0.19709457545E+03  0.21180201002E+03  0.00000000000E+00 0. -1.
         22    1    3    3    0    0 -0.13758243859E+03 -0.25031997784E+02  0.14124480668E+03  0.19876021668E+03  0.00000000000E+00 0. -1.
</event>
<event>
 7    1  0.6315518E-006  0.8142687E+02  0.7818608E-02  0.1496397E+00
          2   -1    0    0  502    0  0.00000000000E+00  0.00000000000E+00  0.10587483497E+04  0.10587483497E+04  0.00000000000E+00 0. -1.
          1   -1    0    0  501    0 -0.00000000000E+00 -0.00000000000E+00 -0.54483496163E+03  0.54483496163E+03  0.00000000000E+00 0. -1.
         25    2    1    2    0    0  0.74712405507E+02  0.65065564928E+02 -0.32048738219E+03  0.35798388529E+03  0.12499931483E+03 0.  0.
          2    1    1    2  501    0 -0.68784377729E+01 -0.20164967580E+02 -0.20345145243E+03  0.20456400543E+03  0.00000000000E+00 0. -1.
          1    1    1    2  502    0 -0.67833967734E+02 -0.44900597348E+02  0.10378522227E+04  0.10410354206E+04  0.00000000000E+00 0. -1.
         22    1    3    3    0    0  0.91449618173E+02  0.90629862845E+02 -0.26571795777E+03  0.29526740047E+03  0.00000000000E+00 0.  1.
         22    1    3    3    0    0 -0.16737212666E+02 -0.25564297916E+02 -0.54769424424E+02  0.62716484815E+02  0.00000000000E+00 0.  1.
</event>
<event>
 7    1  0.6315518E-006  0.1178255E+03  0.7818608E-02  0.1330136E+00
          2   -1    0    0  502    0  0.00000000000E+00  0.00000000000E+00  0.61269764193E+03  0.61269764193E+03  0.00000000000E+00 0. -1.
          1   -1    0    0  501    0 -0.00000000000E+00 -0.00000000000E+00 -0.11936556370E+04  0.11936556370E+04  0.00000000000E+00 0. -1.
         25    2    1    2    0    0  0.57381758858E+01 -0.67780702836E+02 -0.30024117918E+03  0.33225846105E+03  0.12499507559E+03 0.  0.
          2    1    1    2  501    0  0.27453416782E+02 -0.46270222778E+02 -0.87065571412E+03  0.87231645412E+03  0.00000000000E+00 0. -1.
          1    1    1    2  502    0 -0.33191592668E+02  0.11405092561E+03  0.58993889823E+03  0.60177836377E+03  0.00000000000E+00 0. -1.
         22    1    3    3    0    0  0.60045907821E+02 -0.67637090511E+01 -0.13632773561E+03  0.14911911448E+03  0.00000000000E+00 0. -1.
         22    1    3    3    0    0 -0.54307731935E+02 -0.61016993785E+02 -0.16391344358E+03  0.18313934657E+03  0.00000000000E+00 0. -1.
</event>
<event>
 7    1  0.6315518E-006  0.5680184E+02  0.7818608E-02  0.1519789E+00
          2   -1    0    0  502    0  0.00000000000E+00  0.00000000000E+00  0.54208013731E+03  0.54208013731E+03  0.00000000000E+00 0. -1.
          1   -1    0    0  501    0 -0.00000000000E+00 -0.00000000000E+00 -0.80423422864E+02  0.80423422864E+02  0.00000000000E+00 0. -1.
         25    2    1    2    0    0 -0.15976379430E+02  0.57258418433E+02  0.36704015462E+03  0.39227076154E+03  0.12499641625E+03 0.  0.
          2    1    1    2  501    0 -0.21907580162E+02 -0.14100610665E+02 -0.59937414060E+02  0.65354899540E+02  0.00000000000E+00 0. -1.
          1    1    1    2  502    0  0.37883959591E+02 -0.43157807768E+02  0.15455397389E+03  0.16487789910E+03  0.00000000000E+00 0. -1.
         22    1    3    3    0    0 -0.20312469750E+02 -0.11519539400E+01 -0.24316582809E+00  0.20346561253E+02  0.00000000000E+00 0. -1.
         22    1    3    3    0    0  0.43360903201E+01  0.58410372373E+02  0.36728332044E+03  0.37192420028E+03  0.00000000000E+00 0. -1.
</event>
<event>
 7    1  0.6315518E-006  0.3357811E+02  0.7818608E-02  0.1569105E+00
          2   -1    0    0  502    0  0.00000000000E+00  0.00000000000E+00  0.29909605097E+04  0.29909605097E+04  0.00000000000E+00 0. -1.
          1   -1    0    0  501    0 -0.00000000000E+00 -0.00000000000E+00 -0.80186437305E+02  0.80186437305E+02  0.00000000000E+00 0. -1.
         25    2    1    2    0    0  0.32748324405E+01  0.47864025867E+02  0.13499645068E+04  0.13565880690E+04  0.12500131880E+03 0.  0.
          2    1    1    2  501    0  0.20597959314E+02 -0.26510436324E+02 -0.73044884612E+02  0.80390511443E+02  0.00000000000E+00 0. -1.
          1    1    1    2  502    0 -0.23872791755E+02 -0.21353589543E+02  0.16338544502E+04  0.16341683666E+04  0.00000000000E+00 0. -1.
         22    1    3    3    0    0  0.42480246177E+02  0.71725036056E+02  0.68745508262E+03  0.69249082502E+03  0.00000000000E+00 0.  1.
         22    1    3    3    0    0 -0.39205413737E+02 -0.23861010189E+02  0.66250942418E+03  0.66409724393E+03  0.00000000000E+00 0.  1.
</event>
<event>
 7    1  0.6315518E-006  0.1044160E+03  0.7818608E-02  0.1325325E+00
          2   -1    0    0  502    0  0.00000000000E+00  0.00000000000E+00  0.12280176792E+04  0.12280176792E+04  0.00000000000E+00 0. -1.
          1   -1    0    0  501    0 -0.00000000000E+00 -0.00000000000E+00 -0.85718617016E+02  0.85718617016E+02  0.00000000000E+00 0. -1.
         25    2    1    2    0    0  0.70891861600E+02  0.49977572201E+02  0.51030331350E+03  0.53250124224E+03  0.12499874980E+03 0.  0.
          2    1    1    2  501    0 -0.33923964550E+02 -0.10141603001E+03 -0.34014910609E+02  0.11221880706E+03  0.00000000000E+00 0. -1.
          1    1    1    2  502    0 -0.36967897050E+02  0.51438457808E+02  0.66601065933E+03  0.66901624696E+03  0.00000000000E+00 0. -1.
         22    1    3    3    0    0  0.91818822176E+02  0.47044447205E+02  0.23824982559E+03  0.25962830260E+03  0.00000000000E+00 0.  1.
         22    1    3    3    0    0 -0.20926960576E+02  0.29331249960E+01  0.27205348791E+03  0.27287293963E+03  0.00000000000E+00 0.  1.
</event>
<event>
 7    1  0.6315518E-006  0.1230185E+03  0.7818608E-02  0.1343383E+00
          2   -1    0    0  502    0  0.00000000000E+00  0.00000000000E+00  0.33660931764E+03  0.33660931764E+03  0.00000000000E+00 0. -1.
          1   -1    0    0  501    0 -0.00000000000E+00 -0.00000000000E+00 -0.13713630689E+04  0.13713630689E+04  0.00000000000E+00 0. -1.
         25    2    1    2    0    0 -0.59437587603E+02 -0.53223988704E+02 -0.26456324850E+03  0.30329042106E+03  0.12500298900E+03 0.  0.
          2    1    1    2  501    0 -0.26174018779E+02 -0.37727058118E+02 -0.10746324884E+04  0.10756130324E+04  0.00000000000E+00 0. -1.
          1    1    1    2  502    0  0.85611606382E+02  0.90951046822E+02  0.30444198571E+03  0.32906893309E+03  0.00000000000E+00 0. -1.
         22    1    3    3    0    0  0.57939683260E+00 -0.15449593297E+02 -0.21779293690E+03  0.21834099248E+03  0.00000000000E+00 0.  1.
         22    1    3    3    0    0 -0.60016984436E+02 -0.37774395406E+02 -0.46770311596E+02  0.84949428579E+02  0.00000000000E+00 0.  1.
</event>
<event>
 7    1  0.6315518E-006  0.1708633E+03  0.7818608E-02  0.1284379E+00
          2   -1    0    0  502    0  0.00000000000E+00  0.00000000000E+00  0.31556613085E+03  0.31556613085E+03  0.00000000000E+00 0. -1.
          1   -1    0    0  501    0 -0.00000000000E+00 -0.00000000000E+00 -0.58983000279E+03  0.58983000279E+03  0.00000000000E+00 0. -1.
         25    2    1    2    0    0  0.20027090226E+03  0.54998045606E+01  0.13640029188E+03  0.27270488380E+03  0.12499692749E+03 0.  0.
          2    1    1    2  501    0 -0.16252688061E+03 -0.47279493958E+02 -0.49956449451E+03  0.52746091954E+03  0.00000000000E+00 0. -1.
          1    1    1    2  502    0 -0.37744021658E+02  0.41779689398E+02  0.88900330694E+02  0.10523033030E+03  0.00000000000E+00 0. -1.
         22    1    3    3    0    0  0.31187406842E+02  0.34654278379E+02  0.79089080477E+02  0.91807712128E+02  0.00000000000E+00 0. -1.
         22    1    3    3    0    0  0.16908349542E+03 -0.29154473818E+02  0.57311211403E+02  0.18089717168E+03  0.00000000000E+00 0. -1.
</event>
<event>
 7    1  0.6315518E-006  0.1176235E+03  0.7818608E-02  0.1437689E+00
          2   -1    0    0  502    0  0.00000000000E+00  0.00000000000E+00  0.10453536063E+04  0.10453536063E+04  0.00000000000E+00 0. -1.
          1   -1    0    0  501    0 -0.00000000000E+00 -0.00000000000E+00 -0.39243953154E+03  0.39243953154E+03  0.00000000000E+00 0. -1.
         25    2    1    2    0    0 -0.51147605513E+02 -0.12490032110E+03  0.41483523599E+03  0.45379551794E+03  0.12500372522E+03 0.  0.
          2    1    1    2  501    0  0.12457419441E+02  0.18739562733E+02 -0.36738870097E+03  0.36807718771E+03  0.00000000000E+00 0. -1.
          1    1    1    2  502    0  0.38690186072E+02  0.10616075837E+03  0.60546753975E+03  0.61592043220E+03  0.00000000000E+00 0. -1.
         22    1    3    3    0    0 -0.89592255581E+02 -0.80757515273E+02  0.22707219873E+03  0.25711929521E+03  0.00000000000E+00 0. -1.
         22    1    3    3    0    0  0.38444650068E+02 -0.44142805832E+02  0.18776303726E+03  0.19667622272E+03  0.00000000000E+00 0. -1.
</event>
<event>
 7    1  0.6315518E-006  0.4513117E+02  0.7818608E-02  0.1477422E+00
          2   -1    0    0  502    0  0.00000000000E+00  0.00000000000E+00  0.96818200850E+03  0.96818200850E+03  0.00000000000E+00 0. -1.
          1   -1    0    0  501    0 -0.00000000000E+00 -0.00000000000E+00 -0.64977072002E+02  0.64977072002E+02  0.00000000000E+00 0. -1.
         25    2    1    2    0    0  0.20967540503E+02  0.12891117964E+02  0.20728499767E+03  0.24330787431E+03  0.12500333102E+03 0.  0.
          2    1    1    2  501    0  0.11482872019E+02 -0.44256593388E+02 -0.34974383823E+02  0.57564832423E+02  0.00000000000E+00 0. -1.
          1    1    1    2  502    0 -0.32450412522E+02  0.31365475425E+02  0.73089432265E+03  0.73228637376E+03  0.00000000000E+00 0. -1.
         22    1    3    3    0    0 -0.94606154341E+01  0.11844085379E+02  0.21196306248E+03  0.21250441280E+03  0.00000000000E+00 0.  1.
         22    1    3    3    0    0  0.30428155937E+02  0.10470325847E+01 -0.46780648077E+01  0.30803461515E+02  0.00000000000E+00 0.  1.
</event>
<event>
 7    1  0.6315518E-006  0.5299920E+02  0.7818608E-02  0.1477575E+00
          2   -1    0    0  502    0  0.00000000000E+00  0.00000000000E+00  0.46769947891E+02  0.46769947891E+02  0.00000000000E+00 0. -1.
          1   -1    0    0  501    0 -0.00000000000E+00 -0.00000000000E+00 -0.12800408450E+04  0.12800408450E+04  0.00000000000E+00 0. -1.
         25    2    1    2    0    0  0.31625669998E+00  0.38610590462E+02 -0.89520778684E+02  0.15852379835E+03  0.12499978846E+03 0.  0.
          2    1    1    2  501    0 -0.37651009301E+02 -0.37957104463E+02 -0.11254215897E+04  0.11266907717E+04  0.00000000000E+00 0. -1.
          1    1    1    2  502    0  0.37334752601E+02 -0.65348599931E+00 -0.18328528715E+02  0.41596222912E+02  0.00000000000E+00 0. -1.
         22    1    3    3    0    0  0.31415947665E+02 -0.28177794814E+02 -0.70938688363E+02  0.82542397560E+02  0.00000000000E+00 0.  1.
         22    1    3    3    0    0 -0.31099690965E+02  0.66788385276E+02 -0.18582090322E+02  0.75981400794E+02  0.00000000000E+00 0.  1.
</event>
<event>
 7    1  0.7799237E-006  0.6400008E+02  0.7818608E-02  0.1429886E+00
          2   -1    0    0  502    0  0.00000000000E+00  0.00000000000E+00  0.41529316295E+03  0.41529316295E+03  0.00000000000E+00 0. -1.
          1   -1    0    0  501    0 -0.00000000000E+00 -0.00000000000E+00 -0.19862166610E+04  0.19862166610E+04  0.00000000000E+00 0. -1.
         25    2    1    2    0    0  0.18834458696E+02  0.89954787875E+01 -0.38259173847E+03  0.40303209521E+03  0.12499110349E+03 0.  0.
          2    1    1    2  501    0  0.43052464417E+02  0.83890265935E+01 -0.15905502141E+04  0.15911548869E+04  0.00000000000E+00 0. -1.
          1    1    1    2  502    0 -0.61886923112E+02 -0.17384505381E+02  0.40221845457E+03  0.40732284183E+03  0.00000000000E+00 0. -1.
         22    1    3    3    0    0 -0.40957229553E+02  0.31206897653E+02 -0.25771586144E+03  0.26280949441E+03  0.00000000000E+00 0. -1.
         22    1    3    3    0    0  0.59791688249E+02 -0.22211418865E+02 -0.12487587703E+03  0.14022260080E+03  0.00000000000E+00 0. -1.
</event>
<event>
 7    1  0.6315518E-006  0.1595492E+03  0.7818608E-02  0.1335194E+00
          2   -1    0    0  502    0  0.00000000000E+00  0.00000000000E+00  0.15356958332E+04  0.15356958332E+04  0.00000000000E+00 0. -1.
          1   -1    0    0  501    0 -0.00000000000E+00 -0.00000000000E+00 -0.12495484730E+04  0.12495484730E+04  0.00000000000E+00 0. -1.
         25    2    1    2    0    0  0.18695070495E+03 -0.32186724600E+02 -0.43206162787E+03  0.48814859626E+03  0.12500100175E+03 0.  0.
          2    1    1    2  501    0 -0.14969276887E+03  0.24663718614E+02 -0.78191165315E+03  0.79649360160E+03  0.00000000000E+00 0. -1.
          1    1    1    2  502    0 -0.37257936079E+02  0.75230059859E+01  0.15001206412E+04  0.15006021084E+04  0.00000000000E+00 0. -1.
         22    1    3    3    0    0  0.10079444307E+03 -0.11922754538E+02 -0.92780817832E+02  0.13751346112E+03  0.00000000000E+00 0. -1.
         22    1    3    3    0    0  0.86156261873E+02 -0.20263970061E+02 -0.33928081003E+03  0.35063513515E+03  0.00000000000E+00 0. -1.
</event>
<event>
 7    1  0.6315518E-006  0.8166740E+02  0.7818608E-02  0.1380897E+00
          2   -1    0    0  502    0  0.00000000000E+00  0.00000000000E+00  0.18411338728E+04  0.18411338728E+04  0.00000000000E+00 0. -1.
          1   -1    0    0  501    0 -0.00000000000E+00 -0.00000000000E+00 -0.31847828034E+02  0.31847828034E+02  0.00000000000E+00 0. -1.
         25    2    1    2    0    0 -0.36668905044E+02 -0.39402147364E+02  0.54444410277E+03  0.56119537670E+03  0.12499492781E+03 0.  0.
          2    1    1    2  501    0  0.18845944862E+02 -0.46866172388E+02  0.71544005330E+01  0.51017577353E+02  0.00000000000E+00 0. -1.
          1    1    1    2  502    0  0.17822960182E+02  0.86268319752E+02  0.12576875414E+04  0.12607687467E+04  0.00000000000E+00 0. -1.
         22    1    3    3    0    0 -0.12513037273E+02  0.36842247700E+02  0.33064180688E+03  0.33292331215E+03  0.00000000000E+00 0.  1.
         22    1    3    3    0    0 -0.24155867771E+02 -0.76244395063E+02  0.21380229589E+03  0.22827206455E+03  0.00000000000E+00 0.  1.
</event>
<event>
 7    1  0.6315518E-006  0.2635998E+03  0.7818608E-02  0.1228266E+00
          2   -1    0    0  502    0  0.00000000000E+00  0.00000000000E+00  0.27816283647E+04  0.27816283647E+04  0.00000000000E+00 0. -1.
          1   -1    0    0  501    0 -0.00000000000E+00 -0.00000000000E+00 -0.61869899039E+03  0.61869899039E+03  0.00000000000E+00 0. -1.
         25    2    1    2    0    0  0.49546706890E+01 -0.20643597138E+03  0.11910494915E+03  0.26916783145E+03  0.12499989415E+03 0.  0.
          2    1    1    2  501    0  0.15080114094E+02 -0.61762189959E+02 -0.53479098980E+03  0.53855675719E+03  0.00000000000E+00 0. -1.
          1    1    1    2  502    0 -0.20034784783E+02  0.26819816134E+03  0.25786154150E+04  0.25926027665E+04  0.00000000000E+00 0. -1.
         22    1    3    3    0    0 -0.42100843498E+02 -0.86581818260E+02  0.10032214160E+03  0.13904468480E+03  0.00000000000E+00 0.  1.
         22    1    3    3    0    0  0.47055514187E+02 -0.11985415312E+03  0.18782807550E+02  0.13012314665E+03  0.00000000000E+00 0.  1.
</event>
<event>
 7    1  0.6315518E-006  0.1531573E+03  0.7818608E-02  0.1257842E+00
          2   -1    0    0  502    0  0.00000000000E+00  0.00000000000E+00  0.21328333625E+04  0.21328333625E+04  0.00000000000E+00 0. -1.
          1   -1    0    0  501    0 -0.00000000000E+00 -0.00000000000E+00 -0.15521518437E+04  0.15521518437E+04  0.00000000000E+00 0. -1.
         25    2    1    2    0    0  0.18595794939E+03  0.11688155644E+03 -0.92344405407E+03  0.95740501765E+03  0.12503515366E+03 0.  0.
          2    1    1    2  501    0 -0.40172410100E+02 -0.70512517942E+02 -0.60625478228E+03  0.61166224238E+03  0.00000000000E+00 0. -1.
          1    1    1    2  502    0 -0.14578553929E+03 -0.46369038494E+02  0.21103803551E+04  0.21159179461E+04  0.00000000000E+00 0. -1.
         22    1    3    3    0    0  0.17360372542E+03  0.13413989773E+03 -0.89729598203E+03  0.92372714858E+03  0.00000000000E+00 0.  1.
         22    1    3    3    0    0  0.12354223968E+02 -0.17258341295E+02 -0.26148072033E+02  0.33677869071E+02  0.00000000000E+00 0.  1.
</event>
<event>
 7    1  0.6315518E-006  0.1021021E+03  0.7818608E-02  0.1281480E+00
          2   -1    0    0  502    0  0.00000000000E+00  0.00000000000E+00  0.18872624708E+04  0.18872624708E+04  0.00000000000E+00 0. -1.
          1   -1    0    0  501    0 -0.00000000000E+00 -0.00000000000E+00 -0.28268806147E+03  0.28268806147E+03  0.00000000000E+00 0. -1.
         25    2    1    2    0    0  0.10624282394E+03  0.75518302578E+02 -0.12098185413E+03  0.21737391897E+03  0.12499703979E+03 0.  0.
          2    1    1    2  501    0 -0.99384189361E+02  0.21084364062E+02 -0.89224361148E+02  0.13521373497E+03  0.00000000000E+00 0. -1.
          1    1    1    2  502    0 -0.68586345826E+01 -0.96602666639E+02  0.18147806246E+04  0.18173628783E+04  0.00000000000E+00 0. -1.
         22    1    3    3    0    0  0.13450787093E+03  0.61296819961E+02 -0.89830958086E+02  0.17297187202E+03  0.00000000000E+00 0.  1.
         22    1    3    3    0    0 -0.28265046989E+02  0.14221482617E+02 -0.31150896046E+02  0.44402046953E+02  0.00000000000E+00 0.  1.
</event>
<event>
 7    1  0.6315518E-006  0.2748273E+03  0.7818608E-02  0.1316592E+00
          2   -1    0    0  502    0  0.00000000000E+00  0.00000000000E+00  0.10019871435E+04  0.10019871435E+04  0.00000000000E+00 0. -1.
          1   -1    0    0  501    0 -0.00000000000E+00 -0.00000000000E+00 -0.55110274889E+03  0.55110274889E+03  0.00000000000E+00 0. -1.
         25    2    1    2    0    0  0.13661080247E+03 -0.26304114494E+03  0.18165129558E+03  0.36942651397E+03  0.12500240301E+03 0.  0.
          2    1    1    2  501    0 -0.11827395634E+03  0.24458510050E+03 -0.41658791894E+03  0.49734906690E+03  0.00000000000E+00 0. -1.
          1    1    1    2  502    0 -0.18336846131E+02  0.18456044438E+02  0.68582101800E+03  0.68631431154E+03  0.00000000000E+00 0. -1.
         22    1    3    3    0    0 -0.15177670796E+02 -0.66022726922E+02  0.67980996343E+02  0.95972798359E+02  0.00000000000E+00 0.  1.
         22    1    3    3    0    0  0.15178847327E+03 -0.19701841802E+03  0.11367029923E+03  0.27345371561E+03  0.00000000000E+00 0.  1.
</event>
<event>
 7    1  0.6315518E-006  0.6495492E+02  0.7818608E-02  0.1501098E+00
          2   -1    0    0  502    0  0.00000000000E+00  0.00000000000E+00  0.24024107874E+03  0.24024107874E+03  0.00000000000E+00 0. -1.
          1   -1    0    0  501    0 -0.00000000000E+00 -0.00000000000E+00 -0.10398608254E+03  0.10398608254E+03  0.00000000000E+00 0. -1.
         25    2    1    2    0    0 -0.84237025494E+02  0.21383990475E+02  0.12579301581E+03  0.19748930978E+03  0.12499997255E+03 0.  0.
          2    1    1    2  501    0  0.62535320567E+02 -0.73236370487E+01 -0.50374221382E+02  0.80634137671E+02  0.00000000000E+00 0. -1.
          1    1    1    2  502    0  0.21701704927E+02 -0.14060353426E+02  0.60836201774E+02  0.66103713825E+02  0.00000000000E+00 0. -1.
         22    1    3    3    0    0 -0.95767321776E+02 -0.55600129396E+00  0.32769049389E+02  0.10122005560E+03  0.00000000000E+00 0.  1.
         22    1    3    3    0    0  0.11530296282E+02  0.21939991769E+02  0.93023966426E+02  0.96269254182E+02  0.00000000000E+00 0.  1.
</event>
<event>
 7    1  0.6315518E-006  0.9674702E+02  0.7818608E-02  0.1407083E+00
          2   -1    0    0  502    0  0.00000000000E+00  0.00000000000E+00  0.44871307247E+03  0.44871307247E+03  0.00000000000E+00 0. -1.
          1   -1    0    0  501    0 -0.00000000000E+00 -0.00000000000E+00 -0.21359183775E+04  0.21359183775E+04  0.00000000000E+00 0. -1.
         25    2    1    2    0    0 -0.11714799783E+03 -0.28140751451E+02  0.24201385891E+03  0.29784575255E+03  0.12500331643E+03 0.  0.
          2    1    1    2  501    0  0.30084524888E+02  0.17072640836E+02 -0.20970804006E+04  0.20973656716E+04  0.00000000000E+00 0. -1.
          1    1    1    2  502    0  0.87063472945E+02  0.11068110615E+02  0.16786123670E+03  0.18942002581E+03  0.00000000000E+00 0. -1.
         22    1    3    3    0    0 -0.54140171364E+02  0.42862356536E+02  0.55606896300E+02  0.88659272946E+02  0.00000000000E+00 0.  1.
         22    1    3    3    0    0 -0.63007826469E+02 -0.71003107987E+02  0.18640696261E+03  0.20918647960E+03  0.00000000000E+00 0.  1.
</event>
<event>
 7    1  0.6315518E-006  0.1631949E+03  0.7818608E-02  0.1300342E+00
          2   -1    0    0  502    0  0.00000000000E+00  0.00000000000E+00  0.15292159061E+03  0.15292159061E+03  0.00000000000E+00 0. -1.
          1   -1    0    0  501    0 -0.00000000000E+00 -0.00000000000E+00 -0.57484787958E+03  0.57484787958E+03  0.00000000000E+00 0. -1.
         25    2    1    2    0    0 -0.69248985635E+02  0.12298375111E+03 -0.17229770700E+03  0.25540739260E+03  0.12500404517E+03 0.  0.
          2    1    1    2  501    0  0.48665488226E+02 -0.16941851517E+03 -0.33182547186E+03  0.37573808271E+03  0.00000000000E+00 0. -1.
          1    1    1    2  502    0  0.20583497408E+02  0.46434764063E+02  0.82196889884E+02  0.96623994876E+02  0.00000000000E+00 0. -1.
         22    1    3    3    0    0  0.10521106513E+02 -0.16583969600E+02 -0.49071808681E+02  0.52856070012E+02  0.00000000000E+00 0. -1.
         22    1    3    3    0    0 -0.79770092148E+02  0.13956772071E+03 -0.12322589832E+03  0.20255132259E+03  0.00000000000E+00 0. -1.
</event>
<event>
 7    1  0.6315518E-006  0.1241339E+03  0.7818608E-02  0.1237123E+00
          2   -1    0    0  502    0  0.00000000000E+00  0.00000000000E+00  0.96173168995E+03  0.96173168995E+03  0.00000000000E+00 0. -1.
          1   -1    0    0  501    0 -0.00000000000E+00 -0.00000000000E+00 -0.17793134963E+03  0.17793134963E+03  0.00000000000E+00 0. -1.
         25    2    1    2    0    0  0.72887974028E+02  0.53879086850E+02 -0.75440543505E+02  0.17185654402E+03  0.12501113295E+03 0.  0.
          2    1    1    2  501    0  0.37745688244E+02 -0.11733631413E+03  0.27428378670E+02  0.12627297237E+03  0.00000000000E+00 0. -1.
          1    1    1    2  502    0 -0.11063366227E+03  0.63457227279E+02  0.83181250515E+03  0.84153352319E+03  0.00000000000E+00 0. -1.
         22    1    3    3    0    0  0.10659464838E+03  0.31161145156E+02 -0.68880805532E+02  0.13068282749E+03  0.00000000000E+00 0.  1.
         22    1    3    3    0    0 -0.33706674352E+02  0.22717941694E+02 -0.65597379728E+01  0.41173716531E+02  0.00000000000E+00 0.  1.
</event>
<event>
 7    1  0.6315518E-006  0.7795982E+02  0.7818608E-02  0.1408763E+00
          2   -1    0    0  502    0  0.00000000000E+00  0.00000000000E+00  0.26062177053E+04  0.26062177053E+04  0.00000000000E+00 0. -1.
          1   -1    0    0  501    0 -0.00000000000E+00 -0.00000000000E+00 -0.26974053243E+04  0.26974053243E+04  0.00000000000E+00 0. -1.
         25    2    1    2    0    0  0.58000086021E+02  0.54245328849E+00  0.11363723261E+03  0.17861584078E+03  0.12500357478E+03 0.  0.
          2    1    1    2  501    0  0.82732094756E+01  0.41550985654E+02 -0.26641211522E+04  0.26644580019E+04  0.00000000000E+00 0. -1.
          1    1    1    2  502    0 -0.66273295497E+02 -0.42093438943E+02  0.24592963006E+04  0.24605491870E+04  0.00000000000E+00 0. -1.
         22    1    3    3    0    0 -0.36586760858E+02  0.10911621776E+02  0.13541593644E+02  0.40509620071E+02  0.00000000000E+00 0.  1.
         22    1    3    3    0    0  0.94586846880E+02 -0.10369168487E+02  0.10009563897E+03  0.13810622071E+03  0.00000000000E+00 0.  1.
</event>
<event>
 7    1  0.6315518E-006  0.8105527E+02  0.7818608E-02  0.1363034E+00
          2   -1    0    0  502    0  0.00000000000E+00  0.00000000000E+00  0.21764196502E+03  0.21764196502E+03  0.00000000000E+00 0. -1.
          1   -1    0    0  501    0 -0.00000000000E+00 -0.00000000000E+00 -0.63446855504E+03  0.63446855504E+03  0.00000000000E+00 0. -1.
         25    2    1    2    0    0  0.11765638305E+03 -0.39260742797E+02 -0.48956746422E+02  0.18276863066E+03  0.12499271554E+03 0.  0.
          2    1    1    2  501    0 -0.60077003412E+02  0.52038493773E+02 -0.50963577088E+03  0.51579634560E+03  0.00000000000E+00 0. -1.
          1    1    1    2  502    0 -0.57579379636E+02 -0.12777750976E+02  0.14176592728E+03  0.15354554379E+03  0.00000000000E+00 0. -1.
         22    1    3    3    0    0 -0.11147883678E+01 -0.56017188009E+02 -0.12533358488E+02  0.57413005326E+02  0.00000000000E+00 0. -1.
         22    1    3    3    0    0  0.11877117142E+03  0.16756445212E+02 -0.36423387934E+02  0.12535562534E+03  0.00000000000E+00 0. -1.
</event>
<event>
 7    1  0.6315518E-006  0.5295021E+02  0.7818608E-02  0.1439514E+00
          2   -1    0    0  502    0  0.00000000000E+00  0.00000000000E+00  0.67283743944E+03  0.67283743944E+03  0.00000000000E+00 0. -1.
          1   -1    0    0  501    0 -0.00000000000E+00 -0.00000000000E+00 -0.15861911824E+03  0.15861911824E+03  0.00000000000E+00 0. -1.
         25    2    1    2    0    0  0.99794380480E+02  0.89860479263E+01  0.11625146313E+03  0.19793870102E+03  0.12500263697E+03 0.  0.
          2    1    1    2  501    0 -0.50486151377E+02 -0.89149164454E+01 -0.11094780387E+03  0.12222005727E+03  0.00000000000E+00 0. -1.
          1    1    1    2  502    0 -0.49308229104E+02 -0.71131480951E-01  0.50891466194E+03  0.51129779938E+03  0.00000000000E+00 0. -1.
         22    1    3    3    0    0  0.11294533723E+03  0.24502999416E+02  0.12957124794E+03  0.17362532786E+03  0.00000000000E+00 0.  1.
         22    1    3    3    0    0 -0.13150956752E+02 -0.15516951489E+02 -0.13319784808E+02  0.24313373158E+02  0.00000000000E+00 0.  1.
</event>
<event>
 7    1  0.6315518E-006  0.5249859E+02  0.7818608E-02  0.1484347E+00
          2   -1    0    0  502    0  0.00000000000E+00  0.00000000000E+00  0.16840143336E+04  0.16840143336E+04  0.00000000000E+00 0. -1.
          1   -1    0    0  501    0 -0.00000000000E+00 -0.00000000000E+00 -0.41646644697E+02  0.41646644697E+02  0.00000000000E+00 0. -1.
         25    2    1    2    0    0  0.25616905912E+02 -0.99449262794E+00  0.78840620918E+03  0.79866561961E+03  0.12500082557E+03 0.  0.
          2    1    1    2  501    0  0.26323462608E+02 -0.24466830526E+02 -0.26489785517E+02  0.44645931689E+02  0.00000000000E+00 0. -1.
          1    1    1    2  502    0 -0.51940368520E+02  0.25461323154E+02  0.88045126520E+03  0.88234942696E+03  0.00000000000E+00 0. -1.
         22    1    3    3    0    0  0.36339507275E+02  0.42478824697E+02  0.66573630891E+03  0.66807921935E+03  0.00000000000E+00 0.  1.
         22    1    3    3    0    0 -0.10722601363E+02 -0.43473317324E+02  0.12266990028E+03  0.13058640026E+03  0.00000000000E+00 0.  1.
</event>
<event>
 7    1  0.6315518E-006  0.9706190E+02  0.7818608E-02  0.1331298E+00
          2   -1    0    0  502    0  0.00000000000E+00  0.00000000000E+00  0.55547476799E+02  0.55547476799E+02  0.00000000000E+00 0. -1.
          1   -1    0    0  501    0 -0.00000000000E+00 -0.00000000000E+00 -0.96454794321E+03  0.96454794321E+03  0.00000000000E+00 0. -1.
         25    2    1    2    0    0 -0.21155310670E+02  0.25023051031E+02 -0.59289172655E+03  0.60681101378E+03  0.12500122710E+03 0.  0.
          2    1    1    2  501    0  0.84912077178E+02 -0.98208342729E+02 -0.28192059707E+03  0.31037745164E+03  0.00000000000E+00 0. -1.
          1    1    1    2  502    0 -0.63756766508E+02  0.73185291697E+02 -0.34188142786E+02  0.10290695459E+03  0.00000000000E+00 0. -1.
         22    1    3    3    0    0  0.40701132668E+02 -0.83481148779E-02 -0.81643238754E+02  0.91226096620E+02  0.00000000000E+00 0.  1.
         22    1    3    3    0    0 -0.61856443338E+02  0.25031399146E+02 -0.51124848780E+03  0.51558491716E+03  0.00000000000E+00 0.  1.
</event>
<event>
 7    1  0.6315518E-006  0.8463484E+02  0.7818608E-02  0.1411946E+00
          2   -1    0    0  502    0  0.00000000000E+00  0.00000000000E+00  0.59784864758E+03  0.59784864758E+03  0.00000000000E+00 0. -1.
          1   -1    0    0  501    0 -0.00000000000E+00 -0.00000000000E+00 -0.12563608166E+04  0.12563608166E+04  0.00000000000E+00 0. -1.
         25    2    1    2    0    0 -0.18056030245E+02  0.52064950076E+02  0.19569815231E+03  0.23866278339E+03  0.12500151240E+03 0.  0.
          2    1    1    2  501    0 -0.28428038002E+01  0.37962100466E+02 -0.12289697945E+04  0.12295592537E+04  0.00000000000E+00 0. -1.
          1    1    1    2  502    0  0.20898834045E+02 -0.90027050541E+02  0.37475947320E+03  0.38598742706E+03  0.00000000000E+00 0. -1.
         22    1    3    3    0    0 -0.19755995814E+02  0.10249685554E+02 -0.13023475537E+02  0.25786941261E+02  0.00000000000E+00 0. -1.
         22    1    3    3    0    0  0.16999655691E+01  0.41815264521E+02  0.20872162785E+03  0.21287584213E+03  0.00000000000E+00 0. -1.
</event>
<event>
 7    1  0.6315518E-006  0.4604965E+02  0.7818608E-02  0.1510694E+00
          2   -1    0    0  502    0  0.00000000000E+00  0.00000000000E+00  0.16780737730E+04  0.16780737730E+04  0.00000000000E+00 0. -1.
          1   -1    0    0  501    0 -0.00000000000E+00 -0.00000000000E+00 -0.10539436493E+02  0.10539436493E+02  0.00000000000E+00 0. -1.
         25    2    1    2    0    0 -0.23692060741E+02 -0.47042124052E+01  0.82728135264E+03  0.83702076596E+03  0.12500353147E+03 0.  0.
          2    1    1    2  501    0  0.44522664151E+02 -0.22375724830E+02  0.11254096513E+03  0.12307887519E+03  0.00000000000E+00 0. -1.
          1    1    1    2  502    0 -0.20830603410E+02  0.27079937235E+02  0.72771201878E+03  0.72851356838E+03  0.00000000000E+00 0. -1.
         22    1    3    3    0    0 -0.14139161031E+02  0.59342415486E+02  0.46682713778E+03  0.47079614985E+03  0.00000000000E+00 0.  1.
         22    1    3    3    0    0 -0.95528997099E+01 -0.64046627891E+02  0.36045421486E+03  0.36622461611E+03  0.00000000000E+00 0.  1.
</event>
<event>
 7    1  0.6315518E-006  0.1170152E+03  0.7818608E-02  0.1272539E+00
          2   -1    0    0  502    0  0.00000000000E+00  0.00000000000E+00  0.62122055420E+03  0.62122055420E+03  0.00000000000E+00 0. -1.
          1   -1    0    0  501    0 -0.00000000000E+00 -0.00000000000E+00 -0.44462980756E+03  0.44462980756E+03  0.00000000000E+00 0. -1.
         25    2    1    2    0    0 -0.20444202771E+02 -0.31756966562E+02  0.31439184797E+02  0.13431273088E+03  0.12500006793E+03 0.  0.
          2    1    1    2  501    0 -0.31353493870E+02 -0.86539502645E+02 -0.37987243130E+03  0.39086467115E+03  0.00000000000E+00 0. -1.
          1    1    1    2  502    0  0.51797696642E+02  0.11829646921E+03  0.52502399314E+03  0.54067295973E+03  0.00000000000E+00 0. -1.
         22    1    3    3    0    0 -0.51184159212E+02 -0.32912965519E+01  0.63449979318E+02  0.81587686955E+02  0.00000000000E+00 0.  1.
         22    1    3    3    0    0  0.30739956440E+02 -0.28465670010E+02 -0.32010794521E+02  0.52725043925E+02  0.00000000000E+00 0.  1.
</event>
<event>
 7    1  0.6315518E-006  0.4963947E+02  0.7818608E-02  0.1560619E+00
          2   -1    0    0  502    0  0.00000000000E+00  0.00000000000E+00  0.11761906298E+04  0.11761906298E+04  0.00000000000E+00 0. -1.
          1   -1    0    0  501    0 -0.00000000000E+00 -0.00000000000E+00 -0.20095937648E+03  0.20095937648E+03  0.00000000000E+00 0. -1.
         25    2    1    2    0    0 -0.59321843789E+02 -0.98332357155E+01  0.40304686104E+03  0.42624815815E+03  0.12499978583E+03 0.  0.
          2    1    1    2  501    0  0.17021061383E+02 -0.15252884636E+02 -0.18787144303E+03  0.18925656164E+03  0.00000000000E+00 0. -1.
          1    1    1    2  502    0  0.42300782407E+02  0.25086120351E+02  0.76005583527E+03  0.76164528644E+03  0.00000000000E+00 0. -1.
         22    1    3    3    0    0 -0.34213761970E+02 -0.58271615169E+02  0.31876333717E+03  0.32584693917E+03  0.00000000000E+00 0.  1.
         22    1    3    3    0    0 -0.25108081819E+02  0.48438379453E+02  0.84283523866E+02  0.10040121898E+03  0.00000000000E+00 0.  1.
</event>
<event>
 7    1  0.6315518E-006  0.1158052E+03  0.7818608E-02  0.1259300E+00
          2   -1    0    0  502    0  0.00000000000E+00  0.00000000000E+00  0.27691821594E+04  0.27691821594E+04  0.00000000000E+00 0. -1.
          1   -1    0    0  501    0 -0.00000000000E+00 -0.00000000000E+00 -0.91424770230E+02  0.91424770230E+02  0.00000000000E+00 0. -1.
         25    2    1    2    0    0  0.40867089346E+02  0.96044144718E+02  0.15448523014E+03  0.22446742728E+03  0.12500137139E+03 0.  0.
          2    1    1    2  501    0  0.62655664461E+02 -0.11786950613E+03  0.25221530817E+02  0.13584946957E+03  0.00000000000E+00 0. -1.
          1    1    1    2  502    0 -0.10352275381E+03  0.21825361414E+02  0.24980506282E+04  0.25002900328E+04  0.00000000000E+00 0. -1.
         22    1    3    3    0    0  0.51882589874E+02  0.29573298147E+02  0.43153941455E+01  0.59874917302E+02  0.00000000000E+00 0. -1.
         22    1    3    3    0    0 -0.11015500528E+02  0.66470846572E+02  0.15016983600E+03  0.16459250997E+03  0.00000000000E+00 0. -1.
</event>
<event>
 7    1  0.6315518E-006  0.5195383E+02  0.7818608E-02  0.1546960E+00
          2   -1    0    0  502    0  0.00000000000E+00  0.00000000000E+00  0.66090275252E+03  0.66090275252E+03  0.00000000000E+00 0. -1.
          1   -1    0    0  501    0 -0.00000000000E+00 -0.00000000000E+00 -0.34686943563E+03  0.34686943563E+03  0.00000000000E+00 0. -1.
         25    2    1    2    0    0 -0.73247898430E+02 -0.91932372535E+01  0.24119191890E+03  0.28151093096E+03  0.12500036909E+03 0.  0.
          2    1    1    2  501    0  0.51775559134E+02 -0.11393656696E+01 -0.32429827455E+03  0.32840733481E+03  0.00000000000E+00 0. -1.
          1    1    1    2  502    0  0.21472339296E+02  0.10332602923E+02  0.39713967255E+03  0.39785392237E+03  0.00000000000E+00 0. -1.
         22    1    3    3    0    0 -0.91433150914E+01 -0.58947142939E+02  0.13718591448E+03  0.14959392034E+03  0.00000000000E+00 0.  1.
         22    1    3    3    0    0 -0.64104583339E+02  0.49753905685E+02  0.10400600442E+03  0.13191701062E+03  0.00000000000E+00 0.  1.
</event>
<event>
 7    1  0.6315518E-006  0.8508633E+02  0.7818608E-02  0.1369041E+00
          2   -1    0    0  502    0  0.00000000000E+00  0.00000000000E+00  0.25314308270E+03  0.25314308270E+03  0.00000000000E+00 0. -1.
          1   -1    0    0  501    0 -0.00000000000E+00 -0.00000000000E+00 -0.82024299803E+03  0.82024299803E+03  0.00000000000E+00 0. -1.
         25    2    1    2    0    0 -0.91085653376E+02 -0.32036209295E+01  0.11882206240E+02  0.15515572038E+03  0.12500100521E+03 0.  0.
          2    1    1    2  501    0  0.18582942059E+02  0.50109772673E+02 -0.73658475155E+03  0.73852109738E+03  0.00000000000E+00 0. -1.
          1    1    1    2  502    0  0.72502711317E+02 -0.46906151744E+02  0.15760262998E+03  0.17970926297E+03  0.00000000000E+00 0. -1.
         22    1    3    3    0    0 -0.98176262955E+01 -0.45680087073E+02  0.37538571747E+02  0.59934969007E+02  0.00000000000E+00 0. -1.
         22    1    3    3    0    0 -0.81268027081E+02  0.42476466144E+02 -0.25656365507E+02  0.95220751377E+02  0.00000000000E+00 0. -1.
</event>
<event>
 7    1  0.6315518E-006  0.1106683E+03  0.7818608E-02  0.1461505E+00
          2   -1    0    0  502    0  0.00000000000E+00  0.00000000000E+00  0.14502484164E+04  0.14502484164E+04  0.00000000000E+00 0. -1.
          1   -1    0    0  501    0 -0.00000000000E+00 -0.00000000000E+00 -0.56051875964E+02  0.56051875964E+02  0.00000000000E+00 0. -1.
         25    2    1    2    0    0  0.92612088959E+02 -0.21305409456E+01  0.21700925969E+03  0.26703102618E+03  0.12502404540E+03 0.  0.
          2    1    1    2  501    0  0.19836289604E+02 -0.30241313687E+01 -0.24868626944E+02  0.31954222912E+02  0.00000000000E+00 0. -1.
          1    1    1    2  502    0 -0.11244837856E+03  0.51546723143E+01  0.12020559076E+04  0.12073150432E+04  0.00000000000E+00 0. -1.
         22    1    3    3    0    0  0.15221282151E+02  0.24247516496E+02 -0.62218196074E+01  0.29297449134E+02  0.00000000000E+00 0.  1.
         22    1    3    3    0    0  0.77390806808E+02 -0.26378057442E+02  0.22323107930E+03  0.23773357705E+03  0.00000000000E+00 0.  1.
</event>
<event>
 7    1  0.6315518E-006  0.1070608E+03  0.7818608E-02  0.1284070E+00
          2   -1    0    0  502    0  0.00000000000E+00  0.00000000000E+00  0.13903352132E+04  0.13903352132E+04  0.00000000000E+00 0. -1.
          1   -1    0    0  501    0 -0.00000000000E+00 -0.00000000000E+00 -0.10916238101E+04  0.10916238101E+04  0.00000000000E+00 0. -1.
         25    2    1    2    0    0 -0.19037991220E+03  0.11481945275E+02 -0.94126041249E+02  0.24670018331E+03  0.12499969107E+03 0.  0.
          2    1    1    2  501    0  0.10113248507E+03 -0.24003443634E+02 -0.91672509879E+03  0.92259896575E+03  0.00000000000E+00 0. -1.
          1    1    1    2  502    0  0.89247427131E+02  0.12521498359E+02  0.13095625432E+04  0.13126598743E+04  0.00000000000E+00 0. -1.
         22    1    3    3    0    0 -0.62332583177E+02  0.64254710046E+02 -0.35320422207E+02  0.96236951913E+02  0.00000000000E+00 0. -1.
         22    1    3    3    0    0 -0.12804732902E+03 -0.52772764771E+02 -0.58805619042E+02  0.15046323139E+03  0.00000000000E+00 0. -1.
</event>
<event>
 7    1  0.6315518E-006  0.6073361E+02  0.7818608E-02  0.1513856E+00
          2   -1    0    0  502    0  0.00000000000E+00  0.00000000000E+00  0.11381680835E+04  0.11381680835E+04  0.00000000000E+00 0. -1.
          1   -1    0    0  501    0 -0.00000000000E+00 -0.00000000000E+00 -0.59064550585E+02  0.59064550585E+02  0.00000000000E+00 0. -1.
         25    2    1    2    0    0  0.36358560442E+02  0.58507286614E+01  0.33198016097E+03  0.35664042548E+03  0.12500155945E+03 0.  0.
          2    1    1    2  501    0 -0.61506304311E+02 -0.91018715441E+01 -0.25754081779E+02  0.67298902398E+02  0.00000000000E+00 0. -1.
          1    1    1    2  502    0  0.25147743869E+02  0.32511428827E+01  0.77287745371E+03  0.77329330619E+03  0.00000000000E+00 0. -1.
         22    1    3    3    0    0  0.22552946171E+02 -0.45512316890E+02  0.56092209824E+02  0.75672599880E+02  0.00000000000E+00 0. -1.
         22    1    3    3    0    0  0.13805614272E+02  0.51363045552E+02  0.27588795114E+03  0.28096782560E+03  0.00000000000E+00 0. -1.
</event>
<event>
 7    1  0.6315518E-006  0.1273146E+03  0.7818608E-02  0.1308194E+00
          2   -1    0    0  502    0  0.00000000000E+00  0.00000000000E+00  0.99486552069E+03  0.99486552069E+03  0.00000000000E+00 0. -1.
          1   -1    0    0  501    0 -0.00000000000E+00 -0.00000000000E+00 -0.27825673587E+04  0.27825673587E+04  0.00000000000E+00 0. -1.
         25    2    1    2    0    0  0.60959732842E+02 -0.15376091725E+03 -0.20772489682E+03  0.29348530666E+03  0.12500193503E+03 0.  0.
          2    1    1    2  501    0 -0.54178497224E+02  0.27127882220E+02 -0.25273742950E+04  0.25281004843E+04  0.00000000000E+00 0. -1.
          1    1    1    2  502    0 -0.67812356174E+01  0.12663303503E+03  0.94739735375E+03  0.95584708851E+03  0.00000000000E+00 0. -1.
         22    1    3    3    0    0 -0.28889531264E+01 -0.13088544093E+03 -0.94352294982E+02  0.16137441019E+03  0.00000000000E+00 0.  1.
         22    1    3    3    0    0  0.63848685968E+02 -0.22875476326E+02 -0.11337260184E+03  0.13211089647E+03  0.00000000000E+00 0.  1.
</event>
<event>
 7    1  0.6315518E-006  0.4579019E+02  0.7818608E-02  0.1539019E+00
          2   -1    0    0  502    0  0.00000000000E+00  0.00000000000E+00  0.13713862266E+03  0.13713862266E+03  0.00000000000E+00 0. -1.
          1   -1    0    0  501    0 -0.00000000000E+00 -0.00000000000E+00 -0.94582102829E+03  0.94582102829E+03  0.00000000000E+00 0. -1.
         25    2    1    2    0    0  0.71410533117E+01  0.27679448639E+02 -0.41501074086E+03  0.43436895051E+03  0.12500129447E+03 0.  0.
          2    1    1    2  501    0  0.28424713394E+02  0.15136653170E+01 -0.51657392923E+03  0.51735759382E+03  0.00000000000E+00 0. -1.
          1    1    1    2  502    0 -0.35565766706E+02 -0.29193113956E+02  0.12290226446E+03  0.13123310662E+03  0.00000000000E+00 0. -1.
         22    1    3    3    0    0 -0.31982666681E+02 -0.16108431733E+02 -0.32455849246E+03  0.32652808083E+03  0.00000000000E+00 0. -1.
         22    1    3    3    0    0  0.39123719993E+02  0.43787880372E+02 -0.90452248402E+02  0.10784086969E+03  0.00000000000E+00 0. -1.
</event>
<event>
 7    1  0.6315518E-006  0.8277856E+02  0.7818608E-02  0.1376543E+00
          2   -1    0    0  502    0  0.00000000000E+00  0.00000000000E+00  0.27321775111E+04  0.27321775111E+04  0.00000000000E+00 0. -1.
          1   -1    0    0  501    0 -0.00000000000E+00 -0.00000000000E+00 -0.17194012848E+03  0.17194012848E+03  0.00000000000E+00 0. -1.
         25    2    1    2    0    0 -0.86674962385E+02  0.39434547173E+02  0.51042867986E+02  0.16521860112E+03  0.12499671664E+03 0.  0.
          2    1    1    2  501    0  0.82012089872E+02  0.11994839847E+02 -0.99609706159E+02  0.12958376684E+03  0.00000000000E+00 0. -1.
          1    1    1    2  502    0  0.46628725127E+01 -0.51429387019E+02  0.26088042208E+04  0.26093152716E+04  0.00000000000E+00 0. -1.
         22    1    3    3    0    0 -0.55168976977E+02  0.86103969231E+01  0.90316673755E+02  0.10618312726E+03  0.00000000000E+00 0.  1.
         22    1    3    3    0    0 -0.31505985408E+02  0.30824150250E+02 -0.39273805769E+02  0.59035473867E+02  0.00000000000E+00 0.  1.
</event>
<event>
 7    1  0.6315518E-006  0.1062200E+03  0.7818608E-02  0.1318115E+00
          2   -1    0    0  502    0  0.00000000000E+00  0.00000000000E+00  0.83526880194E+03  0.83526880194E+03  0.00000000000E+00 0. -1.
          1   -1    0    0  501    0 -0.00000000000E+00 -0.00000000000E+00 -0.66599231290E+02  0.66599231290E+02  0.00000000000E+00 0. -1.
         25    2    1    2    0    0  0.56858705598E+02  0.24237302858E+02  0.34995766950E+03  0.37671640303E+03  0.12499807445E+03 0.  0.
          2    1    1    2  501    0 -0.11513207934E+03  0.75947310823E+01  0.15394471391E+02  0.11640474811E+03  0.00000000000E+00 0. -1.
          1    1    1    2  502    0  0.58273373743E+02 -0.31832033941E+02  0.40331742975E+03  0.40874688208E+03  0.00000000000E+00 0. -1.
         22    1    3    3    0    0  0.41144754661E+02  0.67391928786E+02  0.13069053276E+03  0.15269112042E+03  0.00000000000E+00 0. -1.
         22    1    3    3    0    0  0.15713950937E+02 -0.43154625928E+02  0.21926713675E+03  0.22402528261E+03  0.00000000000E+00 0. -1.
</event>
<event>
 7    1  0.6315518E-006  0.8681836E+02  0.7818608E-02  0.1401285E+00
          2   -1    0    0  502    0  0.00000000000E+00  0.00000000000E+00  0.20423009532E+04  0.20423009532E+04  0.00000000000E+00 0. -1.
          1   -1    0    0  501    0 -0.00000000000E+00 -0.00000000000E+00 -0.49016227255E+02  0.49016227255E+02  0.00000000000E+00 0. -1.
         25    2    1    2    0    0  0.70643858195E+02  0.46205153661E+01  0.74869674853E+02  0.16199435856E+03  0.12499920052E+03 0.  0.
          2    1    1    2  501    0  0.96131650428E+01 -0.39184916909E+02  0.87836657157E+02  0.96659965838E+02  0.00000000000E+00 0. -1.
          1    1    1    2  502    0 -0.80257023238E+02  0.34564401543E+02  0.18305783939E+04  0.18326628561E+04  0.00000000000E+00 0. -1.
         22    1    3    3    0    0  0.10477476855E+03  0.18088305642E+02  0.62170085478E+02  0.12316679120E+03  0.00000000000E+00 0. -1.
         22    1    3    3    0    0 -0.34130910357E+02 -0.13467790276E+02  0.12699589375E+02  0.38827567359E+02  0.00000000000E+00 0. -1.
</event>
<event>
 7    1  0.6315518E-006  0.4676185E+02  0.7818608E-02  0.1501931E+00
          2   -1    0    0  502    0  0.00000000000E+00  0.00000000000E+00  0.81822785233E+03  0.81822785233E+03  0.00000000000E+00 0. -1.
          1   -1    0    0  501    0 -0.00000000000E+00 -0.00000000000E+00 -0.45499239158E+03  0.45499239158E+03  0.00000000000E+00 0. -1.
         25    2    1    2    0    0  0.62564175869E+02  0.37449184354E+02  0.22923154026E+02  0.14651774229E+03  0.12500104122E+03 0.  0.
          2    1    1    2  501    0 -0.26852606663E+02 -0.37884483037E+02 -0.39138702452E+03  0.39413208383E+03  0.00000000000E+00 0. -1.
          1    1    1    2  502    0 -0.35711569207E+02  0.43529868357E+00  0.73169933125E+03  0.73257041779E+03  0.00000000000E+00 0. -1.
         22    1    3    3    0    0  0.98073517483E+02  0.94233611443E+01  0.78565443183E+01  0.98837947446E+02  0.00000000000E+00 0. -1.
         22    1    3    3    0    0 -0.35509341614E+02  0.28025823209E+02  0.15066609708E+02  0.47679794846E+02  0.00000000000E+00 0. -1.
</event>
<event>
 7    1  0.6315518E-006  0.1987950E+03  0.7818608E-02  0.1377021E+00
          2   -1    0    0  502    0  0.00000000000E+00  0.00000000000E+00  0.75852850832E+03  0.75852850832E+03  0.00000000000E+00 0. -1.
          1   -1    0    0  501    0 -0.00000000000E+00 -0.00000000000E+00 -0.57633608678E+03  0.57633608678E+03  0.00000000000E+00 0. -1.
         25    2    1    2    0    0 -0.16601369114E+03  0.93575250795E+02  0.27750350488E+02  0.22958900373E+03  0.12499662186E+03 0.  0.
          2    1    1    2  501    0  0.20444633849E+01  0.21321178172E+02 -0.45924970422E+03  0.45974891331E+03  0.00000000000E+00 0. -1.
          1    1    1    2  502    0  0.16396922776E+03 -0.11489642897E+03  0.61369177527E+03  0.64552667805E+03  0.00000000000E+00 0. -1.
         22    1    3    3    0    0 -0.27131531341E+02 -0.18254645649E+02  0.39035871187E+02  0.50922994021E+02  0.00000000000E+00 0. -1.
         22    1    3    3    0    0 -0.13888215980E+03  0.11182989644E+03 -0.11285520699E+02  0.17866600971E+03  0.00000000000E+00 0. -1.
</event>
<event>
 7    1  0.6315518E-006  0.3875430E+02  0.7818608E-02  0.1574850E+00
          2   -1    0    0  502    0  0.00000000000E+00  0.00000000000E+00  0.97756100317E+03  0.97756100317E+03  0.00000000000E+00 0. -1.
          1   -1    0    0  501    0 -0.00000000000E+00 -0.00000000000E+00 -0.18368999809E+03  0.18368999809E+03  0.00000000000E+00 0. -1.
         25    2    1    2    0    0 -0.24385385789E+02 -0.28904544798E+02 -0.32675849512E+02  0.13461877071E+03  0.12499753012E+03 0.  0.
          2    1    1    2  501    0  0.24878400397E+02 -0.98958849201E+01 -0.97836933511E+02  0.10143435761E+03  0.00000000000E+00 0. -1.
          1    1    1    2  502    0 -0.49301460840E+00  0.38800429718E+02  0.92438378810E+03  0.92519787295E+03  0.00000000000E+00 0. -1.
         22    1    3    3    0    0  0.48348311870E+02  0.64544458395E+01 -0.20176486349E+02  0.52785506848E+02  0.00000000000E+00 0. -1.
         22    1    3    3    0    0 -0.72733697659E+02 -0.35358990638E+02 -0.12499363163E+02  0.81833263858E+02  0.00000000000E+00 0. -1.
</event>
<event>
 7    1  0.6315518E-006  0.5781698E+02  0.7818608E-02  0.1460002E+00
          2   -1    0    0  502    0  0.00000000000E+00  0.00000000000E+00  0.52823228886E+03  0.52823228886E+03  0.00000000000E+00 0. -1.
          1   -1    0    0  501    0 -0.00000000000E+00 -0.00000000000E+00 -0.36131431659E+04  0.36131431659E+04  0.00000000000E+00 0. -1.
         25    2    1    2    0    0  0.46529660109E+02 -0.81431555715E+02 -0.13285730575E+04  0.13377322279E+04  0.12500014762E+03 0.  0.
          2    1    1    2  501    0 -0.30230556259E+02  0.46189348124E+02 -0.22789360309E+04  0.22796045217E+04  0.00000000000E+00 0. -1.
          1    1    1    2  502    0 -0.16299103850E+02  0.35242207591E+02  0.52259821137E+03  0.52403870516E+03  0.00000000000E+00 0. -1.
         22    1    3    3    0    0  0.79121322580E+02 -0.19541202558E+02 -0.87637172721E+03  0.88015308131E+03  0.00000000000E+00 0.  1.
         22    1    3    3    0    0 -0.32591662471E+02 -0.61890353157E+02 -0.45220133028E+03  0.45757914658E+03  0.00000000000E+00 0.  1.
</event>
<event>
 7    1  0.6315518E-006  0.1022845E+03  0.7818608E-02  0.1388427E+00
          2   -1    0    0  502    0  0.00000000000E+00  0.00000000000E+00  0.31463471491E+03  0.31463471491E+03  0.00000000000E+00 0. -1.
          1   -1    0    0  501    0 -0.00000000000E+00 -0.00000000000E+00 -0.14580141804E+03  0.14580141804E+03  0.00000000000E+00 0. -1.
         25    2    1    2    0    0 -0.34719383378E+01 -0.12855453333E+03  0.34049271939E+02  0.18255113386E+03  0.12500896431E+03 0.  0.
          2    1    1    2  501    0 -0.12163251501E+02  0.93979920795E+02 -0.37170855647E+02  0.10179313685E+03  0.00000000000E+00 0. -1.
          1    1    1    2  502    0  0.15635189839E+02  0.34574612538E+02  0.17195488058E+03  0.17609186225E+03  0.00000000000E+00 0. -1.
         22    1    3    3    0    0 -0.23146193253E+02 -0.46501484598E+02  0.73017607561E+02  0.89608623167E+02  0.00000000000E+00 0.  1.
         22    1    3    3    0    0  0.19674254915E+02 -0.82053048734E+02 -0.38968335622E+02  0.92942510694E+02  0.00000000000E+00 0.  1.
</event>
<event>
 7    1  0.6315518E-006  0.1152977E+03  0.7818608E-02  0.1411727E+00
          2   -1    0    0  502    0  0.00000000000E+00  0.00000000000E+00  0.14504299064E+04  0.14504299064E+04  0.00000000000E+00 0. -1.
          1   -1    0    0  501    0 -0.00000000000E+00 -0.00000000000E+00 -0.28595218931E+03  0.28595218931E+03  0.00000000000E+00 0. -1.
         25    2    1    2    0    0 -0.77423426843E+02  0.54483955888E+02 -0.26044664008E+02  0.15895605482E+03  0.12500325743E+03 0.  0.
          2    1    1    2  501    0  0.93180580005E+02 -0.77619736024E+02 -0.17428760969E+03  0.21232902487E+03  0.00000000000E+00 0. -1.
          1    1    1    2  502    0 -0.15757153162E+02  0.23135780136E+02  0.13648099908E+04  0.13650970160E+04  0.00000000000E+00 0. -1.
         22    1    3    3    0    0 -0.82939031557E+02  0.89099294272E+02 -0.21479865492E+02  0.12360805725E+03  0.00000000000E+00 0. -1.
         22    1    3    3    0    0  0.55156047142E+01 -0.34615338384E+02 -0.45647985162E+01  0.35347997571E+02  0.00000000000E+00 0. -1.
</event>
<event>
 7    1  0.6315518E-006  0.9390164E+02  0.7818608E-02  0.1463255E+00
          2   -1    0    0  502    0  0.00000000000E+00  0.00000000000E+00  0.25744923584E+04  0.25744923584E+04  0.00000000000E+00 0. -1.
          1   -1    0    0  501    0 -0.00000000000E+00 -0.00000000000E+00 -0.19708674645E+03  0.19708674645E+03  0.00000000000E+00 0. -1.
         25    2    1    2    0    0  0.43634791078E+02  0.58052815308E+02  0.34563236488E+03  0.37464939668E+03  0.12500525758E+03 0.  0.
          2    1    1    2  501    0  0.18225694348E+02  0.14597160987E+02 -0.18079912746E+03  0.18230078863E+03  0.00000000000E+00 0. -1.
          1    1    1    2  502    0 -0.61860485427E+02 -0.72649976295E+02  0.22125723746E+04  0.22146289196E+04  0.00000000000E+00 0. -1.
         22    1    3    3    0    0  0.80754777502E+02  0.16183710961E+02  0.25660278967E+03  0.26949626761E+03  0.00000000000E+00 0. -1.
         22    1    3    3    0    0 -0.37119986424E+02  0.41869104347E+02  0.89029575209E+02  0.10515312907E+03  0.00000000000E+00 0. -1.
</event>
<event>
 7    1  0.6315518E-006  0.5739504E+02  0.7818608E-02  0.1447505E+00
          2   -1    0    0  502    0  0.00000000000E+00  0.00000000000E+00  0.65357579548E+03  0.65357579548E+03  0.00000000000E+00 0. -1.
          1   -1    0    0  501    0 -0.00000000000E+00 -0.00000000000E+00 -0.13987915444E+04  0.13987915444E+04  0.00000000000E+00 0. -1.
         25    2    1    2    0    0  0.41606369648E+02  0.38785127800E+02 -0.78500379196E+03  0.79691926792E+03  0.12495595251E+03 0.  0.
          2    1    1    2  501    0  0.15805447739E+02 -0.39845276218E+02 -0.60579835755E+03  0.60731302327E+03  0.00000000000E+00 0. -1.
          1    1    1    2  502    0 -0.57411817387E+02  0.10601484175E+01  0.64558640060E+03  0.64813504868E+03  0.00000000000E+00 0. -1.
         22    1    3    3    0    0  0.74453010481E+02  0.37504673125E+02 -0.71190525810E+03  0.71676980111E+03  0.00000000000E+00 0. -1.
         22    1    3    3    0    0 -0.32846640834E+02  0.12804546747E+01 -0.73098533861E+02  0.80149466816E+02  0.00000000000E+00 0. -1.
</event>
<event>
 7    1  0.6315518E-006  0.8138708E+02  0.7818608E-02  0.1428292E+00
          2   -1    0    0  502    0  0.00000000000E+00  0.00000000000E+00  0.13617398309E+04  0.13617398309E+04  0.00000000000E+00 0. -1.
          1   -1    0    0  501    0 -0.00000000000E+00 -0.00000000000E+00 -0.66646081502E+03  0.66646081502E+03  0.00000000000E+00 0. -1.
         25    2    1    2    0    0  0.11118834874E+03 -0.30954575832E+02  0.42568986193E+02  0.17537822712E+03  0.12499747719E+03 0.  0.
          2    1    1    2  501    0 -0.32614781253E+02  0.12453982905E+02 -0.59824642854E+03  0.59926422795E+03  0.00000000000E+00 0. -1.
          1    1    1    2  502    0 -0.78573567485E+02  0.18500592927E+02  0.12509564583E+04  0.12535581909E+04  0.00000000000E+00 0. -1.
         22    1    3    3    0    0  0.10521195176E+03 -0.71143459164E+02  0.44822838271E+02  0.13468494127E+03  0.00000000000E+00 0.  1.
         22    1    3    3    0    0  0.59763969797E+01  0.40188883332E+02 -0.22538520783E+01  0.40693285853E+02  0.00000000000E+00 0.  1.
</event>
<event>
 7    1  0.6315518E-006  0.2124416E+03  0.7818608E-02  0.1329944E+00
          2   -1    0    0  502    0  0.00000000000E+00  0.00000000000E+00  0.61546114447E+02  0.61546114447E+02  0.00000000000E+00 0. -1.
          1   -1    0    0  501    0 -0.00000000000E+00 -0.00000000000E+00 -0.14382978604E+04  0.14382978604E+04  0.00000000000E+00 0. -1.
         25    2    1    2    0    0 -0.15161826312E+03 -0.15204189579E+03 -0.79000841413E+03  0.82815645764E+03  0.12499995260E+03 0.  0.
          2    1    1    2  501    0 -0.17679734040E+02  0.24100712768E+02 -0.35960765890E+03  0.36084773200E+03  0.00000000000E+00 0. -1.
          1    1    1    2  502    0  0.16929799716E+03  0.12794118302E+03 -0.22713567295E+03  0.31083978523E+03  0.00000000000E+00 0. -1.
         22    1    3    3    0    0 -0.17293783658E+03 -0.14577525338E+03 -0.71435262218E+03  0.74930473683E+03  0.00000000000E+00 0.  1.
         22    1    3    3    0    0  0.21319573458E+02 -0.62666424052E+01 -0.75655791949E+02  0.78851720811E+02  0.00000000000E+00 0.  1.
</event>
<event>
 7    1  0.6315518E-006  0.7338312E+02  0.7818608E-02  0.1389019E+00
          2   -1    0    0  502    0  0.00000000000E+00  0.00000000000E+00  0.97333233933E+03  0.97333233933E+03  0.00000000000E+00 0. -1.
          1   -1    0    0  501    0 -0.00000000000E+00 -0.00000000000E+00 -0.28643545353E+02  0.28643545353E+02  0.00000000000E+00 0. -1.
         25    2    1    2    0    0 -0.43046582820E+02  0.31038779306E+02  0.19186996144E+03  0.23506563554E+03  0.12500142717E+03 0.  0.
          2    1    1    2  501    0 -0.33548362390E+02 -0.40562996556E+02  0.14594282540E+03  0.15514560128E+03  0.00000000000E+00 0. -1.
          1    1    1    2  502    0  0.76594945210E+02  0.95242172503E+01  0.60687600713E+03  0.61176464786E+03  0.00000000000E+00 0. -1.
         22    1    3    3    0    0 -0.56331532514E+01  0.65421686808E+02  0.44867077637E+02  0.79528511718E+02  0.00000000000E+00 0. -1.
         22    1    3    3    0    0 -0.37413429569E+02 -0.34382907502E+02  0.14700288380E+03  0.15553712382E+03  0.00000000000E+00 0. -1.
</event>
<event>
 7    1  0.6315518E-006  0.9193741E+02  0.7818608E-02  0.1301962E+00
          2   -1    0    0  502    0  0.00000000000E+00  0.00000000000E+00  0.27265110131E+04  0.27265110131E+04  0.00000000000E+00 0. -1.
          1   -1    0    0  501    0 -0.00000000000E+00 -0.00000000000E+00 -0.83099221715E+02  0.83099221715E+02  0.00000000000E+00 0. -1.
         25    2    1    2    0    0  0.52615514439E+02 -0.10199689128E+02  0.52890283751E+02  0.14591913366E+03  0.12499034136E+03 0.  0.
          2    1    1    2  501    0 -0.24375578030E+01  0.88792634232E+02  0.19451691918E+02  0.90930973273E+02  0.00000000000E+00 0. -1.
          1    1    1    2  502    0 -0.50177956636E+02 -0.78592945104E+02  0.25710698157E+04  0.25727601279E+04  0.00000000000E+00 0. -1.
         22    1    3    3    0    0  0.63904686397E+02 -0.76349514466E+01  0.87958229754E+02  0.10898968579E+03  0.00000000000E+00 0.  1.
         22    1    3    3    0    0 -0.11289171958E+02 -0.25647376810E+01 -0.35067946003E+02  0.36929447866E+02  0.00000000000E+00 0.  1.
</event>
<event>
 7    1  0.6315518E-006  0.9418448E+02  0.7818608E-02  0.1301364E+00
          2   -1    0    0  502    0  0.00000000000E+00  0.00000000000E+00  0.19692966878E+03  0.19692966878E+03  0.00000000000E+00 0. -1.
          1   -1    0    0  501    0 -0.00000000000E+00 -0.00000000000E+00 -0.11929025297E+04  0.11929025297E+04  0.00000000000E+00 0. -1.
         25    2    1    2    0    0 -0.79017417438E+02 -0.90149191662E+02  0.10181087285E+03  0.20089099138E+03  0.12498442932E+03 0.  0.
          2    1    1    2  501    0 -0.81247825464E+01  0.86805780803E+02 -0.10982783915E+04  0.11017334890E+04  0.00000000000E+00 0. -1.
          1    1    1    2  502    0  0.87142199984E+02  0.33434108585E+01  0.49465765476E+00  0.87207718124E+02  0.00000000000E+00 0. -1.
         22    1    3    3    0    0 -0.10023625449E+03 -0.32547951104E+02  0.37179223132E+02  0.11175406242E+03  0.00000000000E+00 0.  1.
         22    1    3    3    0    0  0.21218837050E+02 -0.57601240557E+02  0.64631649717E+02  0.89136928961E+02  0.00000000000E+00 0.  1.
</event>
<event>
 7    1  0.6315518E-006  0.7345818E+02  0.7818608E-02  0.1405646E+00
          2   -1    0    0  502    0  0.00000000000E+00  0.00000000000E+00  0.78323722200E+03  0.78323722200E+03  0.00000000000E+00 0. -1.
          1   -1    0    0  501    0 -0.00000000000E+00 -0.00000000000E+00 -0.12078948507E+04  0.12078948507E+04  0.00000000000E+00 0. -1.
         25    2    1    2    0    0  0.27088647015E+02 -0.24237004653E+02 -0.10148384704E+02  0.13057388796E+03  0.12500129324E+03 0.  0.
          2    1    1    2  501    0  0.45518234888E+02  0.71380490116E+01 -0.11351412208E+04  0.11360759009E+04  0.00000000000E+00 0. -1.
          1    1    1    2  502    0 -0.72606881903E+02  0.17098955642E+02  0.72063197681E+03  0.72448228383E+03  0.00000000000E+00 0. -1.
         22    1    3    3    0    0 -0.34223419608E+02  0.15895290941E+02  0.28909601636E+02  0.47535963128E+02  0.00000000000E+00 0. -1.
         22    1    3    3    0    0  0.61312066623E+02 -0.40132295594E+02 -0.39057986340E+02  0.83037924830E+02  0.00000000000E+00 0. -1.
</event>
<event>
 7    1  0.6315518E-006  0.5270327E+02  0.7818608E-02  0.1566950E+00
          2   -1    0    0  502    0  0.00000000000E+00  0.00000000000E+00  0.10874923841E+03  0.10874923841E+03  0.00000000000E+00 0. -1.
          1   -1    0    0  501    0 -0.00000000000E+00 -0.00000000000E+00 -0.39920064954E+03  0.39920064954E+03  0.00000000000E+00 0. -1.
         25    2    1    2    0    0 -0.12487818824E+02 -0.33990475050E+02 -0.30385908704E+03  0.33056064290E+03  0.12501478252E+03 0.  0.
          2    1    1    2  501    0 -0.18569783006E+02 -0.91101510560E+01 -0.73045802867E+02  0.75917856988E+02  0.00000000000E+00 0. -1.
          1    1    1    2  502    0  0.31057601830E+02  0.43100626106E+02  0.86453478771E+02  0.10147138806E+03  0.00000000000E+00 0. -1.
         22    1    3    3    0    0 -0.49797756607E+02  0.94883894258E+01 -0.23768519757E+03  0.24303106641E+03  0.00000000000E+00 0. -1.
         22    1    3    3    0    0  0.37309937783E+02 -0.43478864476E+02 -0.66173889468E+02  0.87529576492E+02  0.00000000000E+00 0. -1.
</event>
<event>
 7    1  0.6315518E-006  0.5549592E+02  0.7818608E-02  0.1538988E+00
          2   -1    0    0  502    0  0.00000000000E+00  0.00000000000E+00  0.38100438340E+03  0.38100438340E+03  0.00000000000E+00 0. -1.
          1   -1    0    0  501    0 -0.00000000000E+00 -0.00000000000E+00 -0.80058159606E+02  0.80058159606E+02  0.00000000000E+00 0. -1.
         25    2    1    2    0    0  0.51938969927E+02  0.85067222175E+01  0.53895296486E+02  0.14594113764E+03  0.12499636696E+03 0.  0.
          2    1    1    2  501    0  0.19942145293E+01 -0.23406691481E+02 -0.26785191151E+02  0.35627188532E+02  0.00000000000E+00 0. -1.
          1    1    1    2  502    0 -0.53933184456E+02  0.14899969264E+02  0.27383611845E+03  0.27949421683E+03  0.00000000000E+00 0. -1.
         22    1    3    3    0    0 -0.23407204020E+02 -0.35592714488E+02 -0.13600300296E+01  0.42621452420E+02  0.00000000000E+00 0. -1.
         22    1    3    3    0    0  0.75346173947E+02  0.44099436706E+02  0.55255326515E+02  0.10331968522E+03  0.00000000000E+00 0. -1.
</event>
<event>
 7    1  0.6315518E-006  0.3539814E+02  0.7818608E-02  0.1551177E+00
          2   -1    0    0  502    0  0.00000000000E+00  0.00000000000E+00  0.61762399099E+02  0.61762399099E+02  0.00000000000E+00 0. -1.
          1   -1    0    0  501    0 -0.00000000000E+00 -0.00000000000E+00 -0.55696771746E+03  0.55696771746E+03  0.00000000000E+00 0. -1.
         25    2    1    2    0    0  0.30890274404E+02  0.36615083546E+02 -0.48008668664E+02  0.14221424886E+03  0.12500074766E+03 0.  0.
          2    1    1    2  501    0  0.40648089957E+01 -0.33794806316E+02 -0.43923868591E+03  0.44055559786E+03  0.00000000000E+00 0. -1.
          1    1    1    2  502    0 -0.34955083400E+02 -0.28202772299E+01 -0.79579637864E+01  0.35960269837E+02  0.00000000000E+00 0. -1.
         22    1    3    3    0    0  0.53794575191E+02 -0.73020012785E+00  0.23215764249E+02  0.58594890749E+02  0.00000000000E+00 0. -1.
         22    1    3    3    0    0 -0.22904300787E+02  0.37345283674E+02 -0.71224432913E+02  0.83619358112E+02  0.00000000000E+00 0. -1.
</event>
<event>
 7    1  0.6315518E-006  0.8015574E+02  0.7818608E-02  0.1421313E+00
          2   -1    0    0  502    0  0.00000000000E+00  0.00000000000E+00  0.38682494356E+03  0.38682494356E+03  0.00000000000E+00 0. -1.
          1   -1    0    0  501    0 -0.00000000000E+00 -0.00000000000E+00 -0.26349320566E+04  0.26349320566E+04  0.00000000000E+00 0. -1.
         25    2    1    2    0    0 -0.37405215285E+02  0.53126968523E+02 -0.17010185778E+03  0.22086510791E+03  0.12500051582E+03 0.  0.
          2    1    1    2  501    0  0.71432347876E+02 -0.37632989102E+02 -0.24378115603E+04  0.24391482173E+04  0.00000000000E+00 0. -1.
          1    1    1    2  502    0 -0.34027132591E+02 -0.15493979421E+02  0.35980630511E+03  0.36174367493E+03  0.00000000000E+00 0. -1.
         22    1    3    3    0    0 -0.40685299868E+02  0.35490462607E+02 -0.18795543761E+03  0.19555590783E+03  0.00000000000E+00 0.  1.
         22    1    3    3    0    0  0.32800845827E+01  0.17636505916E+02  0.17853579826E+02  0.25309200074E+02  0.00000000000E+00 0.  1.
</event>
<event>
 7    1  0.6315518E-006  0.1866697E+03  0.7818608E-02  0.1301009E+00
          2   -1    0    0  502    0  0.00000000000E+00  0.00000000000E+00  0.91635763482E+03  0.91635763482E+03  0.00000000000E+00 0. -1.
          1   -1    0    0  501    0 -0.00000000000E+00 -0.00000000000E+00 -0.56301061818E+03  0.56301061818E+03  0.00000000000E+00 0. -1.
         25    2    1    2    0    0 -0.18102970543E+03 -0.97756104003E+02  0.54507785296E+03  0.59586976915E+03  0.12499162328E+03 0.  0.
          2    1    1    2  501    0  0.14271688595E+03  0.11966215755E+03 -0.51996324689E+03  0.55231233881E+03  0.00000000000E+00 0. -1.
          1    1    1    2  502    0  0.38312819478E+02 -0.21906053547E+02  0.32823241057E+03  0.33118614504E+03  0.00000000000E+00 0. -1.
         22    1    3    3    0    0 -0.11120047136E+03 -0.87949212828E+01  0.16381803187E+03  0.19818991659E+03  0.00000000000E+00 0.  1.
         22    1    3    3    0    0 -0.69829234063E+02 -0.88961182720E+02  0.38125982108E+03  0.39767985256E+03  0.00000000000E+00 0.  1.
</event>
<event>
 7    1  0.6315518E-006  0.6889858E+02  0.7818608E-02  0.1417577E+00
          2   -1    0    0  502    0  0.00000000000E+00  0.00000000000E+00  0.85645640467E+03  0.85645640467E+03  0.00000000000E+00 0. -1.
          1   -1    0    0  501    0 -0.00000000000E+00 -0.00000000000E+00 -0.22466909928E+03  0.22466909928E+03  0.00000000000E+00 0. -1.
         25    2    1    2    0    0  0.92670741901E+01 -0.77114883537E+02 -0.11195072333E+02  0.14759007801E+03  0.12499967023E+03 0.  0.
          2    1    1    2  501    0  0.36686856570E+02  0.25653675893E+02 -0.14027512279E+03  0.14724519213E+03  0.00000000000E+00 0. -1.
          1    1    1    2  502    0 -0.45953930760E+02  0.51461207644E+02  0.78325750052E+03  0.78629023380E+03  0.00000000000E+00 0. -1.
         22    1    3    3    0    0 -0.38478612778E+02 -0.32232303031E+02  0.40201424043E+02  0.64309248908E+02  0.00000000000E+00 0. -1.
         22    1    3    3    0    0  0.47745686969E+02 -0.44882580506E+02 -0.51396496375E+02  0.83280829107E+02  0.00000000000E+00 0. -1.
</event>
<event>
 7    1  0.6315518E-006  0.1283338E+03  0.7818608E-02  0.1359335E+00
          2   -1    0    0  502    0  0.00000000000E+00  0.00000000000E+00  0.48148328485E+02  0.48148328485E+02  0.00000000000E+00 0. -1.
          1   -1    0    0  501    0 -0.00000000000E+00 -0.00000000000E+00 -0.20600913860E+04  0.20600913860E+04  0.00000000000E+00 0. -1.
         25    2    1    2    0    0 -0.10750592416E+03 -0.28205246639E+02 -0.98717221857E+03  0.10012412802E+04  0.12498820860E+03 0.  0.
          2    1    1    2  501    0  0.12653650977E+03  0.61587449037E+02 -0.10510606436E+04  0.10604399930E+04  0.00000000000E+00 0. -1.
          1    1    1    2  502    0 -0.19030585609E+02 -0.33382202397E+02  0.26289804706E+02  0.46558441308E+02  0.00000000000E+00 0. -1.
         22    1    3    3    0    0 -0.86966382459E+02 -0.13808708927E+02 -0.27771447907E+03  0.29134028902E+03  0.00000000000E+00 0. -1.
         22    1    3    3    0    0 -0.20539541701E+02 -0.14396537713E+02 -0.70945773950E+03  0.70990099113E+03  0.00000000000E+00 0. -1.
</event>
<event>
 7    1  0.6315518E-006  0.6697458E+02  0.7818608E-02  0.1494196E+00
          2   -1    0    0  502    0  0.00000000000E+00  0.00000000000E+00  0.91312085855E+03  0.91312085855E+03  0.00000000000E+00 0. -1.
          1   -1    0    0  501    0 -0.00000000000E+00 -0.00000000000E+00 -0.91240752377E+02  0.91240752377E+02  0.00000000000E+00 0. -1.
         25    2    1    2    0    0  0.30675589664E+02 -0.28195712697E+02  0.37807259597E+03  0.40037581192E+03  0.12500365167E+03 0.  0.
          2    1    1    2  501    0 -0.51383397542E+02  0.44410162250E+02 -0.65290336548E+02  0.94209044686E+02  0.00000000000E+00 0. -1.
          1    1    1    2  502    0  0.20707807878E+02 -0.16214449553E+02  0.50909784675E+03  0.50977675432E+03  0.00000000000E+00 0. -1.
         22    1    3    3    0    0  0.29188946330E+02 -0.65383489055E+02  0.12081109007E+03  0.14043615885E+03  0.00000000000E+00 0.  1.
         22    1    3    3    0    0  0.14866433344E+01  0.37187776358E+02  0.25726150590E+03  0.25993965307E+03  0.00000000000E+00 0.  1.
</event>
<event>
 7    1  0.6315518E-006  0.7328369E+02  0.7818608E-02  0.1387085E+00
          2   -1    0    0  502    0  0.00000000000E+00  0.00000000000E+00  0.21683370950E+03  0.21683370950E+03  0.00000000000E+00 0. -1.
          1   -1    0    0  501    0 -0.00000000000E+00 -0.00000000000E+00 -0.44819766784E+03  0.44819766784E+03  0.00000000000E+00 0. -1.
         25    2    1    2    0    0  0.94167909167E+02 -0.60647696251E+02 -0.16149842367E+03  0.23290394118E+03  0.12496706283E+03 0.  0.
          2    1    1    2  501    0 -0.53528280308E+02  0.10196883284E+01 -0.24075046432E+03  0.24663151183E+03  0.00000000000E+00 0. -1.
          1    1    1    2  502    0 -0.40639628859E+02  0.59628007922E+02  0.17088492965E+03  0.18549592433E+03  0.00000000000E+00 0. -1.
         22    1    3    3    0    0 -0.14642252071E+02  0.14608453186E+02 -0.67536226840E+02  0.70632459861E+02  0.00000000000E+00 0. -1.
         22    1    3    3    0    0  0.10881016124E+03 -0.75256149437E+02 -0.93962196828E+02  0.16227148132E+03  0.00000000000E+00 0. -1.
</event>
<event>
 7    1  0.6315518E-006  0.1569658E+03  0.7818608E-02  0.1229347E+00
          2   -1    0    0  502    0  0.00000000000E+00  0.00000000000E+00  0.37530388274E+04  0.37530388274E+04  0.00000000000E+00 0. -1.
          1   -1    0    0  501    0 -0.00000000000E+00 -0.00000000000E+00 -0.11814647177E+03  0.11814647177E+03  0.00000000000E+00 0. -1.
         25    2    1    2    0    0  0.13568508699E+03 -0.19868933430E+03  0.29401477277E+03  0.39992825054E+03  0.12494008392E+03 0.  0.
          2    1    1    2  501    0 -0.58884749314E+02  0.12624067131E+03  0.11028492688E+02  0.13973456425E+03  0.00000000000E+00 0. -1.
          1    1    1    2  502    0 -0.76800337676E+02  0.72448662991E+02  0.33298490902E+04  0.33315224844E+04  0.00000000000E+00 0. -1.
         22    1    3    3    0    0  0.15172200088E+03 -0.15619012320E+03  0.27478334677E+03  0.35060063861E+03  0.00000000000E+00 0.  1.
         22    1    3    3    0    0 -0.16036913891E+02 -0.42499211107E+02  0.19231426009E+02  0.49327611925E+02  0.00000000000E+00 0.  1.
</event>
<event>
 7    1  0.6315518E-006  0.8175740E+02  0.7818608E-02  0.1395899E+00
          2   -1    0    0  502    0  0.00000000000E+00  0.00000000000E+00  0.54105041535E+03  0.54105041535E+03  0.00000000000E+00 0. -1.
          1   -1    0    0  501    0 -0.00000000000E+00 -0.00000000000E+00 -0.43517651021E+03  0.43517651021E+03  0.00000000000E+00 0. -1.
         25    2    1    2    0    0 -0.54818640119E+02 -0.97125896590E+02  0.14074416601E+03  0.21879622966E+03  0.12499738700E+03 0.  0.
          2    1    1    2  501    0  0.13476497733E+02  0.80089644570E+02 -0.39057343840E+03  0.39892803604E+03  0.00000000000E+00 0. -1.
          1    1    1    2  502    0  0.41342142386E+02  0.17036252020E+02  0.35570317753E+03  0.35850265986E+03  0.00000000000E+00 0. -1.
         22    1    3    3    0    0  0.22718723806E+02 -0.86136924557E+02  0.79109106512E+02  0.11913841075E+03  0.00000000000E+00 0. -1.
         22    1    3    3    0    0 -0.77537363925E+02 -0.10988972033E+02  0.61635059496E+02  0.99657818910E+02  0.00000000000E+00 0. -1.
</event>
<event>
 7    1  0.6315518E-006  0.7646070E+02  0.7818608E-02  0.1377156E+00
          2   -1    0    0  502    0  0.00000000000E+00  0.00000000000E+00  0.56851384734E+03  0.56851384734E+03  0.00000000000E+00 0. -1.
          1   -1    0    0  501    0 -0.00000000000E+00 -0.00000000000E+00 -0.97219488732E+03  0.97219488732E+03  0.00000000000E+00 0. -1.
         25    2    1    2    0    0  0.12785784173E+02  0.18428586710E+02 -0.19907320448E+03  0.23613352491E+03  0.12500324699E+03 0.  0.
          2    1    1    2  501    0  0.45104825088E+02  0.32556950342E+02 -0.75085255605E+03  0.75291032746E+03  0.00000000000E+00 0. -1.
          1    1    1    2  502    0 -0.57890609261E+02 -0.50985537052E+02  0.54624472055E+03  0.55166488230E+03  0.00000000000E+00 0. -1.
         22    1    3    3    0    0  0.40985517907E+02  0.19096082909E+02 -0.20271070110E+03  0.20769232389E+03  0.00000000000E+00 0. -1.
         22    1    3    3    0    0 -0.28199733734E+02 -0.66749619857E+00  0.36374966199E+01  0.28441201021E+02  0.00000000000E+00 0. -1.
</event>
<event>
 7    1  0.6315518E-006  0.3303565E+02  0.7818608E-02  0.1582866E+00
          2   -1    0    0  502    0  0.00000000000E+00  0.00000000000E+00  0.14311212902E+02  0.14311212902E+02  0.00000000000E+00 0. -1.
          1   -1    0    0  501    0 -0.00000000000E+00 -0.00000000000E+00 -0.20532918134E+04  0.20532918134E+04  0.00000000000E+00 0. -1.
         25    2    1    2    0    0  0.22090167622E+02  0.31026466263E+02 -0.10266904216E+04  0.10349727418E+04  0.12499894959E+03 0.  0.
          2    1    1    2  501    0  0.77577631506E+01 -0.32612287183E+02 -0.99959339623E+03  0.10001553389E+04  0.00000000000E+00 0. -1.
          1    1    1    2  502    0 -0.29847930773E+02  0.15858209196E+01 -0.12696782664E+02  0.32474945565E+02  0.00000000000E+00 0. -1.
         22    1    3    3    0    0  0.20912402533E+02 -0.45494406199E+02 -0.53816477584E+03  0.54048903368E+03  0.00000000000E+00 0. -1.
         22    1    3    3    0    0  0.11777650896E+01  0.76520872462E+02 -0.48852564577E+03  0.49448370815E+03  0.00000000000E+00 0. -1.
</event>
<event>
 7    1  0.6315518E-006  0.8749127E+02  0.7818608E-02  0.1361922E+00
          2   -1    0    0  502    0  0.00000000000E+00  0.00000000000E+00  0.17576224758E+04  0.17576224758E+04  0.00000000000E+00 0. -1.
          1   -1    0    0  501    0 -0.00000000000E+00 -0.00000000000E+00 -0.11823415668E+03  0.11823415668E+03  0.00000000000E+00 0. -1.
         25    2    1    2    0    0 -0.79065392975E+02  0.90566372611E+02  0.22572088325E+03  0.28465311723E+03  0.12499550311E+03 0.  0.
          2    1    1    2  501    0  0.77945099261E+02 -0.35425154609E+02 -0.67489980138E+02  0.10901961978E+03  0.00000000000E+00 0. -1.
          1    1    1    2  502    0  0.11202937136E+01 -0.55141218002E+02  0.14811574160E+04  0.14821838955E+04  0.00000000000E+00 0. -1.
         22    1    3    3    0    0 -0.10694329585E+03  0.50082325917E+02  0.12155394759E+03  0.16947114820E+03  0.00000000000E+00 0. -1.
         22    1    3    3    0    0  0.27877902872E+02  0.40484046694E+02  0.10416693566E+03  0.11518196903E+03  0.00000000000E+00 0. -1.
</event>
<event>
 7    1  0.6315518E-006  0.4215909E+02  0.7818608E-02  0.1505679E+00
          2   -1    0    0  502    0  0.00000000000E+00  0.00000000000E+00  0.41687321168E+03  0.41687321168E+03  0.00000000000E+00 0. -1.
          1   -1    0    0  501    0 -0.00000000000E+00 -0.00000000000E+00 -0.14397816853E+03  0.14397816853E+03  0.00000000000E+00 0. -1.
         25    2    1    2    0    0 -0.51368067245E+02 -0.59042939618E+02  0.16635765620E+03  0.22231904025E+03  0.12500455524E+03 0.  0.
          2    1    1    2  501    0  0.23247742267E+02  0.30828051852E+02 -0.11092429601E+03  0.11745222751E+03  0.00000000000E+00 0. -1.
          1    1    1    2  502    0  0.28120324977E+02  0.28214887766E+02  0.21746168295E+03  0.22108011245E+03  0.00000000000E+00 0. -1.
         22    1    3    3    0    0 -0.83148917621E+02 -0.36600512996E+01  0.10217490671E+03  0.13178334507E+03  0.00000000000E+00 0. -1.
         22    1    3    3    0    0  0.31780850377E+02 -0.55382888318E+02  0.64182749491E+02  0.90535695178E+02  0.00000000000E+00 0. -1.
</event>
<event>
 7    1  0.6315518E-006  0.2903495E+03  0.7818608E-02  0.1287567E+00
          2   -1    0    0  502    0  0.00000000000E+00  0.00000000000E+00  0.17528933184E+04  0.17528933184E+04  0.00000000000E+00 0. -1.
          1   -1    0    0  501    0 -0.00000000000E+00 -0.00000000000E+00 -0.18904602954E+03  0.18904602954E+03  0.00000000000E+00 0. -1.
         25    2    1    2    0    0  0.29565274211E+03 -0.85358434948E+02  0.33589561664E+03  0.47238295204E+03  0.12499272686E+03 0.  0.
          2    1    1    2  501    0 -0.27719482398E+03  0.59031458758E+02  0.45943011951E+02  0.28711050819E+03  0.00000000000E+00 0. -1.
          1    1    1    2  502    0 -0.18457918128E+02  0.26326976190E+02  0.11820086603E+04  0.11824458877E+04  0.00000000000E+00 0. -1.
         22    1    3    3    0    0  0.14105162395E+03 -0.10508261506E+03  0.16652659311E+03  0.24221689210E+03  0.00000000000E+00 0.  1.
         22    1    3    3    0    0  0.15460111815E+03  0.19724180108E+02  0.16936902353E+03  0.23016605994E+03  0.00000000000E+00 0.  1.
</event>
<event>
 7    1  0.6315518E-006  0.1788920E+03  0.7818608E-02  0.1270199E+00
          2   -1    0    0  502    0  0.00000000000E+00  0.00000000000E+00  0.54723774352E+03  0.54723774352E+03  0.00000000000E+00 0. -1.
          1   -1    0    0  501    0 -0.00000000000E+00 -0.00000000000E+00 -0.64028841020E+03  0.64028841020E+03  0.00000000000E+00 0. -1.
         25    2    1    2    0    0  0.45545134473E+02 -0.21839177887E+03  0.28095474494E+02  0.25726156781E+03  0.12499932093E+03 0.  0.
          2    1    1    2  501    0 -0.67909830917E+02  0.16101446691E+03 -0.50868460944E+03  0.53786377046E+03  0.00000000000E+00 0. -1.
          1    1    1    2  502    0  0.22364696445E+02  0.57377311962E+02  0.38753846827E+03  0.39240081545E+03  0.00000000000E+00 0. -1.
         22    1    3    3    0    0 -0.15838178397E+02 -0.15957808049E+03  0.52634613770E+02  0.16877918780E+03  0.00000000000E+00 0.  1.
         22    1    3    3    0    0  0.61383312870E+02 -0.58813698380E+02 -0.24539139276E+02  0.88482380011E+02  0.00000000000E+00 0.  1.
</event>
<event>
 7    1  0.6315518E-006  0.8940940E+02  0.7818608E-02  0.1304682E+00
          2   -1    0    0  502    0  0.00000000000E+00  0.00000000000E+00  0.19404389873E+04  0.19404389873E+04  0.00000000000E+00 0. -1.
          1   -1    0    0  501    0 -0.00000000000E+00 -0.00000000000E+00 -0.20249279157E+04  0.20249279157E+04  0.00000000000E+00 0. -1.
         25    2    1    2    0    0 -0.30779246183E+02 -0.14573803269E+02 -0.42285410599E+02  0.13628295505E+03  0.12500092059E+03 0.  0.
          2    1    1    2  501    0 -0.17232366254E+02  0.89617272177E+02 -0.19335190033E+04  0.19356714458E+04  0.00000000000E+00 0. -1.
          1    1    1    2  502    0  0.48011612437E+02 -0.75043468908E+02  0.18913154855E+04  0.18934125021E+04  0.00000000000E+00 0. -1.
         22    1    3    3    0    0 -0.47466161835E+02  0.37872553262E+02 -0.52540538908E+02  0.80298661499E+02  0.00000000000E+00 0.  1.
         22    1    3    3    0    0  0.16686915652E+02 -0.52446356530E+02  0.10255128308E+02  0.55984293547E+02  0.00000000000E+00 0.  1.
</event>
<event>
 7    1  0.6315518E-006  0.9299914E+02  0.7818608E-02  0.1460772E+00
          2   -1    0    0  502    0  0.00000000000E+00  0.00000000000E+00  0.67650402026E+03  0.67650402026E+03  0.00000000000E+00 0. -1.
          1   -1    0    0  501    0 -0.00000000000E+00 -0.00000000000E+00 -0.93820966885E+03  0.93820966885E+03  0.00000000000E+00 0. -1.
         25    2    1    2    0    0 -0.17285905085E+02 -0.89810491275E+02  0.25503933087E+03  0.29838541304E+03  0.12499627022E+03 0.  0.
          2    1    1    2  501    0  0.23671968418E+02 -0.39853885484E+01 -0.91084939729E+03  0.91116566548E+03  0.00000000000E+00 0. -1.
          1    1    1    2  502    0 -0.63860633330E+01  0.93795879823E+02  0.39410441782E+03  0.40516261059E+03  0.00000000000E+00 0. -1.
         22    1    3    3    0    0  0.23351498674E+02 -0.86438217877E+01 -0.27790634547E+01  0.25054567230E+02  0.00000000000E+00 0. -1.
         22    1    3    3    0    0 -0.40637403759E+02 -0.81166669487E+02  0.25781839432E+03  0.27333084581E+03  0.00000000000E+00 0. -1.
</event>
<event>
 7    1  0.6315518E-006  0.8986263E+02  0.7818608E-02  0.1409434E+00
          2   -1    0    0  502    0  0.00000000000E+00  0.00000000000E+00  0.22777683284E+04  0.22777683284E+04  0.00000000000E+00 0. -1.
          1   -1    0    0  501    0 -0.00000000000E+00 -0.00000000000E+00 -0.59249260048E+02  0.59249260048E+02  0.00000000000E+00 0. -1.
         25    2    1    2    0    0 -0.71071297550E+02 -0.81229217676E+02  0.79148511868E+03  0.80853186000E+03  0.12500304161E+03 0.  0.
          2    1    1    2  501    0 -0.43346937414E+01  0.36304790406E+02 -0.42653469603E+02  0.56179585664E+02  0.00000000000E+00 0. -1.
          1    1    1    2  502    0  0.75405991292E+02  0.44924427270E+02  0.14696874193E+04  0.14723061428E+04  0.00000000000E+00 0. -1.
         22    1    3    3    0    0  0.28690313891E+02  0.91074313064E+01  0.12258727350E+03  0.12622883601E+03  0.00000000000E+00 0.  1.
         22    1    3    3    0    0 -0.99761611441E+02 -0.90336648983E+02  0.66889784518E+03  0.68230302400E+03  0.00000000000E+00 0.  1.
</event>
<event>
 7    1  0.6315518E-006  0.9284064E+02  0.7818608E-02  0.1417913E+00
          2   -1    0    0  502    0  0.00000000000E+00  0.00000000000E+00  0.58196233364E+03  0.58196233364E+03  0.00000000000E+00 0. -1.
          1   -1    0    0  501    0 -0.00000000000E+00 -0.00000000000E+00 -0.50035643361E+03  0.50035643361E+03  0.00000000000E+00 0. -1.
         25    2    1    2    0    0 -0.12271428935E+03  0.38388757108E+01  0.86431520097E+01  0.17541776276E+03  0.12499261433E+03 0.  0.
          2    1    1    2  501    0  0.90502178309E+02 -0.11608715799E+02 -0.41140467008E+03  0.42140148211E+03  0.00000000000E+00 0. -1.
          1    1    1    2  502    0  0.32212111042E+02  0.77698400883E+01  0.48436741810E+03  0.48549952238E+03  0.00000000000E+00 0. -1.
         22    1    3    3    0    0 -0.10505741008E+03 -0.26126530895E+01  0.59802375797E+02  0.12091405841E+03  0.00000000000E+00 0.  1.
         22    1    3    3    0    0 -0.17656879267E+02  0.64515288003E+01 -0.51159223788E+02  0.54503704350E+02  0.00000000000E+00 0.  1.
</event>
<event>
 7    1  0.6315518E-006  0.7133289E+02  0.7818608E-02  0.1363902E+00
          2   -1    0    0  502    0  0.00000000000E+00  0.00000000000E+00  0.35519370953E+03  0.35519370953E+03  0.00000000000E+00 0. -1.
          1   -1    0    0  501    0 -0.00000000000E+00 -0.00000000000E+00 -0.99922787528E+02  0.99922787528E+02  0.00000000000E+00 0. -1.
         25    2    1    2    0    0  0.29495439561E+02 -0.59473766979E+02  0.14368143198E+03  0.20168396581E+03  0.12499983302E+03 0.  0.
          2    1    1    2  501    0 -0.74618147559E+02  0.10578195015E+02 -0.41838820476E+02  0.86198915618E+02  0.00000000000E+00 0. -1.
          1    1    1    2  502    0  0.45122707998E+02  0.48895571965E+02  0.15342831050E+03  0.16723361563E+03  0.00000000000E+00 0. -1.
         22    1    3    3    0    0  0.19076491126E+02 -0.26688684713E+02  0.16019880492E+03  0.16352325677E+03  0.00000000000E+00 0.  1.
         22    1    3    3    0    0  0.10418948435E+02 -0.32785082266E+02 -0.16517372940E+02  0.38160709042E+02  0.00000000000E+00 0.  1.
</event>
<event>
 7    1  0.6315518E-006  0.7655116E+02  0.7818608E-02  0.1402733E+00
          2   -1    0    0  502    0  0.00000000000E+00  0.00000000000E+00  0.18686803271E+03  0.18686803271E+03  0.00000000000E+00 0. -1.
          1   -1    0    0  501    0 -0.00000000000E+00 -0.00000000000E+00 -0.10108653483E+04  0.10108653483E+04  0.00000000000E+00 0. -1.
         25    2    1    2    0    0  0.44491556076E+02  0.30441949040E+02 -0.60830552400E+02  0.14910318773E+03  0.12500077465E+03 0.  0.
          2    1    1    2  501    0  0.35309520993E+02 -0.28279518105E+02 -0.89411937926E+03  0.89526306625E+03  0.00000000000E+00 0. -1.
          1    1    1    2  502    0 -0.79801077070E+02 -0.21624309355E+01  0.13095261605E+03  0.15336712705E+03  0.00000000000E+00 0. -1.
         22    1    3    3    0    0 -0.32428077020E+02  0.42050499527E+02 -0.49707501018E+01  0.53334163969E+02  0.00000000000E+00 0.  1.
         22    1    3    3    0    0  0.76919633097E+02 -0.11608550487E+02 -0.55859802299E+02  0.95769023766E+02  0.00000000000E+00 0.  1.
</event>
<event>
 7    1  0.6315518E-006  0.7102793E+02  0.7818608E-02  0.1360598E+00
          2   -1    0    0  502    0  0.00000000000E+00  0.00000000000E+00  0.81256300785E+02  0.81256300785E+02  0.00000000000E+00 0. -1.
          1   -1    0    0  501    0 -0.00000000000E+00 -0.00000000000E+00 -0.35662006489E+03  0.35662006489E+03  0.00000000000E+00 0. -1.
         25    2    1    2    0    0 -0.10070587024E+03  0.58126528851E+01 -0.20895757471E+03  0.26355862941E+03  0.12499769547E+03 0.  0.
          2    1    1    2  501    0  0.52085691012E+02  0.44789756320E+02 -0.77176456327E+02  0.10332108638E+03  0.00000000000E+00 0. -1.
          1    1    1    2  502    0  0.48620179225E+02 -0.50602409205E+02  0.10770266932E+02  0.70996649886E+02  0.00000000000E+00 0. -1.
         22    1    3    3    0    0 -0.32756331294E+02  0.32350608134E+02 -0.17878410642E+03  0.18461661841E+03  0.00000000000E+00 0.  1.
         22    1    3    3    0    0 -0.67949538943E+02 -0.26537955249E+02 -0.30173468290E+02  0.78942010996E+02  0.00000000000E+00 0.  1.
</event>
<event>
 7    1  0.6315518E-006  0.4500925E+02  0.7818608E-02  0.1540444E+00
          2   -1    0    0  502    0  0.00000000000E+00  0.00000000000E+00  0.35521486815E+02  0.35521486815E+02  0.00000000000E+00 0. -1.
          1   -1    0    0  501    0 -0.00000000000E+00 -0.00000000000E+00 -0.14973782655E+04  0.14973782655E+04  0.00000000000E+00 0. -1.
         25    2    1    2    0    0 -0.54036793432E+01 -0.20344779869E+02 -0.11264383902E+04  0.11335479957E+04  0.12499800759E+03 0.  0.
          2    1    1    2  501    0  0.16047973367E+02 -0.23783593312E+02 -0.35038223795E+03  0.35155498778E+03  0.00000000000E+00 0. -1.
          1    1    1    2  502    0 -0.10644294024E+02  0.44128373181E+02  0.14963849484E+02  0.47796768784E+02  0.00000000000E+00 0. -1.
         22    1    3    3    0    0  0.74242552197E+01  0.34520022737E+02 -0.88172837895E+03  0.88243508871E+03  0.00000000000E+00 0. -1.
         22    1    3    3    0    0 -0.12827934563E+02 -0.54864802607E+02 -0.24471001124E+03  0.25111290702E+03  0.00000000000E+00 0. -1.
</event>
<event>
 7    1  0.6315518E-006  0.1459630E+03  0.7818608E-02  0.1264054E+00
          2   -1    0    0  502    0  0.00000000000E+00  0.00000000000E+00  0.11614913887E+04  0.11614913887E+04  0.00000000000E+00 0. -1.
          1   -1    0    0  501    0 -0.00000000000E+00 -0.00000000000E+00 -0.16531642688E+03  0.16531642688E+03  0.00000000000E+00 0. -1.
         25    2    1    2    0    0  0.98679117308E+02  0.34035100222E+02  0.31124854159E+02  0.16580017419E+03  0.12499993991E+03 0.  0.
          2    1    1    2  501    0  0.48790187180E+02 -0.63548460428E+02 -0.75236308861E+02  0.10990628444E+03  0.00000000000E+00 0. -1.
          1    1    1    2  502    0 -0.14746930449E+03  0.29513360207E+02  0.10402864166E+04  0.10511013570E+04  0.00000000000E+00 0. -1.
         22    1    3    3    0    0  0.12848223813E+03  0.27726071974E+02  0.18143795878E+02  0.13268616323E+03  0.00000000000E+00 0.  1.
         22    1    3    3    0    0 -0.29803120825E+02  0.63090282471E+01  0.12981058281E+02  0.33114010968E+02  0.00000000000E+00 0.  1.
</event>
<event>
 7    1  0.6315518E-006  0.6472988E+02  0.7818608E-02  0.1388977E+00
          2   -1    0    0  502    0  0.00000000000E+00  0.00000000000E+00  0.34404369673E+03  0.34404369673E+03  0.00000000000E+00 0. -1.
          1   -1    0    0  501    0 -0.00000000000E+00 -0.00000000000E+00 -0.30074222687E+03  0.30074222687E+03  0.00000000000E+00 0. -1.
         25    2    1    2    0    0 -0.19630412166E+02  0.10106263855E+03  0.82237702881E+02  0.18162470588E+03  0.12500193605E+03 0.  0.
          2    1    1    2  501    0 -0.22697311242E+02 -0.55212667738E+02 -0.24276378604E+03  0.24999572483E+03  0.00000000000E+00 0. -1.
          1    1    1    2  502    0  0.42327723408E+02 -0.45849970816E+02  0.20382755303E+03  0.21316549290E+03  0.00000000000E+00 0. -1.
         22    1    3    3    0    0  0.16709013535E+02  0.10909793679E+03  0.91393295899E+02  0.14329789070E+03  0.00000000000E+00 0.  1.
         22    1    3    3    0    0 -0.36339425701E+02 -0.80352982331E+01 -0.91555930176E+01  0.38326815175E+02  0.00000000000E+00 0.  1.
</event>
<event>
 7    1  0.6315518E-006  0.1359457E+03  0.7818608E-02  0.1311233E+00
          2   -1    0    0  502    0  0.00000000000E+00  0.00000000000E+00  0.29849834411E+04  0.29849834411E+04  0.00000000000E+00 0. -1.
          1   -1    0    0  501    0 -0.00000000000E+00 -0.00000000000E+00 -0.45476001498E+03  0.45476001498E+03  0.00000000000E+00 0. -1.
         25    2    1    2    0    0 -0.42767794820E+02  0.17909710757E+03  0.41701665890E+03  0.47267910252E+03  0.12497112446E+03 0.  0.
          2    1    1    2  501    0  0.10307707584E+02 -0.13445013506E+03 -0.41597251599E+03  0.43728277088E+03  0.00000000000E+00 0. -1.
          1    1    1    2  502    0  0.32460087236E+02 -0.44646972518E+02  0.25291792832E+04  0.25297815827E+04  0.00000000000E+00 0. -1.
         22    1    3    3    0    0 -0.34617474827E+01 -0.19149832208E+02  0.25525656880E+02  0.32097646774E+02  0.00000000000E+00 0. -1.
         22    1    3    3    0    0 -0.39306047337E+02  0.19824693978E+03  0.39149100202E+03  0.44058145575E+03  0.00000000000E+00 0. -1.
</event>
<event>
 7    1  0.6315518E-006  0.6889264E+02  0.7818608E-02  0.1403574E+00
          2   -1    0    0  502    0  0.00000000000E+00  0.00000000000E+00  0.58776845940E+03  0.58776845940E+03  0.00000000000E+00 0. -1.
          1   -1    0    0  501    0 -0.00000000000E+00 -0.00000000000E+00 -0.73910115001E+03  0.73910115001E+03  0.00000000000E+00 0. -1.
         25    2    1    2    0    0 -0.49938371976E+02 -0.91819545595E+02 -0.52364158938E+03  0.54840700132E+03  0.12500022007E+03 0.  0.
          2    1    1    2  501    0  0.15774350803E+02  0.55400802285E+02 -0.19787883538E+03  0.20609248537E+03  0.00000000000E+00 0. -1.
          1    1    1    2  502    0  0.34164021174E+02  0.36418743310E+02  0.57018773415E+03  0.57237012272E+03  0.00000000000E+00 0. -1.
         22    1    3    3    0    0  0.11492688197E+02 -0.23216881134E+02 -0.35761419107E+03  0.35855127263E+03  0.00000000000E+00 0.  1.
         22    1    3    3    0    0 -0.61431060173E+02 -0.68602664461E+02 -0.16602739831E+03  0.18985572869E+03  0.00000000000E+00 0.  1.
</event>
<event>
 7    1  0.6315518E-006  0.7959055E+02  0.7818608E-02  0.1360815E+00
          2   -1    0    0  502    0  0.00000000000E+00  0.00000000000E+00  0.88784644208E+02  0.88784644208E+02  0.00000000000E+00 0. -1.
          1   -1    0    0  501    0 -0.00000000000E+00 -0.00000000000E+00 -0.83730464967E+03  0.83730464967E+03  0.00000000000E+00 0. -1.
         25    2    1    2    0    0 -0.66420231363E+02  0.11261675430E+03 -0.13488801156E+03  0.22563588917E+03  0.12499039296E+03 0.  0.
          2    1    1    2  501    0  0.56926766308E+02 -0.52164544161E+02 -0.63189361339E+03  0.63659353989E+03  0.00000000000E+00 0. -1.
          1    1    1    2  502    0  0.94934650549E+01 -0.60452210138E+02  0.18261619486E+02  0.63859864826E+02  0.00000000000E+00 0. -1.
         22    1    3    3    0    0 -0.44165472720E+02  0.90562504361E+02 -0.15179316857E+02  0.10189488622E+03  0.00000000000E+00 0. -1.
         22    1    3    3    0    0 -0.22254758643E+02  0.22054249939E+02 -0.11970869471E+03  0.12374100295E+03  0.00000000000E+00 0. -1.
</event>
<event>
 7    1  0.6315518E-006  0.9745311E+02  0.7818608E-02  0.1308714E+00
          2   -1    0    0  502    0  0.00000000000E+00  0.00000000000E+00  0.44938808764E+03  0.44938808764E+03  0.00000000000E+00 0. -1.
          1   -1    0    0  501    0 -0.00000000000E+00 -0.00000000000E+00 -0.41769684157E+03  0.41769684157E+03  0.00000000000E+00 0. -1.
         25    2    1    2    0    0  0.28968480238E+02 -0.15850876228E+02 -0.16791036115E+03  0.21191952219E+03  0.12500228550E+03 0.  0.
          2    1    1    2  501    0  0.26413419701E+01 -0.78738933694E+02 -0.21487307537E+03  0.22886073251E+03  0.00000000000E+00 0. -1.
          1    1    1    2  502    0 -0.31609822208E+02  0.94589809922E+02  0.41447468259E+03  0.42630467451E+03  0.00000000000E+00 0. -1.
         22    1    3    3    0    0  0.40605399911E+02  0.13286134024E+02 -0.16827666278E+01  0.42756889068E+02  0.00000000000E+00 0. -1.
         22    1    3    3    0    0 -0.11636919673E+02 -0.29137010251E+02 -0.16622759452E+03  0.16916263313E+03  0.00000000000E+00 0. -1.
</event>
<event>
 7    1  0.6315518E-006  0.2144295E+03  0.7818608E-02  0.1266590E+00
          2   -1    0    0  502    0  0.00000000000E+00  0.00000000000E+00  0.12705948370E+04  0.12705948370E+04  0.00000000000E+00 0. -1.
          1   -1    0    0  501    0 -0.00000000000E+00 -0.00000000000E+00 -0.32454014523E+03  0.32454014523E+03  0.00000000000E+00 0. -1.
         25    2    1    2    0    0  0.10077991240E+03  0.14419083910E+03  0.51922080130E+03  0.56228324121E+03  0.12499845608E+03 0.  0.
          2    1    1    2  501    0 -0.15298796189E+03 -0.15444501683E+03 -0.26286096037E+03  0.34110770175E+03  0.00000000000E+00 0. -1.
          1    1    1    2  502    0  0.52208049481E+02  0.10254177728E+02  0.68969485089E+03  0.69174403932E+03  0.00000000000E+00 0. -1.
         22    1    3    3    0    0  0.63868585872E+01 -0.14609447415E+02  0.13521416012E+03  0.13615100813E+03  0.00000000000E+00 0.  1.
         22    1    3    3    0    0  0.94393053817E+02  0.15880028652E+03  0.38400664117E+03  0.42613223308E+03  0.00000000000E+00 0.  1.
</event>
<event>
 7    1  0.6315518E-006  0.1211316E+03  0.7818608E-02  0.1319518E+00
          2   -1    0    0  502    0  0.00000000000E+00  0.00000000000E+00  0.32597109282E+04  0.32597109282E+04  0.00000000000E+00 0. -1.
          1   -1    0    0  501    0 -0.00000000000E+00 -0.00000000000E+00 -0.97460808204E+02  0.97460808204E+02  0.00000000000E+00 0. -1.
         25    2    1    2    0    0  0.11433355129E+03  0.12183091406E+03  0.24960730712E+03  0.32534152218E+03  0.12501346214E+03 0.  0.
          2    1    1    2  501    0 -0.65117594114E+02 -0.92098552386E+02 -0.56840553875E+01  0.11293694214E+03  0.00000000000E+00 0. -1.
          1    1    1    2  502    0 -0.49215957180E+02 -0.29732361669E+02  0.29183268683E+04  0.29188932721E+04  0.00000000000E+00 0. -1.
         22    1    3    3    0    0  0.65241954018E+02  0.13645268860E+03  0.14830837836E+03  0.21182828867E+03  0.00000000000E+00 0. -1.
         22    1    3    3    0    0  0.49091597277E+02 -0.14621774539E+02  0.10129892876E+03  0.11351323351E+03  0.00000000000E+00 0. -1.
</event>
<event>
 7    1  0.6315518E-006  0.1061688E+03  0.7818608E-02  0.1302948E+00
          2   -1    0    0  502    0  0.00000000000E+00  0.00000000000E+00  0.28486390457E+04  0.28486390457E+04  0.00000000000E+00 0. -1.
          1   -1    0    0  501    0 -0.00000000000E+00 -0.00000000000E+00 -0.17361089854E+03  0.17361089854E+03  0.00000000000E+00 0. -1.
         25    2    1    2    0    0  0.67974208605E+01 -0.13757424202E+03  0.15025331904E+03  0.23911217954E+03  0.12500279007E+03 0.  0.
          2    1    1    2  501    0 -0.60561662186E+02  0.46290029676E+02 -0.11678170477E+03  0.13945769374E+03  0.00000000000E+00 0. -1.
          1    1    1    2  502    0  0.53764241326E+02  0.91284212342E+02  0.26415565329E+04  0.26436800709E+04  0.00000000000E+00 0. -1.
         22    1    3    3    0    0  0.26236656166E+02 -0.22134111109E+02  0.11013974207E+03  0.11536482906E+03  0.00000000000E+00 0. -1.
         22    1    3    3    0    0 -0.19439235306E+02 -0.11544013091E+03  0.40113576967E+02  0.12374735048E+03  0.00000000000E+00 0. -1.
</event>
<event>
 7    1  0.6315518E-006  0.9274160E+02  0.7818608E-02  0.1382874E+00
          2   -1    0    0  502    0  0.00000000000E+00  0.00000000000E+00  0.46931974812E+03  0.46931974812E+03  0.00000000000E+00 0. -1.
          1   -1    0    0  501    0 -0.00000000000E+00 -0.00000000000E+00 -0.33743808514E+03  0.33743808514E+03  0.00000000000E+00 0. -1.
         25    2    1    2    0    0 -0.23928203459E+02 -0.64460543311E+02 -0.10420528403E+03  0.17666940051E+03  0.12500246115E+03 0.  0.
          2    1    1    2  501    0 -0.43769003404E+02 -0.55088808218E+00 -0.18938972273E+03  0.19438234542E+03  0.00000000000E+00 0. -1.
          1    1    1    2  502    0  0.67697206863E+02  0.65011431394E+02  0.42547666974E+03  0.43570608732E+03  0.00000000000E+00 0. -1.
         22    1    3    3    0    0 -0.67556983256E+02 -0.59266715502E+02 -0.38824633973E+02  0.97897097793E+02  0.00000000000E+00 0. -1.
         22    1    3    3    0    0  0.43628779797E+02 -0.51938278094E+01 -0.65380650059E+02  0.78772302722E+02  0.00000000000E+00 0. -1.
</event>
<event>
 7    1  0.6315518E-006  0.7420147E+02  0.7818608E-02  0.1405922E+00
          2   -1    0    0  502    0  0.00000000000E+00  0.00000000000E+00  0.13803432387E+04  0.13803432387E+04  0.00000000000E+00 0. -1.
          1   -1    0    0  501    0 -0.00000000000E+00 -0.00000000000E+00 -0.82405072803E+02  0.82405072803E+02  0.00000000000E+00 0. -1.
         25    2    1    2    0    0  0.63431630470E+02 -0.18349963401E+02  0.15295784932E+03  0.20828316905E+03  0.12500192775E+03 0.  0.
          2    1    1    2  501    0 -0.18297320559E+02 -0.41674199178E+02 -0.43887949008E+02  0.63227232147E+02  0.00000000000E+00 0. -1.
          1    1    1    2  502    0 -0.45134309911E+02  0.60024162579E+02  0.11888682656E+04  0.11912379103E+04  0.00000000000E+00 0. -1.
         22    1    3    3    0    0 -0.84228014640E+00 -0.25509626284E+02  0.14002381857E+03  0.14233102345E+03  0.00000000000E+00 0.  1.
         22    1    3    3    0    0  0.64273910617E+02  0.71596628835E+01  0.12934030750E+02  0.65952145606E+02  0.00000000000E+00 0.  1.
</event>
<event>
 7    1  0.6315518E-006  0.7251993E+02  0.7818608E-02  0.1447127E+00
          2   -1    0    0  502    0  0.00000000000E+00  0.00000000000E+00  0.25350104466E+02  0.25350104466E+02  0.00000000000E+00 0. -1.
          1   -1    0    0  501    0 -0.00000000000E+00 -0.00000000000E+00 -0.21188719192E+04  0.21188719192E+04  0.00000000000E+00 0. -1.
         25    2    1    2    0    0 -0.54281784128E+02 -0.80944157180E+01 -0.88842776077E+03  0.89885490167E+03  0.12499686592E+03 0.  0.
          2    1    1    2  501    0 -0.16821427856E+02  0.29570638501E+02 -0.11556244680E+04  0.11561251205E+04  0.00000000000E+00 0. -1.
          1    1    1    2  502    0  0.71103211984E+02 -0.21476222783E+02 -0.49469585894E+02  0.89242001479E+02  0.00000000000E+00 0. -1.
         22    1    3    3    0    0  0.40964440142E+02 -0.37624580943E+01 -0.27694842163E+03  0.27998690985E+03  0.00000000000E+00 0.  1.
         22    1    3    3    0    0 -0.95246224270E+02 -0.43319576237E+01 -0.61147933915E+03  0.61886799182E+03  0.00000000000E+00 0.  1.
</event>
<event>
 7    1  0.6849796E-006  0.9233293E+02  0.7818608E-02  0.1315794E+00
          2   -1    0    0  502    0  0.00000000000E+00  0.00000000000E+00  0.61722120318E+03  0.61722120318E+03  0.00000000000E+00 0. -1.
          1   -1    0    0  501    0 -0.00000000000E+00 -0.00000000000E+00 -0.15021757355E+04  0.15021757355E+04  0.00000000000E+00 0. -1.
         25    2    1    2    0    0  0.15663928208E+02  0.95990976981E+02 -0.36034997578E+03  0.39361950564E+03  0.12499833544E+03 0.  0.
          2    1    1    2  501    0  0.62605229892E+02 -0.46517534646E+02 -0.11202581152E+04  0.11229699642E+04  0.00000000000E+00 0. -1.
          1    1    1    2  502    0 -0.78269158100E+02 -0.49473442335E+02  0.59565355863E+03  0.60280746886E+03  0.00000000000E+00 0. -1.
         22    1    3    3    0    0 -0.22128136836E+02  0.48629668966E+02 -0.31076759489E+03  0.31532681011E+03  0.00000000000E+00 0.  1.
         22    1    3    3    0    0  0.37792065045E+02  0.47361308014E+02 -0.49582380894E+02  0.78292695523E+02  0.00000000000E+00 0.  1.
</event>
<event>
 7    1  0.6315518E-006  0.1047687E+03  0.7818608E-02  0.1335469E+00
          2   -1    0    0  502    0  0.00000000000E+00  0.00000000000E+00  0.34551803466E+04  0.34551803466E+04  0.00000000000E+00 0. -1.
          1   -1    0    0  501    0 -0.00000000000E+00 -0.00000000000E+00 -0.13489903202E+03  0.13489903202E+03  0.00000000000E+00 0. -1.
         25    2    1    2    0    0  0.23083015977E+02 -0.15452362670E+03  0.92350540690E+02  0.22037205743E+03  0.12499937798E+03 0.  0.
          2    1    1    2  501    0  0.12029830252E+02  0.56478397359E+02 -0.58165100797E+02  0.81961607689E+02  0.00000000000E+00 0. -1.
          1    1    1    2  502    0 -0.35112846229E+02  0.98045229344E+02  0.32860958747E+04  0.32877457135E+04  0.00000000000E+00 0. -1.
         22    1    3    3    0    0  0.15229911367E+02 -0.13785295390E+02 -0.28204948545E+02  0.34892745545E+02  0.00000000000E+00 0. -1.
         22    1    3    3    0    0  0.78531046098E+01 -0.14073833131E+03  0.12055548923E+03  0.18547931189E+03  0.00000000000E+00 0. -1.
</event>
<event>
 7    1  0.6315518E-006  0.7777867E+02  0.7818608E-02  0.1474698E+00
          2   -1    0    0  502    0  0.00000000000E+00  0.00000000000E+00  0.59996854310E+03  0.59996854310E+03  0.00000000000E+00 0. -1.
          1   -1    0    0  501    0 -0.00000000000E+00 -0.00000000000E+00 -0.10839159391E+04  0.10839159391E+04  0.00000000000E+00 0. -1.
         25    2    1    2    0    0  0.91364582474E+02  0.44961892740E+01 -0.16622395724E+03  0.22720679695E+03  0.12499928788E+03 0.  0.
          2    1    1    2  501    0 -0.73551377657E+02 -0.23393472944E+02 -0.88522444429E+03  0.88858279102E+03  0.00000000000E+00 0. -1.
          1    1    1    2  502    0 -0.17813204818E+02  0.18897283670E+02  0.56750100551E+03  0.56809489423E+03  0.00000000000E+00 0. -1.
         22    1    3    3    0    0  0.80760130029E+01 -0.40499060250E+01 -0.13881503109E+03  0.13910872216E+03  0.00000000000E+00 0. -1.
         22    1    3    3    0    0  0.83288569472E+02  0.85460952990E+01 -0.27408926157E+02  0.88098074795E+02  0.00000000000E+00 0. -1.
</event>
<event>
 7    1  0.6315518E-006  0.1421467E+03  0.7818608E-02  0.1305994E+00
          2   -1    0    0  502    0  0.00000000000E+00  0.00000000000E+00  0.29928857116E+03  0.29928857116E+03  0.00000000000E+00 0. -1.
          1   -1    0    0  501    0 -0.00000000000E+00 -0.00000000000E+00 -0.18997378533E+03  0.18997378533E+03  0.00000000000E+00 0. -1.
         25    2    1    2    0    0  0.14936333988E+03 -0.51211665746E+02  0.66053177431E+02  0.21194490783E+03  0.12500231877E+03 0.  0.
          2    1    1    2  501    0 -0.13941158536E+03 -0.32543180632E+01 -0.66415051990E+02  0.15445756650E+03  0.00000000000E+00 0. -1.
          1    1    1    2  502    0 -0.99517545163E+01  0.54465983809E+02  0.10967666039E+03  0.12285988216E+03  0.00000000000E+00 0. -1.
         22    1    3    3    0    0  0.11193852998E+03 -0.92239837556E+02  0.39142500939E+02  0.15023500759E+03  0.00000000000E+00 0.  1.
         22    1    3    3    0    0  0.37424809902E+02  0.41028171811E+02  0.26910676492E+02  0.61709900240E+02  0.00000000000E+00 0.  1.
</event>
<event>
 7    1  0.6315518E-006  0.2654988E+03  0.7818608E-02  0.1289445E+00
          2   -1    0    0  502    0  0.00000000000E+00  0.00000000000E+00  0.10790027216E+04  0.10790027216E+04  0.00000000000E+00 0. -1.
          1   -1    0    0  501    0 -0.00000000000E+00 -0.00000000000E+00 -0.13512794746E+03  0.13512794746E+03  0.00000000000E+00 0. -1.
         25    2    1    2    0    0  0.17068883540E+03 -0.23054627267E+03  0.42930170444E+03  0.53123512009E+03  0.12499814803E+03 0.  0.
          2    1    1    2  501    0 -0.11096126360E+02  0.32717413446E+02 -0.51707209550E+02  0.62186724325E+02  0.00000000000E+00 0. -1.
          1    1    1    2  502    0 -0.15959270904E+03  0.19782885923E+03  0.56628027927E+03  0.62070882466E+03  0.00000000000E+00 0. -1.
         22    1    3    3    0    0  0.93193783577E+02 -0.37404782527E+02  0.18338594151E+03  0.20908037354E+03  0.00000000000E+00 0.  1.
         22    1    3    3    0    0  0.77495051822E+02 -0.19314149014E+03  0.24591576293E+03  0.32215474655E+03  0.00000000000E+00 0.  1.
</event>
<event>
 7    1  0.6315518E-006  0.7415756E+02  0.7818608E-02  0.1383472E+00
          2   -1    0    0  502    0  0.00000000000E+00  0.00000000000E+00  0.73621966669E+02  0.73621966669E+02  0.00000000000E+00 0. -1.
          1   -1    0    0  501    0 -0.00000000000E+00 -0.00000000000E+00 -0.29477111754E+03  0.29477111754E+03  0.00000000000E+00 0. -1.
         25    2    1    2    0    0  0.12740585232E+02 -0.44623896000E+02 -0.16509379863E+03  0.21221904099E+03  0.12500937727E+03 0.  0.
          2    1    1    2  501    0  0.54312018885E+02 -0.42311795540E+01 -0.48377297159E+02  0.72856442105E+02  0.00000000000E+00 0. -1.
          1    1    1    2  502    0 -0.67052604117E+02  0.48855075554E+02 -0.76780550844E+01  0.83317601119E+02  0.00000000000E+00 0. -1.
         22    1    3    3    0    0 -0.32316497504E+02  0.22813204639E+02 -0.10219231696E+03  0.10958133036E+03  0.00000000000E+00 0.  1.
         22    1    3    3    0    0  0.45057082736E+02 -0.67437100639E+02 -0.62901481665E+02  0.10263771063E+03  0.00000000000E+00 0.  1.
</event>
<event>
 7    1  0.6315518E-006  0.6683120E+02  0.7818608E-02  0.1401362E+00
          2   -1    0    0  502    0  0.00000000000E+00  0.00000000000E+00  0.27069983546E+03  0.27069983546E+03  0.00000000000E+00 0. -1.
          1   -1    0    0  501    0 -0.00000000000E+00 -0.00000000000E+00 -0.13704838274E+04  0.13704838274E+04  0.00000000000E+00 0. -1.
         25    2    1    2    0    0 -0.25228739435E+02  0.58783938803E+02  0.51283780212E+02  0.14948405935E+03  0.12499366837E+03 0.  0.
          2    1    1    2  501    0  0.52077057008E+02  0.56360958716E+01 -0.13136901499E+04  0.13147340398E+04  0.00000000000E+00 0. -1.
          1    1    1    2  502    0 -0.26848317573E+02 -0.64420034675E+02  0.16262237771E+03  0.17696556376E+03  0.00000000000E+00 0. -1.
         22    1    3    3    0    0 -0.73593742453E+02  0.15025709676E+02  0.29922060305E+02  0.80852585441E+02  0.00000000000E+00 0. -1.
         22    1    3    3    0    0  0.48365003019E+02  0.43758229127E+02  0.21361719907E+02  0.68631473908E+02  0.00000000000E+00 0. -1.
</event>
<event>
 7    1  0.6315518E-006  0.4591376E+02  0.7818608E-02  0.1495413E+00
          2   -1    0    0  502    0  0.00000000000E+00  0.00000000000E+00  0.22771781074E+03  0.22771781074E+03  0.00000000000E+00 0. -1.
          1   -1    0    0  501    0 -0.00000000000E+00 -0.00000000000E+00 -0.21855998762E+04  0.21855998762E+04  0.00000000000E+00 0. -1.
         25    2    1    2    0    0  0.29233406476E+02  0.40160932185E+02 -0.11749000632E+04  0.11825741929E+04  0.12499628296E+03 0.  0.
          2    1    1    2  501    0 -0.46878960947E+02 -0.64578249630E+01 -0.10046856910E+04  0.10057995219E+04  0.00000000000E+00 0. -1.
          1    1    1    2  502    0  0.17645554471E+02 -0.33703107222E+02  0.22170368871E+03  0.22494397217E+03  0.00000000000E+00 0. -1.
         22    1    3    3    0    0 -0.48593199412E+02  0.42248965947E+01 -0.43131718796E+03  0.43406642972E+03  0.00000000000E+00 0. -1.
         22    1    3    3    0    0  0.77826605888E+02  0.35936035590E+02 -0.74358287520E+03  0.74850776317E+03  0.00000000000E+00 0. -1.
</event>
<event>
 7    1  0.6315518E-006  0.1305080E+03  0.7818608E-02  0.1256922E+00
          2   -1    0    0  502    0  0.00000000000E+00  0.00000000000E+00  0.48247572970E+03  0.48247572970E+03  0.00000000000E+00 0. -1.
          1   -1    0    0  501    0 -0.00000000000E+00 -0.00000000000E+00 -0.12185908141E+03  0.12185908141E+03  0.00000000000E+00 0. -1.
         25    2    1    2    0    0  0.87346724147E+02  0.32812476546E+02  0.11083101861E+03  0.19131929312E+03  0.12495378505E+03 0.  0.
          2    1    1    2  501    0  0.14902747908E+01  0.96094232685E+02 -0.22707667056E+02  0.98752015764E+02  0.00000000000E+00 0. -1.
          1    1    1    2  502    0 -0.88836998937E+02 -0.12890670923E+03  0.27249329674E+03  0.31426350223E+03  0.00000000000E+00 0. -1.
         22    1    3    3    0    0  0.29496404822E+02  0.76915056068E+02  0.68635888059E+02  0.10722335975E+03  0.00000000000E+00 0.  1.
         22    1    3    3    0    0  0.57850319325E+02 -0.44102579522E+02  0.42195130549E+02  0.84095933365E+02  0.00000000000E+00 0.  1.
</event>
<event>
 7    1  0.6315518E-006  0.9114597E+02  0.7818608E-02  0.1446371E+00
          2   -1    0    0  502    0  0.00000000000E+00  0.00000000000E+00  0.81356478730E+03  0.81356478730E+03  0.00000000000E+00 0. -1.
          1   -1    0    0  501    0 -0.00000000000E+00 -0.00000000000E+00 -0.78854987637E+03  0.78854987637E+03  0.00000000000E+00 0. -1.
         25    2    1    2    0    0  0.11604297220E+03 -0.19626977836E+02  0.58030617131E+02  0.18123078733E+03  0.12500342434E+03 0.  0.
          2    1    1    2  501    0 -0.89482467415E+02  0.13671288313E+02 -0.72386278764E+03  0.72950075492E+03  0.00000000000E+00 0. -1.
          1    1    1    2  502    0 -0.26560504785E+02  0.59556895228E+01  0.69084708144E+03  0.69138312142E+03  0.00000000000E+00 0. -1.
         22    1    3    3    0    0  0.12238880201E+03 -0.55814119175E+02  0.50794285091E+02  0.14378558396E+03  0.00000000000E+00 0. -1.
         22    1    3    3    0    0 -0.63458298087E+01  0.36187141339E+02  0.72363320398E+01  0.37445203373E+02  0.00000000000E+00 0. -1.
</event>
<event>
 7    1  0.6315518E-006  0.2044957E+03  0.7818608E-02  0.1286728E+00
          2   -1    0    0  502    0  0.00000000000E+00  0.00000000000E+00  0.14598128885E+04  0.14598128885E+04  0.00000000000E+00 0. -1.
          1   -1    0    0  501    0 -0.00000000000E+00 -0.00000000000E+00 -0.10941339903E+04  0.10941339903E+04  0.00000000000E+00 0. -1.
         25    2    1    2    0    0 -0.50746426878E+02 -0.24306997927E+03 -0.15380833591E+03  0.31771232722E+03  0.12500361597E+03 0.  0.
          2    1    1    2  501    0  0.16500970272E+01  0.45983590939E+02 -0.85026315442E+03  0.85150727843E+03  0.00000000000E+00 0. -1.
          1    1    1    2  502    0  0.49096329851E+02  0.19708638833E+03  0.13697503886E+04  0.13847272732E+04  0.00000000000E+00 0. -1.
         22    1    3    3    0    0 -0.73102583239E+02 -0.17072578454E+03 -0.55916734228E+02  0.19395350564E+03  0.00000000000E+00 0.  1.
         22    1    3    3    0    0  0.22356156361E+02 -0.72344194733E+02 -0.97891601682E+02  0.12375882158E+03  0.00000000000E+00 0.  1.
</event>
<event>
 7    1  0.6315518E-006  0.2715839E+03  0.7818608E-02  0.1117914E+00
          2   -1    0    0  502    0  0.00000000000E+00  0.00000000000E+00  0.11707652489E+04  0.11707652489E+04  0.00000000000E+00 0. -1.
          1   -1    0    0  501    0 -0.00000000000E+00 -0.00000000000E+00 -0.66100189291E+03  0.66100189291E+03  0.00000000000E+00 0. -1.
         25    2    1    2    0    0  0.25346686689E+03 -0.21712163669E+03 -0.11709135232E+02  0.35658028949E+03  0.12500056508E+03 0.  0.
          2    1    1    2  501    0 -0.27187262622E+03  0.76282819298E+00 -0.42478296983E+03  0.50433706809E+03  0.00000000000E+00 0. -1.
          1    1    1    2  502    0  0.18405759325E+02  0.21635880850E+03  0.94625546109E+03  0.97084978428E+03  0.00000000000E+00 0. -1.
         22    1    3    3    0    0  0.18451837959E+03 -0.10732145338E+03  0.39676257571E+02  0.21711548120E+03  0.00000000000E+00 0.  1.
         22    1    3    3    0    0  0.68948487303E+02 -0.10980018331E+03 -0.51385392803E+02  0.13946480829E+03  0.00000000000E+00 0.  1.
</event>
<event>
 7    1  0.6315518E-006  0.2667206E+03  0.7818608E-02  0.1236334E+00
          2   -1    0    0  502    0  0.00000000000E+00  0.00000000000E+00  0.76015238684E+02  0.76015238684E+02  0.00000000000E+00 0. -1.
          1   -1    0    0  501    0 -0.00000000000E+00 -0.00000000000E+00 -0.13138738226E+04  0.13138738226E+04  0.00000000000E+00 0. -1.
         25    2    1    2    0    0 -0.20685804529E+03  0.12061887584E+03 -0.54198270907E+03  0.60556538993E+03  0.12500008176E+03 0.  0.
          2    1    1    2  501    0  0.26348850900E+03 -0.13233056088E+03 -0.63630739909E+03  0.70130213022E+03  0.00000000000E+00 0. -1.
          1    1    1    2  502    0 -0.56630463716E+02  0.11711685041E+02 -0.59568475746E+02  0.83021541120E+02  0.00000000000E+00 0. -1.
         22    1    3    3    0    0 -0.18933622683E+03  0.57195413841E+02 -0.34245353592E+03  0.39546674502E+03  0.00000000000E+00 0. -1.
         22    1    3    3    0    0 -0.17521818458E+02  0.63423462000E+02 -0.19952917315E+03  0.21009864491E+03  0.00000000000E+00 0. -1.
</event>
<event>
 7    1  0.6315518E-006  0.6635591E+02  0.7818608E-02  0.1420356E+00
          2   -1    0    0  502    0  0.00000000000E+00  0.00000000000E+00  0.76610838067E+03  0.76610838067E+03  0.00000000000E+00 0. -1.
          1   -1    0    0  501    0 -0.00000000000E+00 -0.00000000000E+00 -0.24483995731E+03  0.24483995731E+03  0.00000000000E+00 0. -1.
         25    2    1    2    0    0 -0.59790554534E+02  0.31437389372E+02  0.15387036416E+03  0.20943785796E+03  0.12499963008E+03 0.  0.
          2    1    1    2  501    0  0.33689205478E+02  0.30578928406E+02 -0.21270588796E+03  0.21751742046E+03  0.00000000000E+00 0. -1.
          1    1    1    2  502    0  0.26101349056E+02 -0.62016317779E+02  0.58010394717E+03  0.58399305956E+03  0.00000000000E+00 0. -1.
         22    1    3    3    0    0  0.13764430737E+01  0.67517706417E+02  0.98311424783E+02  0.11927141954E+03  0.00000000000E+00 0. -1.
         22    1    3    3    0    0 -0.61166997608E+02 -0.36080317045E+02  0.55558939376E+02  0.90166438429E+02  0.00000000000E+00 0. -1.
</event>
<event>
 7    1  0.6315518E-006  0.1294329E+03  0.7818608E-02  0.1301992E+00
          2   -1    0    0  502    0  0.00000000000E+00  0.00000000000E+00  0.22009704796E+04  0.22009704796E+04  0.00000000000E+00 0. -1.
          1   -1    0    0  501    0 -0.00000000000E+00 -0.00000000000E+00 -0.13903354889E+04  0.13903354889E+04  0.00000000000E+00 0. -1.
         25    2    1    2    0    0  0.15497713376E+03 -0.74669946542E+02 -0.27771262645E+03  0.34977737970E+03  0.12500559810E+03 0.  0.
          2    1    1    2  501    0 -0.92738890547E+02  0.84920054925E+02 -0.10724569339E+04  0.10798035898E+04  0.00000000000E+00 0. -1.
          1    1    1    2  502    0 -0.62238243214E+02 -0.10250108383E+02  0.21608045510E+04  0.21617249990E+04  0.00000000000E+00 0. -1.
         22    1    3    3    0    0  0.59114640741E+01 -0.32227685202E+02 -0.11970959799E+01  0.32787225252E+02  0.00000000000E+00 0. -1.
         22    1    3    3    0    0  0.14906566969E+03 -0.42442261341E+02 -0.27651553047E+03  0.31699015445E+03  0.00000000000E+00 0. -1.
</event>
<event>
 7    1  0.6315518E-006  0.7293710E+02  0.7818608E-02  0.1422939E+00
          2   -1    0    0  502    0  0.00000000000E+00  0.00000000000E+00  0.39066724245E+02  0.39066724245E+02  0.00000000000E+00 0. -1.
          1   -1    0    0  501    0 -0.00000000000E+00 -0.00000000000E+00 -0.19195074680E+04  0.19195074680E+04  0.00000000000E+00 0. -1.
         25    2    1    2    0    0  0.10899540407E+03  0.18553139170E+02 -0.11246101461E+04  0.11369245445E+04  0.12500088857E+03 0.  0.
          2    1    1    2  501    0 -0.40504199241E+02  0.24806143325E+01 -0.74853143473E+03  0.74963061062E+03  0.00000000000E+00 0. -1.
          1    1    1    2  502    0 -0.68491204826E+02 -0.21033753502E+02 -0.72991629197E+01  0.72019037096E+02  0.00000000000E+00 0. -1.
         22    1    3    3    0    0  0.56374349112E+02  0.18909285552E+02 -0.99859186439E+03  0.10003606050E+04  0.00000000000E+00 0.  1.
         22    1    3    3    0    0  0.52621054956E+02 -0.35614638175E+00 -0.12601828171E+03  0.13656393956E+03  0.00000000000E+00 0.  1.
</event>
<event>
 7    1  0.6315518E-006  0.5191494E+02  0.7818608E-02  0.1438057E+00
          2   -1    0    0  502    0  0.00000000000E+00  0.00000000000E+00  0.17479505632E+03  0.17479505632E+03  0.00000000000E+00 0. -1.
          1   -1    0    0  501    0 -0.00000000000E+00 -0.00000000000E+00 -0.10746299933E+04  0.10746299933E+04  0.00000000000E+00 0. -1.
         25    2    1    2    0    0 -0.18821731118E+02 -0.34077279959E+02 -0.55172816294E+02  0.14207394521E+03  0.12500179069E+03 0.  0.
          2    1    1    2  501    0 -0.31387329969E+02  0.42080790705E+02 -0.97035008691E+03  0.97176913338E+03  0.00000000000E+00 0. -1.
          1    1    1    2  502    0  0.50209061087E+02 -0.80035107452E+01  0.12568796626E+03  0.13558197101E+03  0.00000000000E+00 0. -1.
         22    1    3    3    0    0 -0.33971681240E+02 -0.62585238365E+02  0.74700381691E+01  0.71601596754E+02  0.00000000000E+00 0.  1.
         22    1    3    3    0    0  0.15149950121E+02  0.28507958405E+02 -0.62642854463E+02  0.70472348453E+02  0.00000000000E+00 0.  1.
</event>
<event>
 7    1  0.6315518E-006  0.8052397E+02  0.7818608E-02  0.1482063E+00
          2   -1    0    0  502    0  0.00000000000E+00  0.00000000000E+00  0.21913403787E+04  0.21913403787E+04  0.00000000000E+00 0. -1.
          1   -1    0    0  501    0 -0.00000000000E+00 -0.00000000000E+00 -0.10602305605E+03  0.10602305605E+03  0.00000000000E+00 0. -1.
         25    2    1    2    0    0  0.31064927580E+02 -0.95187100725E+02  0.29248117700E+03  0.33346009033E+03  0.12499911628E+03 0.  0.
          2    1    1    2  501    0 -0.16981003217E+02  0.16689841141E+02 -0.83012798332E+02  0.86359886258E+02  0.00000000000E+00 0. -1.
          1    1    1    2  502    0 -0.14083924363E+02  0.78497259584E+02  0.18758489439E+04  0.18775434581E+04  0.00000000000E+00 0. -1.
         22    1    3    3    0    0 -0.14760821448E+02  0.23746480288E+02  0.26526481560E+02  0.38541294735E+02  0.00000000000E+00 0.  1.
         22    1    3    3    0    0  0.45825749028E+02 -0.11893358101E+03  0.26595469544E+03  0.29491879559E+03  0.00000000000E+00 0.  1.
</event>
<event>
 7    1  0.6315518E-006  0.6726600E+02  0.7818608E-02  0.1371682E+00
          2   -1    0    0  502    0  0.00000000000E+00  0.00000000000E+00  0.55137316018E+03  0.55137316018E+03  0.00000000000E+00 0. -1.
          1   -1    0    0  501    0 -0.00000000000E+00 -0.00000000000E+00 -0.12666342900E+03  0.12666342900E+03  0.00000000000E+00 0. -1.
         25    2    1    2    0    0 -0.40702233762E+02  0.39611051604E+02  0.27964394336E+03  0.31152511991E+03  0.12498583135E+03 0.  0.
          2    1    1    2  501    0 -0.20029319684E+02 -0.65812593109E+02 -0.95117421286E+02  0.11738737109E+03  0.00000000000E+00 0. -1.
          1    1    1    2  502    0  0.60731553445E+02  0.26201541505E+02  0.24018320911E+03  0.24912409819E+03  0.00000000000E+00 0. -1.
         22    1    3    3    0    0  0.40853082395E+02  0.31889858918E+02  0.75677839455E+02  0.91722804294E+02  0.00000000000E+00 0.  1.
         22    1    3    3    0    0 -0.81555316157E+02  0.77211926853E+01  0.20396610390E+03  0.21980231562E+03  0.00000000000E+00 0.  1.
</event>
<event>
 7    1  0.6315518E-006  0.1189259E+03  0.7818608E-02  0.1440388E+00
          2   -1    0    0  502    0  0.00000000000E+00  0.00000000000E+00  0.28633493087E+03  0.28633493087E+03  0.00000000000E+00 0. -1.
          1   -1    0    0  501    0 -0.00000000000E+00 -0.00000000000E+00 -0.50582506972E+03  0.50582506972E+03  0.00000000000E+00 0. -1.
         25    2    1    2    0    0 -0.11459008681E+03  0.64783330760E+02  0.14501754567E+03  0.23234213389E+03  0.12500004276E+03 0.  0.
          2    1    1    2  501    0  0.18080615044E+02 -0.12198665404E+02 -0.43087615791E+03  0.43142783815E+03  0.00000000000E+00 0. -1.
          1    1    1    2  502    0  0.96509471769E+02 -0.52584665356E+02  0.66368473383E+02  0.12839002855E+03  0.00000000000E+00 0. -1.
         22    1    3    3    0    0 -0.15213493230E+02  0.79480806831E+02  0.69370944082E+02  0.10658788352E+03  0.00000000000E+00 0. -1.
         22    1    3    3    0    0 -0.99376593582E+02 -0.14697476071E+02  0.75646601590E+02  0.12575425037E+03  0.00000000000E+00 0. -1.
</event>
<event>
 7    1  0.6315518E-006  0.1255869E+03  0.7818608E-02  0.1274839E+00
          2   -1    0    0  502    0  0.00000000000E+00  0.00000000000E+00  0.46518116003E+03  0.46518116003E+03  0.00000000000E+00 0. -1.
          1   -1    0    0  501    0 -0.00000000000E+00 -0.00000000000E+00 -0.16611774160E+04  0.16611774160E+04  0.00000000000E+00 0. -1.
         25    2    1    2    0    0 -0.12676252259E+03  0.49536674275E+02 -0.30273033463E+03  0.35467438016E+03  0.12500256479E+03 0.  0.
          2    1    1    2  501    0  0.66852283155E+02 -0.10825428159E+03 -0.13253951221E+04  0.13314880573E+04  0.00000000000E+00 0. -1.
          1    1    1    2  502    0  0.59910239437E+02  0.58717607311E+02  0.43212920075E+03  0.44019613849E+03  0.00000000000E+00 0. -1.
         22    1    3    3    0    0 -0.90990594680E+02  0.89780149528E+02 -0.18119938371E+03  0.22174981449E+03  0.00000000000E+00 0.  1.
         22    1    3    3    0    0 -0.35771927911E+02 -0.40243475253E+02 -0.12153095092E+03  0.13292456567E+03  0.00000000000E+00 0.  1.
</event>
<event>
 7    1  0.6315518E-006  0.6122045E+02  0.7818608E-02  0.1527840E+00
          2   -1    0    0  502    0  0.00000000000E+00  0.00000000000E+00  0.11128743082E+04  0.11128743082E+04  0.00000000000E+00 0. -1.
          1   -1    0    0  501    0 -0.00000000000E+00 -0.00000000000E+00 -0.88479887559E+03  0.88479887559E+03  0.00000000000E+00 0. -1.
         25    2    1    2    0    0  0.33896232617E+02  0.20621676810E+02 -0.15931106877E+03  0.20631609362E+03  0.12494841222E+03 0.  0.
          2    1    1    2  501    0 -0.54678056927E+02 -0.30269988800E+02 -0.70047338361E+03  0.70325594436E+03  0.00000000000E+00 0. -1.
          1    1    1    2  502    0  0.20781824311E+02  0.96483119900E+01  0.10878598850E+04  0.10881011458E+04  0.00000000000E+00 0. -1.
         22    1    3    3    0    0  0.23248920246E+02 -0.48844460379E+02 -0.37963567835E+02  0.66087261141E+02  0.00000000000E+00 0.  1.
         22    1    3    3    0    0  0.10647312371E+02  0.69466137189E+02 -0.12134750093E+03  0.14022883248E+03  0.00000000000E+00 0.  1.
</event>
<event>
 7    1  0.6315518E-006  0.1699688E+03  0.7818608E-02  0.1194724E+00
          2   -1    0    0  502    0  0.00000000000E+00  0.00000000000E+00  0.21479834549E+03  0.21479834549E+03  0.00000000000E+00 0. -1.
          1   -1    0    0  501    0 -0.00000000000E+00 -0.00000000000E+00 -0.81338681038E+03  0.81338681038E+03  0.00000000000E+00 0. -1.
         25    2    1    2    0    0 -0.54692069337E+02  0.28322697360E+03 -0.26561830414E+03  0.41156620437E+03  0.12499966424E+03 0.  0.
          2    1    1    2  501    0 -0.55107227082E+01 -0.14083412320E+03 -0.41734138754E+03  0.44049795922E+03  0.00000000000E+00 0. -1.
          1    1    1    2  502    0  0.60202792045E+02 -0.14239285040E+03  0.84371226785E+02  0.17612099229E+03  0.00000000000E+00 0. -1.
         22    1    3    3    0    0 -0.45299127233E+02  0.28246909172E+03 -0.27602242873E+03  0.39752884155E+03  0.00000000000E+00 0.  1.
         22    1    3    3    0    0 -0.93929421038E+01  0.75788187979E+00  0.10404124589E+02  0.14037362814E+02  0.00000000000E+00 0.  1.
</event>
<event>
 7    1  0.7167459E-006  0.1850213E+03  0.7818608E-02  0.1181650E+00
          2   -1    0    0  502    0  0.00000000000E+00  0.00000000000E+00  0.11725942241E+04  0.11725942241E+04  0.00000000000E+00 0. -1.
          1   -1    0    0  501    0 -0.00000000000E+00 -0.00000000000E+00 -0.16686548285E+04  0.16686548285E+04  0.00000000000E+00 0. -1.
         25    2    1    2    0    0  0.80821537497E+02  0.44569120353E+02 -0.47867049755E+03  0.50325849229E+03  0.12500054967E+03 0.  0.
          2    1    1    2  501    0  0.90711480098E+02 -0.11903697984E+03 -0.11653391818E+04  0.11749101173E+04  0.00000000000E+00 0. -1.
          1    1    1    2  502    0 -0.17153301760E+03  0.74467859490E+02  0.11479490749E+04  0.11630804430E+04  0.00000000000E+00 0. -1.
         22    1    3    3    0    0  0.36900153427E+01  0.28446092924E+02 -0.13935342272E+02  0.31890283475E+02  0.00000000000E+00 0.  1.
         22    1    3    3    0    0  0.77131522154E+02  0.16123027429E+02 -0.46473515528E+03  0.47136820881E+03  0.00000000000E+00 0.  1.
</event>
<event>
 7    1  0.6315518E-006  0.1000089E+03  0.7818608E-02  0.1316906E+00
          2   -1    0    0  502    0  0.00000000000E+00  0.00000000000E+00  0.27897435251E+04  0.27897435251E+04  0.00000000000E+00 0. -1.
          1   -1    0    0  501    0 -0.00000000000E+00 -0.00000000000E+00 -0.19941194794E+03  0.19941194794E+03  0.00000000000E+00 0. -1.
         25    2    1    2    0    0  0.38694128076E+02  0.12920225797E+03  0.33591131385E+03  0.38295161905E+03  0.12500029101E+03 0.  0.
          2    1    1    2  501    0  0.34667991816E+02 -0.62296714902E+02 -0.16760837406E+03  0.18214092730E+03  0.00000000000E+00 0. -1.
          1    1    1    2  502    0 -0.73362119892E+02 -0.66905543067E+02  0.24220286374E+04  0.24240629267E+04  0.00000000000E+00 0. -1.
         22    1    3    3    0    0  0.71959962107E+02  0.30809525466E+02  0.11872824920E+03  0.14221061903E+03  0.00000000000E+00 0. -1.
         22    1    3    3    0    0 -0.33265834032E+02  0.98392732502E+02  0.21718306465E+03  0.24074100003E+03  0.00000000000E+00 0. -1.
</event>
<event>
 7    1  0.6315518E-006  0.8668566E+02  0.7818608E-02  0.1382773E+00
          2   -1    0    0  502    0  0.00000000000E+00  0.00000000000E+00  0.66959188637E+03  0.66959188637E+03  0.00000000000E+00 0. -1.
          1   -1    0    0  501    0 -0.00000000000E+00 -0.00000000000E+00 -0.24732032979E+03  0.24732032979E+03  0.00000000000E+00 0. -1.
         25    2    1    2    0    0  0.36851474285E+02  0.39620029413E+02 -0.28390716780E+02  0.13914439895E+03  0.12500941194E+03 0.  0.
          2    1    1    2  501    0 -0.83138976332E+02 -0.46979341734E+02 -0.14862021181E+03  0.17665535739E+03  0.00000000000E+00 0. -1.
          1    1    1    2  502    0  0.46287502047E+02  0.73593123212E+01  0.59928248517E+03  0.60111245982E+03  0.00000000000E+00 0. -1.
         22    1    3    3    0    0 -0.41871359180E+02 -0.99593808407E+01 -0.60231994342E+01  0.43458933693E+02  0.00000000000E+00 0. -1.
         22    1    3    3    0    0  0.78722833464E+02  0.49579410254E+02 -0.22367517346E+02  0.95685465260E+02  0.00000000000E+00 0. -1.
</event>
<event>
 7    1  0.1546461E-005  0.5730905E+02  0.7818608E-02  0.1447111E+00
          2   -1    0    0  502    0  0.00000000000E+00  0.00000000000E+00  0.11470541823E+04  0.11470541823E+04  0.00000000000E+00 0. -1.
          1   -1    0    0  501    0 -0.00000000000E+00 -0.00000000000E+00 -0.19767961388E+04  0.19767961388E+04  0.00000000000E+00 0. -1.
         25    2    1    2    0    0 -0.18704745548E+01  0.29413239889E+02 -0.49788567615E+03  0.51418018385E+03  0.12498991000E+03 0.  0.
          2    1    1    2  501    0  0.43158999566E+02 -0.41620070168E+02 -0.14697448417E+04  0.14709673107E+04  0.00000000000E+00 0. -1.
          1    1    1    2  502    0 -0.41288525011E+02  0.12206830279E+02  0.11378885613E+04  0.11387028265E+04  0.00000000000E+00 0. -1.
         22    1    3    3    0    0 -0.37378627579E+02  0.65563793811E+01 -0.43050883740E+02  0.57389254230E+02  0.00000000000E+00 0.  1.
         22    1    3    3    0    0  0.35508153024E+02  0.22856860508E+02 -0.45483479241E+03  0.45679092963E+03  0.00000000000E+00 0.  1.
</event>
<event>
 7    1  0.6315518E-006  0.8723639E+02  0.7818608E-02  0.1315939E+00
          2   -1    0    0  502    0  0.00000000000E+00  0.00000000000E+00  0.20628053588E+04  0.20628053588E+04  0.00000000000E+00 0. -1.
          1   -1    0    0  501    0 -0.00000000000E+00 -0.00000000000E+00 -0.25523823346E+03  0.25523823346E+03  0.00000000000E+00 0. -1.
         25    2    1    2    0    0 -0.43661823203E+02 -0.61883521753E+02 -0.46588985678E+01  0.14623642527E+03  0.12500984629E+03 0.  0.
          2    1    1    2  501    0 -0.43848360575E+02  0.69816953076E+02 -0.16931408256E+03  0.18831979241E+03  0.00000000000E+00 0. -1.
          1    1    1    2  502    0  0.87510183777E+02 -0.79334313235E+01  0.19815401065E+04  0.19834873746E+04  0.00000000000E+00 0. -1.
         22    1    3    3    0    0  0.23807305644E+02 -0.52754469485E+02 -0.39188658688E+02  0.69896872766E+02  0.00000000000E+00 0.  1.
         22    1    3    3    0    0 -0.67469128846E+02 -0.91290522676E+01  0.34529760120E+02  0.76339552504E+02  0.00000000000E+00 0.  1.
</event>
<event>
 7    1  0.6315518E-006  0.7507480E+02  0.7818608E-02  0.1395166E+00
          2   -1    0    0  502    0  0.00000000000E+00  0.00000000000E+00  0.80614808781E+03  0.80614808781E+03  0.00000000000E+00 0. -1.
          1   -1    0    0  501    0 -0.00000000000E+00 -0.00000000000E+00 -0.14898308068E+04  0.14898308068E+04  0.00000000000E+00 0. -1.
         25    2    1    2    0    0  0.29810583229E+02  0.83922958489E+02  0.38158432001E+03  0.41129468112E+03  0.12499995042E+03 0.  0.
          2    1    1    2  501    0  0.17915116414E+02 -0.72907543140E+02 -0.14725520066E+04  0.14744646056E+04  0.00000000000E+00 0. -1.
          1    1    1    2  502    0 -0.47725699643E+02 -0.11015415349E+02  0.40728496761E+03  0.41021960780E+03  0.00000000000E+00 0. -1.
         22    1    3    3    0    0 -0.31912667866E+01  0.33174809449E+02  0.99773144374E+01  0.34789351374E+02  0.00000000000E+00 0.  1.
         22    1    3    3    0    0  0.33001850016E+02  0.50748149041E+02  0.37160700557E+03  0.37650532974E+03  0.00000000000E+00 0.  1.
</event>
<event>
 7    1  0.6315518E-006  0.2443774E+03  0.7818608E-02  0.1235042E+00
          2   -1    0    0  502    0  0.00000000000E+00  0.00000000000E+00  0.29513810609E+04  0.29513810609E+04  0.00000000000E+00 0. -1.
          1   -1    0    0  501    0 -0.00000000000E+00 -0.00000000000E+00 -0.25206185942E+03  0.25206185942E+03  0.00000000000E+00 0. -1.
         25    2    1    2    0    0  0.17838384216E+03  0.79121790267E+02  0.47635731750E+03  0.52973924166E+03  0.12500526939E+03 0.  0.
          2    1    1    2  501    0 -0.24163945055E+03 -0.69683613446E+02 -0.15464971682E+03  0.29523205273E+03  0.00000000000E+00 0. -1.
          1    1    1    2  502    0  0.63255608394E+02 -0.94381768212E+01  0.23776116007E+04  0.23784716259E+04  0.00000000000E+00 0. -1.
         22    1    3    3    0    0  0.59011515204E+02 -0.61770624973E+01  0.46049665217E+02  0.75107168062E+02  0.00000000000E+00 0. -1.
         22    1    3    3    0    0  0.11937232695E+03  0.85298852764E+02  0.43030765229E+03  0.45463207360E+03  0.00000000000E+00 0. -1.
</event>
<event>
 7    1  0.6315518E-006  0.1091753E+03  0.7818608E-02  0.1334791E+00
          2   -1    0    0  502    0  0.00000000000E+00  0.00000000000E+00  0.69777842962E+03  0.69777842962E+03  0.00000000000E+00 0. -1.
          1   -1    0    0  501    0 -0.00000000000E+00 -0.00000000000E+00 -0.17280332316E+03  0.17280332316E+03  0.00000000000E+00 0. -1.
         25    2    1    2    0    0  0.10966759205E+03  0.11469725672E+03  0.16377772471E+03  0.26005709248E+03  0.12499642713E+03 0.  0.
          2    1    1    2  501    0 -0.33886050660E+02 -0.44261506979E+02 -0.11255731291E+03  0.12560451473E+03  0.00000000000E+00 0. -1.
          1    1    1    2  502    0 -0.75781541390E+02 -0.70435749736E+02  0.47375469467E+03  0.48492014557E+03  0.00000000000E+00 0. -1.
         22    1    3    3    0    0  0.19523363643E+02  0.12325564389E+02 -0.20440111745E+02  0.30836333011E+02  0.00000000000E+00 0. -1.
         22    1    3    3    0    0  0.90144228407E+02  0.10237169233E+03  0.18421783646E+03  0.22922075947E+03  0.00000000000E+00 0. -1.
</event>
<event>
 7    1  0.8330587E-006  0.5195645E+02  0.7818608E-02  0.1500544E+00
          2   -1    0    0  502    0  0.00000000000E+00  0.00000000000E+00  0.18241185710E+04  0.18241185710E+04  0.00000000000E+00 0. -1.
          1   -1    0    0  501    0 -0.00000000000E+00 -0.00000000000E+00 -0.10695172131E+04  0.10695172131E+04  0.00000000000E+00 0. -1.
         25    2    1    2    0    0  0.15197179195E+02 -0.33430419472E+02 -0.51329067327E+02  0.14003248632E+03  0.12500350744E+03 0.  0.
          2    1    1    2  501    0  0.31026908139E+02  0.95065474058E+01 -0.97318540908E+03  0.97372628799E+03  0.00000000000E+00 0. -1.
          1    1    1    2  502    0 -0.46224087334E+02  0.23923872066E+02  0.17791158344E+04  0.17798770098E+04  0.00000000000E+00 0. -1.
         22    1    3    3    0    0  0.56179593585E+02 -0.52094370772E+02 -0.55795566779E+02  0.94779298761E+02  0.00000000000E+00 0.  1.
         22    1    3    3    0    0 -0.40982414389E+02  0.18663951300E+02  0.44664994518E+01  0.45253187564E+02  0.00000000000E+00 0.  1.
</event>
<event>
 7    1  0.6315518E-006  0.1628404E+03  0.7818608E-02  0.1367150E+00
          2   -1    0    0  502    0  0.00000000000E+00  0.00000000000E+00  0.13403678383E+04  0.13403678383E+04  0.00000000000E+00 0. -1.
          1   -1    0    0  501    0 -0.00000000000E+00 -0.00000000000E+00 -0.58052234956E+03  0.58052234956E+03  0.00000000000E+00 0. -1.
         25    2    1    2    0    0 -0.56445817705E+02 -0.12310993760E+03  0.71261122447E+03  0.73605827291E+03  0.12499934726E+03 0.  0.
          2    1    1    2  501    0  0.62638067018E+02  0.15079326732E+03 -0.55674044197E+03  0.58019139656E+03  0.00000000000E+00 0. -1.
          1    1    1    2  502    0 -0.61922493130E+01 -0.27683329722E+02  0.60397470625E+03  0.60464051839E+03  0.00000000000E+00 0. -1.
         22    1    3    3    0    0  0.21640309538E+02 -0.92654193634E+02  0.28980951601E+03  0.30502894644E+03  0.00000000000E+00 0. -1.
         22    1    3    3    0    0 -0.78086127243E+02 -0.30455743967E+02  0.42280170845E+03  0.43102932647E+03  0.00000000000E+00 0. -1.
</event>
<event>
 7    1  0.6315518E-006  0.1585438E+03  0.7818608E-02  0.1340818E+00
          2   -1    0    0  502    0  0.00000000000E+00  0.00000000000E+00  0.19572973122E+04  0.19572973122E+04  0.00000000000E+00 0. -1.
          1   -1    0    0  501    0 -0.00000000000E+00 -0.00000000000E+00 -0.74727712048E+03  0.74727712048E+03  0.00000000000E+00 0. -1.
         25    2    1    2    0    0  0.12784072921E+03  0.32666348141E+02  0.20567673206E+03  0.27447828928E+03  0.12500028333E+03 0.  0.
          2    1    1    2  501    0  0.32887205860E+02 -0.15663180666E+02 -0.70860444129E+03  0.70954010299E+03  0.00000000000E+00 0. -1.
          1    1    1    2  502    0 -0.16072793507E+03 -0.17003167475E+02  0.17129479010E+04  0.17205560404E+04  0.00000000000E+00 0. -1.
         22    1    3    3    0    0  0.87771002964E+02  0.36114610631E+02  0.21337403247E+03  0.23353049436E+03  0.00000000000E+00 0. -1.
         22    1    3    3    0    0  0.40069726242E+02 -0.34482624894E+01 -0.76973004134E+01  0.40947794922E+02  0.00000000000E+00 0. -1.
</event>
<event>
 7    1  0.6315518E-006  0.6288894E+02  0.7818608E-02  0.1397718E+00
          2   -1    0    0  502    0  0.00000000000E+00  0.00000000000E+00  0.57207103379E+03  0.57207103379E+03  0.00000000000E+00 0. -1.
          1   -1    0    0  501    0 -0.00000000000E+00 -0.00000000000E+00 -0.69294067722E+03  0.69294067722E+03  0.00000000000E+00 0. -1.
         25    2    1    2    0    0  0.58008559869E+02 -0.61167678727E+01  0.10458838297E+03  0.17310629465E+03  0.12499860610E+03 0.  0.
          2    1    1    2  501    0 -0.15497231417E+02  0.55159770146E+02 -0.65499323258E+03  0.65749440997E+03  0.00000000000E+00 0. -1.
          1    1    1    2  502    0 -0.42511328453E+02 -0.49043002273E+02  0.42953520618E+03  0.43441100638E+03  0.00000000000E+00 0. -1.
         22    1    3    3    0    0  0.91621000598E+02  0.19249722238E+02  0.57204238230E+02  0.10971455887E+03  0.00000000000E+00 0.  1.
         22    1    3    3    0    0 -0.33612440729E+02 -0.25366490111E+02  0.47384144742E+02  0.63391735780E+02  0.00000000000E+00 0.  1.
</event>
<event>
 7    1  0.6315518E-006  0.8772088E+02  0.7818608E-02  0.1315411E+00
          2   -1    0    0  502    0  0.00000000000E+00  0.00000000000E+00  0.10241656497E+04  0.10241656497E+04  0.00000000000E+00 0. -1.
          1   -1    0    0  501    0 -0.00000000000E+00 -0.00000000000E+00 -0.36523205432E+03  0.36523205432E+03  0.00000000000E+00 0. -1.
         25    2    1    2    0    0 -0.24240858345E+02  0.18262908040E+02  0.88110476494E+02  0.15591510983E+03  0.12499964952E+03 0.  0.
          2    1    1    2  501    0 -0.60795437319E+02 -0.55590716839E+02 -0.32376799793E+03  0.33408401560E+03  0.00000000000E+00 0. -1.
          1    1    1    2  502    0  0.85036295664E+02  0.37327808799E+02  0.89459111686E+03  0.89939857864E+03  0.00000000000E+00 0. -1.
         22    1    3    3    0    0 -0.21858506817E+02 -0.20973870370E+02  0.10778226963E+03  0.11195854235E+03  0.00000000000E+00 0. -1.
         22    1    3    3    0    0 -0.23823515285E+01  0.39236778410E+02 -0.19671793138E+02  0.43956567474E+02  0.00000000000E+00 0. -1.
</event>
<event>
 7    1  0.6315518E-006  0.5484756E+02  0.7818608E-02  0.1464500E+00
          2   -1    0    0  502    0  0.00000000000E+00  0.00000000000E+00  0.23184948437E+04  0.23184948437E+04  0.00000000000E+00 0. -1.
          1   -1    0    0  501    0 -0.00000000000E+00 -0.00000000000E+00 -0.69581966220E+02  0.69581966220E+02  0.00000000000E+00 0. -1.
         25    2    1    2    0    0  0.32056505076E+02  0.84897675160E+02  0.53442209309E+03  0.55629296171E+03  0.12497860177E+03 0.  0.
          2    1    1    2  501    0 -0.29418554535E+02 -0.45366284382E+02 -0.45913507294E+02  0.70933780821E+02  0.00000000000E+00 0. -1.
          1    1    1    2  502    0 -0.26379505411E+01 -0.39531390777E+02  0.17604042916E+04  0.17608500673E+04  0.00000000000E+00 0. -1.
         22    1    3    3    0    0  0.16678339234E+02  0.79391074624E+02  0.14206314909E+03  0.16359415656E+03  0.00000000000E+00 0. -1.
         22    1    3    3    0    0  0.15378165843E+02  0.55066005353E+01  0.39235894400E+03  0.39269880516E+03  0.00000000000E+00 0. -1.
</event>
<event>
 7    1  0.6315518E-006  0.8557507E+02  0.7818608E-02  0.1353508E+00
          2   -1    0    0  502    0  0.00000000000E+00  0.00000000000E+00  0.26314944814E+04  0.26314944814E+04  0.00000000000E+00 0. -1.
          1   -1    0    0  501    0 -0.00000000000E+00 -0.00000000000E+00 -0.22121505720E+04  0.22121505720E+04  0.00000000000E+00 0. -1.
         25    2    1    2    0    0 -0.10397297858E+03  0.86138344731E+02  0.17094822891E+03  0.25114905613E+03  0.12498942644E+03 0.  0.
          2    1    1    2  501    0  0.25080800662E+02 -0.55093677406E+02 -0.21708857229E+04  0.21717295369E+04  0.00000000000E+00 0. -1.
          1    1    1    2  502    0  0.78892177917E+02 -0.31044667324E+02  0.24192814034E+04  0.24207664604E+04  0.00000000000E+00 0. -1.
         22    1    3    3    0    0 -0.30665941864E+02 -0.31783119724E+02  0.52791280150E+02  0.68829397424E+02  0.00000000000E+00 0. -1.
         22    1    3    3    0    0 -0.73307036715E+02  0.11792146446E+03  0.11815694876E+03  0.18231965871E+03  0.00000000000E+00 0. -1.
</event>
<event>
 7    1  0.6315518E-006  0.9291984E+02  0.7818608E-02  0.1440726E+00
          2   -1    0    0  502    0  0.00000000000E+00  0.00000000000E+00  0.13640326415E+04  0.13640326415E+04  0.00000000000E+00 0. -1.
          1   -1    0    0  501    0 -0.00000000000E+00 -0.00000000000E+00 -0.44801645813E+03  0.44801645813E+03  0.00000000000E+00 0. -1.
         25    2    1    2    0    0 -0.21463879310E+02 -0.72188860146E+02 -0.31350362228E+02  0.14927599074E+03  0.12501418541E+03 0.  0.
          2    1    1    2  501    0 -0.26769471792E+02 -0.76635188670E+01 -0.35549103882E+03  0.35657988281E+03  0.00000000000E+00 0. -1.
          1    1    1    2  502    0  0.48233351102E+02  0.79852379013E+02  0.13028575844E+04  0.13061932261E+04  0.00000000000E+00 0. -1.
         22    1    3    3    0    0 -0.54122553884E+02 -0.89648782192E+02 -0.69967320641E+01  0.10495289061E+03  0.00000000000E+00 0. -1.
         22    1    3    3    0    0  0.32658674573E+02  0.17459922046E+02 -0.24353630164E+02  0.44323100128E+02  0.00000000000E+00 0. -1.
</event>
<event>
 7    1  0.6315518E-006  0.5234784E+02  0.7818608E-02  0.1475878E+00
          2   -1    0    0  502    0  0.00000000000E+00  0.00000000000E+00  0.21688459580E+04  0.21688459580E+04  0.00000000000E+00 0. -1.
          1   -1    0    0  501    0 -0.00000000000E+00 -0.00000000000E+00 -0.83190185627E+03  0.83190185627E+03  0.00000000000E+00 0. -1.
         25    2    1    2    0    0 -0.48917339531E+01 -0.28530647557E+02 -0.61098873264E+03  0.62431658149E+03  0.12500414229E+03 0.  0.
          2    1    1    2  501    0 -0.38245750098E+02 -0.11540750303E+01 -0.21222099864E+03  0.21564281011E+03  0.00000000000E+00 0. -1.
          1    1    1    2  502    0  0.43137484052E+02  0.29684722588E+02  0.21601538330E+04  0.21607884227E+04  0.00000000000E+00 0. -1.
         22    1    3    3    0    0 -0.36757736382E+02 -0.68146450908E+02 -0.37664775213E+03  0.38452386030E+03  0.00000000000E+00 0.  1.
         22    1    3    3    0    0  0.31866002429E+02  0.39615803351E+02 -0.23434098051E+03  0.23979272119E+03  0.00000000000E+00 0.  1.
</event>
<event>
 7    1  0.6315518E-006  0.8963035E+02  0.7818608E-02  0.1435651E+00
          2   -1    0    0  502    0  0.00000000000E+00  0.00000000000E+00  0.21672404786E+04  0.21672404786E+04  0.00000000000E+00 0. -1.
          1   -1    0    0  501    0 -0.00000000000E+00 -0.00000000000E+00 -0.11671937080E+04  0.11671937080E+04  0.00000000000E+00 0. -1.
         25    2    1    2    0    0  0.31440601438E+02  0.71879997819E+02 -0.31696482404E+02  0.15094479724E+03  0.12499767723E+03 0.  0.
          2    1    1    2  501    0 -0.74060113519E+01 -0.89809737044E+02 -0.10738791441E+04  0.10776534944E+04  0.00000000000E+00 0. -1.
          1    1    1    2  502    0 -0.24034590086E+02  0.17929739225E+02  0.21056223971E+04  0.21058358949E+04  0.00000000000E+00 0. -1.
         22    1    3    3    0    0  0.34846171799E+02  0.32972115101E+02  0.44428133142E+02  0.65385587692E+02  0.00000000000E+00 0.  1.
         22    1    3    3    0    0 -0.34055703613E+01  0.38907882717E+02 -0.76124615546E+02  0.85559209551E+02  0.00000000000E+00 0.  1.
</event>
<event>
 7    1  0.6315518E-006  0.1589704E+03  0.7818608E-02  0.1275559E+00
          2   -1    0    0  502    0  0.00000000000E+00  0.00000000000E+00  0.87795167871E+03  0.87795167871E+03  0.00000000000E+00 0. -1.
          1   -1    0    0  501    0 -0.00000000000E+00 -0.00000000000E+00 -0.11475208673E+03  0.11475208673E+03  0.00000000000E+00 0. -1.
         25    2    1    2    0    0  0.15116257040E+03 -0.29147070830E+02  0.69535778306E+03  0.72307667284E+03  0.12497101228E+03 0.  0.
          2    1    1    2  501    0  0.15088238256E+02 -0.64061913038E+02 -0.40088139758E+01  0.65936744121E+02  0.00000000000E+00 0. -1.
          1    1    1    2  502    0 -0.16625080866E+03  0.93208983868E+02  0.71850622884E+02  0.20369034848E+03  0.00000000000E+00 0. -1.
         22    1    3    3    0    0 -0.60803332386E+01  0.15110562987E+02  0.11397070236E+02  0.19879456130E+02  0.00000000000E+00 0. -1.
         22    1    3    3    0    0  0.15724290364E+03 -0.44257633817E+02  0.68396071283E+03  0.70319721671E+03  0.00000000000E+00 0. -1.
</event>
<event>
 7    1  0.6315518E-006  0.6408864E+02  0.7818608E-02  0.1410244E+00
          2   -1    0    0  502    0  0.00000000000E+00  0.00000000000E+00  0.94347885663E+02  0.94347885663E+02  0.00000000000E+00 0. -1.
          1   -1    0    0  501    0 -0.00000000000E+00 -0.00000000000E+00 -0.13384694235E+04  0.13384694235E+04  0.00000000000E+00 0. -1.
         25    2    1    2    0    0 -0.67406608638E+02  0.91617662721E+02 -0.47413013819E+03  0.50335056972E+03  0.12499984433E+03 0.  0.
          2    1    1    2  501    0  0.29319561002E+02 -0.41660792474E+02 -0.83645989491E+03  0.83800979354E+03  0.00000000000E+00 0. -1.
          1    1    1    2  502    0  0.38087047636E+02 -0.49956870247E+02  0.66468495290E+02  0.91456945874E+02  0.00000000000E+00 0. -1.
         22    1    3    3    0    0  0.14283934015E+02  0.42756537397E+02 -0.44652279059E+02  0.63450597210E+02  0.00000000000E+00 0. -1.
         22    1    3    3    0    0 -0.81690542653E+02  0.48861125324E+02 -0.42947785913E+03  0.43989997251E+03  0.00000000000E+00 0. -1.
</event>
<event>
 7    1  0.6315518E-006  0.4863969E+02  0.7818608E-02  0.1491721E+00
          2   -1    0    0  502    0  0.00000000000E+00  0.00000000000E+00  0.32130999505E+04  0.32130999505E+04  0.00000000000E+00 0. -1.
          1   -1    0    0  501    0 -0.00000000000E+00 -0.00000000000E+00 -0.60945793702E+03  0.60945793702E+03  0.00000000000E+00 0. -1.
         25    2    1    2    0    0  0.22470307620E+02 -0.63575450389E+01  0.23759987547E+03  0.26948848350E+03  0.12500003524E+03 0.  0.
          2    1    1    2  501    0  0.19963365408E+02  0.30964505350E+02 -0.59273841007E+03  0.59388227733E+03  0.00000000000E+00 0. -1.
          1    1    1    2  502    0 -0.42433673028E+02 -0.24606960311E+02  0.29587805481E+04  0.29591871267E+04  0.00000000000E+00 0. -1.
         22    1    3    3    0    0  0.72173838423E+02  0.31404746389E+01  0.10402375979E+03  0.12664860100E+03  0.00000000000E+00 0.  1.
         22    1    3    3    0    0 -0.49703530803E+02 -0.94980196778E+01  0.13357611568E+03  0.14283988250E+03  0.00000000000E+00 0.  1.
</event>
<event>
 7    1  0.6315518E-006  0.1200728E+03  0.7818608E-02  0.1437668E+00
          2   -1    0    0  502    0  0.00000000000E+00  0.00000000000E+00  0.41698405702E+03  0.41698405702E+03  0.00000000000E+00 0. -1.
          1   -1    0    0  501    0 -0.00000000000E+00 -0.00000000000E+00 -0.10426842827E+04  0.10426842827E+04  0.00000000000E+00 0. -1.
         25    2    1    2    0    0 -0.76863553517E+02  0.61424669403E+02 -0.69631461541E+03  0.71424518473E+03  0.12494456534E+03 0.  0.
          2    1    1    2  501    0 -0.18528996849E+02  0.11947204478E+02 -0.32815236398E+03  0.32889213035E+03  0.00000000000E+00 0. -1.
          1    1    1    2  502    0  0.95392550366E+02 -0.73371873881E+02  0.39876675376E+03  0.41653102459E+03  0.00000000000E+00 0. -1.
         22    1    3    3    0    0 -0.93810233137E+02  0.37289145537E+02 -0.29395053148E+03  0.31080179404E+03  0.00000000000E+00 0.  1.
         22    1    3    3    0    0  0.16946679620E+02  0.24135523866E+02 -0.40236408393E+03  0.40344339070E+03  0.00000000000E+00 0.  1.
</event>
<event>
 7    1  0.6315518E-006  0.4627664E+02  0.7818608E-02  0.1513172E+00
          2   -1    0    0  502    0  0.00000000000E+00  0.00000000000E+00  0.27618519873E+02  0.27618519873E+02  0.00000000000E+00 0. -1.
          1   -1    0    0  501    0 -0.00000000000E+00 -0.00000000000E+00 -0.12282271901E+04  0.12282271901E+04  0.00000000000E+00 0. -1.
         25    2    1    2    0    0  0.70255847175E+02  0.34647026382E+02 -0.29822372855E+03  0.33271338452E+03  0.12499801386E+03 0.  0.
          2    1    1    2  501    0 -0.41949131167E+02 -0.16857453193E+02 -0.88365483082E+03  0.88481058050E+03  0.00000000000E+00 0. -1.
          1    1    1    2  502    0 -0.28306716008E+02 -0.17789573188E+02 -0.18730110905E+02  0.38321745000E+02  0.00000000000E+00 0. -1.
         22    1    3    3    0    0  0.17677351778E+02  0.73915021271E+02 -0.11274877623E+03  0.13597134138E+03  0.00000000000E+00 0.  1.
         22    1    3    3    0    0  0.52578495397E+02 -0.39267994889E+02 -0.18547495231E+03  0.19674204313E+03  0.00000000000E+00 0.  1.
</event>
<event>
 7    1  0.6315518E-006  0.1065675E+03  0.7818608E-02  0.1354142E+00
          2   -1    0    0  502    0  0.00000000000E+00  0.00000000000E+00  0.13172029815E+04  0.13172029815E+04  0.00000000000E+00 0. -1.
          1   -1    0    0  501    0 -0.00000000000E+00 -0.00000000000E+00 -0.10887043239E+03  0.10887043239E+03  0.00000000000E+00 0. -1.
         25    2    1    2    0    0 -0.14737274597E+02 -0.67999852766E+02  0.67696555307E+03  0.69191404684E+03  0.12498608296E+03 0.  0.
          2    1    1    2  501    0  0.56463542520E+02  0.92423552476E+02 -0.71227283286E+02  0.12962858701E+03  0.00000000000E+00 0. -1.
          1    1    1    2  502    0 -0.41726267922E+02 -0.24423699710E+02  0.60259427935E+03  0.60453078006E+03  0.00000000000E+00 0. -1.
         22    1    3    3    0    0  0.16202789312E+02 -0.94879055404E+02  0.55396429063E+03  0.56226417353E+03  0.00000000000E+00 0. -1.
         22    1    3    3    0    0 -0.30940063909E+02  0.26879202638E+02  0.12300126244E+03  0.12964987331E+03  0.00000000000E+00 0. -1.
</event>
<event>
 7    1  0.6315518E-006  0.6356140E+02  0.7818608E-02  0.1440681E+00
          2   -1    0    0  502    0  0.00000000000E+00  0.00000000000E+00  0.41845341515E+03  0.41845341515E+03  0.00000000000E+00 0. -1.
          1   -1    0    0  501    0 -0.00000000000E+00 -0.00000000000E+00 -0.43119255762E+03  0.43119255762E+03  0.00000000000E+00 0. -1.
         25    2    1    2    0    0 -0.18306449301E+02 -0.20012000118E+02 -0.66674088788E+02  0.14423934844E+03  0.12499579708E+03 0.  0.
          2    1    1    2  501    0  0.33809513035E+02  0.57665377065E+02 -0.32119294818E+03  0.32807512683E+03  0.00000000000E+00 0. -1.
          1    1    1    2  502    0 -0.15503063734E+02 -0.37653376947E+02  0.37512789450E+03  0.37733149750E+03  0.00000000000E+00 0. -1.
         22    1    3    3    0    0 -0.25823482042E+01  0.79411205759E+01 -0.98619260754E+02  0.98972160277E+02  0.00000000000E+00 0. -1.
         22    1    3    3    0    0 -0.15724101097E+02 -0.27953120694E+02  0.31945171967E+02  0.45267188159E+02  0.00000000000E+00 0. -1.
</event>
<event>
 7    1  0.6315518E-006  0.2364659E+02  0.7818608E-02  0.1705204E+00
          2   -1    0    0  502    0  0.00000000000E+00  0.00000000000E+00  0.13174227162E+04  0.13174227162E+04  0.00000000000E+00 0. -1.
          1   -1    0    0  501    0 -0.00000000000E+00 -0.00000000000E+00 -0.19622609327E+03  0.19622609327E+03  0.00000000000E+00 0. -1.
         25    2    1    2    0    0 -0.26203963176E+01 -0.17858061530E+01  0.46014874670E+02  0.13323911786E+03  0.12500095303E+03 0.  0.
          2    1    1    2  501    0  0.22393380393E+02  0.82384799000E+01 -0.15159263861E+03  0.15345899816E+03  0.00000000000E+00 0. -1.
          1    1    1    2  502    0 -0.19772984075E+02 -0.64526737470E+01  0.12267743869E+04  0.12269506935E+04  0.00000000000E+00 0. -1.
         22    1    3    3    0    0 -0.50310399123E+02  0.48564648588E+01 -0.17542593131E+02  0.53502000754E+02  0.00000000000E+00 0. -1.
         22    1    3    3    0    0  0.47690002806E+02 -0.66422710118E+01  0.63557467802E+02  0.79737117111E+02  0.00000000000E+00 0. -1.
</event>
<event>
 7    1  0.6315518E-006  0.4611551E+02  0.7818608E-02  0.1555522E+00
          2   -1    0    0  502    0  0.00000000000E+00  0.00000000000E+00  0.10826192416E+04  0.10826192416E+04  0.00000000000E+00 0. -1.
          1   -1    0    0  501    0 -0.00000000000E+00 -0.00000000000E+00 -0.25291411422E+02  0.25291411422E+02  0.00000000000E+00 0. -1.
         25    2    1    2    0    0  0.58414378671E+02  0.84100629886E+01  0.21457065865E+03  0.25524205943E+03  0.12499989022E+03 0.  0.
          2    1    1    2  501    0 -0.36405706615E+02 -0.21113337255E+02  0.88639908962E+02  0.98123299705E+02  0.00000000000E+00 0. -1.
          1    1    1    2  502    0 -0.22008672056E+02  0.12703274267E+02  0.75411726253E+03  0.75454529385E+03  0.00000000000E+00 0. -1.
         22    1    3    3    0    0  0.79246363716E+02  0.31521689055E+01  0.60682633426E+02  0.99861425638E+02  0.00000000000E+00 0.  1.
         22    1    3    3    0    0 -0.20831985045E+02  0.52578940832E+01  0.15388802522E+03  0.15538063379E+03  0.00000000000E+00 0.  1.
</event>
<event>
 7    1  0.6315518E-006  0.1550000E+03  0.7818608E-02  0.1258500E+00
          2   -1    0    0  502    0  0.00000000000E+00  0.00000000000E+00  0.42450799534E+04  0.42450799534E+04  0.00000000000E+00 0. -1.
          1   -1    0    0  501    0 -0.00000000000E+00 -0.00000000000E+00 -0.22692982382E+03  0.22692982382E+03  0.00000000000E+00 0. -1.
         25    2    1    2    0    0  0.22461975978E+03 -0.62524041026E+01 -0.79491750759E+02  0.26913141190E+03  0.12497859574E+03 0.  0.
          2    1    1    2  501    0 -0.72500220886E+02  0.33030532983E+02 -0.20159676211E+02  0.82180963018E+02  0.00000000000E+00 0. -1.
          1    1    1    2  502    0 -0.15211953889E+03 -0.26778128881E+02  0.41178015566E+04  0.41206974023E+04  0.00000000000E+00 0. -1.
         22    1    3    3    0    0 -0.34591321857E+01  0.25898737033E+02 -0.14123116379E+02  0.29701390399E+02  0.00000000000E+00 0.  1.
         22    1    3    3    0    0  0.22807889196E+03 -0.32151141136E+02 -0.65368634379E+02  0.23943002150E+03  0.00000000000E+00 0.  1.
</event>
<event>
 7    1  0.6315518E-006  0.5403735E+02  0.7818608E-02  0.1501124E+00
          2   -1    0    0  502    0  0.00000000000E+00  0.00000000000E+00  0.62724112196E+02  0.62724112196E+02  0.00000000000E+00 0. -1.
          1   -1    0    0  501    0 -0.00000000000E+00 -0.00000000000E+00 -0.87980890007E+03  0.87980890007E+03  0.00000000000E+00 0. -1.
         25    2    1    2    0    0  0.44020400056E+02  0.94538093953E+01 -0.51531692098E+03  0.53216960780E+03  0.12500316909E+03 0.  0.
          2    1    1    2  501    0 -0.67903961623E+01  0.30326173221E+02 -0.34151238490E+03  0.34292345400E+03  0.00000000000E+00 0. -1.
          1    1    1    2  502    0 -0.37230003893E+02 -0.39779982617E+02  0.39744518011E+02  0.67439950465E+02  0.00000000000E+00 0. -1.
         22    1    3    3    0    0  0.51505608499E+02 -0.50651278757E+02 -0.27253411223E+03  0.28194542393E+03  0.00000000000E+00 0.  1.
         22    1    3    3    0    0 -0.74852084430E+01  0.60105088152E+02 -0.24278280876E+03  0.25022418387E+03  0.00000000000E+00 0.  1.
</event>
<event>
 7    1  0.6315518E-006  0.3848667E+02  0.7818608E-02  0.1550535E+00
          2   -1    0    0  502    0  0.00000000000E+00  0.00000000000E+00  0.48326909007E+03  0.48326909007E+03  0.00000000000E+00 0. -1.
          1   -1    0    0  501    0 -0.00000000000E+00 -0.00000000000E+00 -0.21637600199E+03  0.21637600199E+03  0.00000000000E+00 0. -1.
         25    2    1    2    0    0 -0.45702840518E+02  0.16560069234E+02 -0.49897702088E+02  0.14310455363E+03  0.12500458820E+03 0.  0.
          2    1    1    2  501    0  0.19169175345E+02 -0.33417733048E+02 -0.11619494220E+03  0.12241514105E+03  0.00000000000E+00 0. -1.
          1    1    1    2  502    0  0.26533665173E+02  0.16857663815E+02  0.43298573236E+03  0.43412539738E+03  0.00000000000E+00 0. -1.
         22    1    3    3    0    0 -0.30542035794E+02  0.71170090569E+02 -0.28489557565E+02  0.82520619437E+02  0.00000000000E+00 0.  1.
         22    1    3    3    0    0 -0.15160804723E+02 -0.54610021335E+02 -0.21408144523E+02  0.60583934191E+02  0.00000000000E+00 0.  1.
</event>
<event>
 7    1  0.6315518E-006  0.8369461E+02  0.7818608E-02  0.1419054E+00
          2   -1    0    0  502    0  0.00000000000E+00  0.00000000000E+00  0.42219936323E+03  0.42219936323E+03  0.00000000000E+00 0. -1.
          1   -1    0    0  501    0 -0.00000000000E+00 -0.00000000000E+00 -0.15527130928E+03  0.15527130928E+03  0.00000000000E+00 0. -1.
         25    2    1    2    0    0  0.90147456143E+02 -0.67937445222E+02  0.51591474547E+02  0.17613649408E+03  0.12498129455E+03 0.  0.
          2    1    1    2  501    0 -0.70009694417E+02  0.37573329532E+02 -0.74677388168E+02  0.10904047280E+03  0.00000000000E+00 0. -1.
          1    1    1    2  502    0 -0.20137761726E+02  0.30364115689E+02  0.29001396757E+03  0.29229370564E+03  0.00000000000E+00 0. -1.
         22    1    3    3    0    0  0.31318680424E+01 -0.49912291673E+02  0.69365113452E+02  0.85513533558E+02  0.00000000000E+00 0.  1.
         22    1    3    3    0    0  0.87015588101E+02 -0.18025153549E+02 -0.17773638905E+02  0.90622960517E+02  0.00000000000E+00 0.  1.
</event>
<event>
 7    1  0.6315518E-006  0.5375491E+02  0.7818608E-02  0.1564764E+00
          2   -1    0    0  502    0  0.00000000000E+00  0.00000000000E+00  0.63479369457E+03  0.63479369457E+03  0.00000000000E+00 0. -1.
          1   -1    0    0  501    0 -0.00000000000E+00 -0.00000000000E+00 -0.89567967721E+02  0.89567967721E+02  0.00000000000E+00 0. -1.
         25    2    1    2    0    0  0.66339829100E+02  0.66117749973E+01  0.42037897978E+03  0.44360831987E+03  0.12500066528E+03 0.  0.
          2    1    1    2  501    0 -0.18349002927E+02  0.92754805784E+01 -0.73367693793E+02  0.76194087309E+02  0.00000000000E+00 0. -1.
          1    1    1    2  502    0 -0.47990826173E+02 -0.15887255576E+02  0.19821444086E+03  0.20455925511E+03  0.00000000000E+00 0. -1.
         22    1    3    3    0    0 -0.28847887379E+02 -0.21623905427E+02  0.61901403275E+02  0.71635030673E+02  0.00000000000E+00 0. -1.
         22    1    3    3    0    0  0.95187716479E+02  0.28235680424E+02  0.35847757651E+03  0.37197328920E+03  0.00000000000E+00 0. -1.
</event>
<event>
 7    1  0.6315518E-006  0.1592286E+03  0.7818608E-02  0.1289670E+00
          2   -1    0    0  502    0  0.00000000000E+00  0.00000000000E+00  0.13463791817E+03  0.13463791817E+03  0.00000000000E+00 0. -1.
          1   -1    0    0  501    0 -0.00000000000E+00 -0.00000000000E+00 -0.28570918475E+04  0.28570918475E+04  0.00000000000E+00 0. -1.
         25    2    1    2    0    0  0.12367001557E+03  0.33219221311E+02 -0.96659604378E+02  0.20338744065E+03  0.12500232990E+03 0.  0.
          2    1    1    2  501    0  0.42092191771E+02  0.39149163514E+02 -0.26057276684E+04  0.26063616579E+04  0.00000000000E+00 0. -1.
          1    1    1    2  502    0 -0.16576220734E+03 -0.72368384826E+02 -0.20066656497E+02  0.18198066712E+03  0.00000000000E+00 0. -1.
         22    1    3    3    0    0  0.24719807269E+02  0.33216529869E+02 -0.95875333621E+02  0.10443412433E+03  0.00000000000E+00 0.  1.
         22    1    3    3    0    0  0.98950208298E+02  0.26914424403E-02 -0.78427075654E+00  0.98953316317E+02  0.00000000000E+00 0.  1.
</event>
<event>
 7    1  0.6315518E-006  0.9134032E+02  0.7818608E-02  0.1452039E+00
          2   -1    0    0  502    0  0.00000000000E+00  0.00000000000E+00  0.16640064183E+03  0.16640064183E+03  0.00000000000E+00 0. -1.
          1   -1    0    0  501    0 -0.00000000000E+00 -0.00000000000E+00 -0.93989118283E+03  0.93989118283E+03  0.00000000000E+00 0. -1.
         25    2    1    2    0    0 -0.64849216887E+02 -0.22452348619E+02 -0.18296266123E+03  0.23197023001E+03  0.12500129325E+03 0.  0.
          2    1    1    2  501    0  0.86839326465E+02  0.36417904914E+02 -0.72817128359E+03  0.73423480622E+03  0.00000000000E+00 0. -1.
          1    1    1    2  502    0 -0.21990109578E+02 -0.13965556295E+02  0.13764340381E+03  0.14008678844E+03  0.00000000000E+00 0. -1.
         22    1    3    3    0    0  0.24897673276E+02  0.13870822046E+02 -0.10154355749E+03  0.10546747322E+03  0.00000000000E+00 0. -1.
         22    1    3    3    0    0 -0.89746890163E+02 -0.36323170665E+02 -0.81419103741E+02  0.12650275679E+03  0.00000000000E+00 0. -1.
</event>
<event>
 7    1  0.6315518E-006  0.4843333E+02  0.7818608E-02  0.1536230E+00
          2   -1    0    0  502    0  0.00000000000E+00  0.00000000000E+00  0.43674739317E+03  0.43674739317E+03  0.00000000000E+00 0. -1.
          1   -1    0    0  501    0 -0.00000000000E+00 -0.00000000000E+00 -0.10192898866E+04  0.10192898866E+04  0.00000000000E+00 0. -1.
         25    2    1    2    0    0 -0.37089938027E+02 -0.15962577686E+02  0.20860936033E+03  0.24652173006E+03  0.12499852315E+03 0.  0.
          2    1    1    2  501    0  0.25893011461E+02  0.40977085975E+02 -0.99884578709E+03  0.10000212378E+04  0.00000000000E+00 0. -1.
          1    1    1    2  502    0  0.11196926566E+02 -0.25014508289E+02  0.20769393333E+03  0.20949431193E+03  0.00000000000E+00 0. -1.
         22    1    3    3    0    0  0.40019069764E+02  0.57777641449E+01  0.28711009102E+02  0.49590629629E+02  0.00000000000E+00 0. -1.
         22    1    3    3    0    0 -0.77109007791E+02 -0.21740341831E+02  0.17989835122E+03  0.19693110043E+03  0.00000000000E+00 0. -1.
</event>
<event>
 7    1  0.6315518E-006  0.1351234E+03  0.7818608E-02  0.1224652E+00
          2   -1    0    0  502    0  0.00000000000E+00  0.00000000000E+00  0.19874538803E+04  0.19874538803E+04  0.00000000000E+00 0. -1.
          1   -1    0    0  501    0 -0.00000000000E+00 -0.00000000000E+00 -0.85947159923E+03  0.85947159923E+03  0.00000000000E+00 0. -1.
         25    2    1    2    0    0  0.66744014129E+02 -0.21261254573E+03  0.31972498771E+03  0.40927825624E+03  0.12500306093E+03 0.  0.
          2    1    1    2  501    0 -0.10099415008E+03  0.88482146082E+02 -0.80658212282E+03  0.81768186318E+03  0.00000000000E+00 0. -1.
          1    1    1    2  502    0  0.34250135950E+02  0.12413039964E+03  0.16148394162E+04  0.16199653601E+04  0.00000000000E+00 0. -1.
         22    1    3    3    0    0  0.65838425761E+02 -0.13412850336E+03  0.28832603717E+03  0.32474152403E+03  0.00000000000E+00 0.  1.
         22    1    3    3    0    0  0.90558836782E+00 -0.78484042370E+02  0.31398950533E+02  0.84536732203E+02  0.00000000000E+00 0.  1.
</event>
<event>
 7    1  0.6315518E-006  0.7161813E+02  0.7818608E-02  0.1383433E+00
          2   -1    0    0  502    0  0.00000000000E+00  0.00000000000E+00  0.99140864552E+03  0.99140864552E+03  0.00000000000E+00 0. -1.
          1   -1    0    0  501    0 -0.00000000000E+00 -0.00000000000E+00 -0.21053285902E+03  0.21053285902E+03  0.00000000000E+00 0. -1.
         25    2    1    2    0    0  0.81508342248E+02 -0.87110508946E+02 -0.72685999416E+02  0.18745673632E+03  0.12499969143E+03 0.  0.
          2    1    1    2  501    0 -0.18954914771E+02  0.53147354435E+02 -0.69026463356E+02  0.89154824440E+02  0.00000000000E+00 0. -1.
          1    1    1    2  502    0 -0.62553427477E+02  0.33963154511E+02  0.92258824927E+03  0.92532994378E+03  0.00000000000E+00 0. -1.
         22    1    3    3    0    0 -0.19153271166E+02  0.78858557703E+01  0.13203849777E+02  0.24563716464E+02  0.00000000000E+00 0.  1.
         22    1    3    3    0    0  0.10066161341E+03 -0.94996364716E+02 -0.85889849193E+02  0.16289301986E+03  0.00000000000E+00 0.  1.
</event>
<event>
 7    1  0.6315518E-006  0.5892754E+02  0.7818608E-02  0.1463278E+00
          2   -1    0    0  502    0  0.00000000000E+00  0.00000000000E+00  0.18996334484E+04  0.18996334484E+04  0.00000000000E+00 0. -1.
          1   -1    0    0  501    0 -0.00000000000E+00 -0.00000000000E+00 -0.25000671580E+03  0.25000671580E+03  0.00000000000E+00 0. -1.
         25    2    1    2    0    0  0.35064941997E+02  0.55683570574E+02  0.55644728671E+02  0.15183067338E+03  0.12500402938E+03 0.  0.
          2    1    1    2  501    0  0.19846315393E+01 -0.59060661741E+02 -0.19739271328E+03  0.20604849862E+03  0.00000000000E+00 0. -1.
          1    1    1    2  502    0 -0.37049573537E+02  0.33770911665E+01  0.17913747172E+04  0.17917609921E+04  0.00000000000E+00 0. -1.
         22    1    3    3    0    0  0.21954037010E+02  0.95670353055E+02  0.47177334645E+02  0.10890590938E+03  0.00000000000E+00 0. -1.
         22    1    3    3    0    0  0.13110904988E+02 -0.39986782480E+02  0.84673940258E+01  0.42924763998E+02  0.00000000000E+00 0. -1.
</event>
<event>
 7    1  0.6315518E-006  0.1350353E+03  0.7818608E-02  0.1262760E+00
          2   -1    0    0  502    0  0.00000000000E+00  0.00000000000E+00  0.73287047905E+03  0.73287047905E+03  0.00000000000E+00 0. -1.
          1   -1    0    0  501    0 -0.00000000000E+00 -0.00000000000E+00 -0.19637848184E+04  0.19637848184E+04  0.00000000000E+00 0. -1.
         25    2    1    2    0    0 -0.58634015777E+01  0.10389535036E+03 -0.79660042632E+03  0.81303458367E+03  0.12499748686E+03 0.  0.
          2    1    1    2  501    0 -0.87514749215E+02 -0.57443111020E+01 -0.11509526844E+04  0.11542893528E+04  0.00000000000E+00 0. -1.
          1    1    1    2  502    0  0.93378150792E+02 -0.98151039255E+02  0.71663877131E+03  0.72933136097E+03  0.00000000000E+00 0. -1.
         22    1    3    3    0    0  0.36904368963E+02 -0.10279770524E+02 -0.13674675683E+03  0.14201155458E+03  0.00000000000E+00 0.  1.
         22    1    3    3    0    0 -0.42767770541E+02  0.11417512088E+03 -0.65985366950E+03  0.67102302909E+03  0.00000000000E+00 0.  1.
</event>
<event>
 7    1  0.7873786E-006  0.1378259E+03  0.7818608E-02  0.1275947E+00
          2   -1    0    0  502    0  0.00000000000E+00  0.00000000000E+00  0.14246771925E+04  0.14246771925E+04  0.00000000000E+00 0. -1.
          1   -1    0    0  501    0 -0.00000000000E+00 -0.00000000000E+00 -0.14212723171E+04  0.14212723171E+04  0.00000000000E+00 0. -1.
         25    2    1    2    0    0 -0.21028854513E+03 -0.14056568394E+01 -0.44170808517E+03  0.50492984006E+03  0.12499945115E+03 0.  0.
          2    1    1    2  501    0  0.74019084456E+02 -0.15526352298E+02 -0.94305186571E+03  0.94607965515E+03  0.00000000000E+00 0. -1.
          1    1    1    2  502    0  0.13626946068E+03  0.16932009138E+02  0.13881648263E+04  0.13949400144E+04  0.00000000000E+00 0. -1.
         22    1    3    3    0    0 -0.19751435818E+03  0.23085972431E+02 -0.29580134807E+03  0.35643136973E+03  0.00000000000E+00 0.  1.
         22    1    3    3    0    0 -0.12774186954E+02 -0.24491629271E+02 -0.14590673711E+03  0.14849847033E+03  0.00000000000E+00 0.  1.
</event>
<event>
 7    1  0.6436998E-006  0.7152837E+02  0.7818608E-02  0.1375679E+00
          2   -1    0    0  502    0  0.00000000000E+00  0.00000000000E+00  0.80863264328E+03  0.80863264328E+03  0.00000000000E+00 0. -1.
          1   -1    0    0  501    0 -0.00000000000E+00 -0.00000000000E+00 -0.82687300734E+03  0.82687300734E+03  0.00000000000E+00 0. -1.
         25    2    1    2    0    0  0.12100600867E+03 -0.37229754426E+02 -0.22246033118E+03  0.28485861995E+03  0.12500930230E+03 0.  0.
          2    1    1    2  501    0 -0.67287312142E+02  0.10085386673E+02 -0.57002246391E+03  0.57406873000E+03  0.00000000000E+00 0. -1.
          1    1    1    2  502    0 -0.53718696526E+02  0.27144367753E+02  0.77424243103E+03  0.77657830067E+03  0.00000000000E+00 0. -1.
         22    1    3    3    0    0  0.13667266701E+03 -0.23302544699E+02 -0.22443275982E+03  0.26380388582E+03  0.00000000000E+00 0.  1.
         22    1    3    3    0    0 -0.15666658340E+02 -0.13927209727E+02  0.19724286358E+01  0.21054734124E+02  0.00000000000E+00 0.  1.
</event>
<event>
 7    1  0.6315518E-006  0.1927997E+03  0.7818608E-02  0.1286151E+00
          2   -1    0    0  502    0  0.00000000000E+00  0.00000000000E+00  0.71970624183E+03  0.71970624183E+03  0.00000000000E+00 0. -1.
          1   -1    0    0  501    0 -0.00000000000E+00 -0.00000000000E+00 -0.57995139516E+03  0.57995139516E+03  0.00000000000E+00 0. -1.
         25    2    1    2    0    0 -0.60101930697E+02  0.21110748166E+03  0.23530117459E+03  0.34521030359E+03  0.12499960023E+03 0.  0.
          2    1    1    2  501    0  0.40153969139E+02 -0.28206427434E+02 -0.50404467991E+03  0.50642766821E+03  0.00000000000E+00 0. -1.
          1    1    1    2  502    0  0.19947961559E+02 -0.18290105423E+03  0.40849835199E+03  0.44801966518E+03  0.00000000000E+00 0. -1.
         22    1    3    3    0    0 -0.61283593255E+02  0.47167744021E+02  0.31130004293E+02  0.83363973307E+02  0.00000000000E+00 0.  1.
         22    1    3    3    0    0  0.11816625577E+01  0.16393973764E+03  0.20417117030E+03  0.26184633029E+03  0.00000000000E+00 0.  1.
</event>
<event>
 7    1  0.6315518E-006  0.4925855E+02  0.7818608E-02  0.1474880E+00
          2   -1    0    0  502    0  0.00000000000E+00  0.00000000000E+00  0.11629876802E+04  0.11629876802E+04  0.00000000000E+00 0. -1.
          1   -1    0    0  501    0 -0.00000000000E+00 -0.00000000000E+00 -0.26833123167E+02  0.26833123167E+02  0.00000000000E+00 0. -1.
         25    2    1    2    0    0 -0.15717820579E+02 -0.68918868948E+02  0.37736518881E+03  0.40376699821E+03  0.12500577083E+03 0.  0.
          2    1    1    2  501    0  0.33453875107E+02  0.23620851128E+02  0.19840663952E+02  0.45505585523E+02  0.00000000000E+00 0. -1.
          1    1    1    2  502    0 -0.17736054528E+02  0.45298017819E+02  0.73894870429E+03  0.74054821964E+03  0.00000000000E+00 0. -1.
         22    1    3    3    0    0 -0.60426504267E+02 -0.30259219429E+02  0.10359150311E+03  0.12368582092E+03  0.00000000000E+00 0.  1.
         22    1    3    3    0    0  0.44708683688E+02 -0.38659649519E+02  0.27377368569E+03  0.28008117730E+03  0.00000000000E+00 0.  1.
</event>
<event>
 7    1  0.6315518E-006  0.5987304E+02  0.7818608E-02  0.1433939E+00
          2   -1    0    0  502    0  0.00000000000E+00  0.00000000000E+00  0.30463520952E+04  0.30463520952E+04  0.00000000000E+00 0. -1.
          1   -1    0    0  501    0 -0.00000000000E+00 -0.00000000000E+00 -0.15743682651E+03  0.15743682651E+03  0.00000000000E+00 0. -1.
         25    2    1    2    0    0  0.92458612866E+02  0.44572399020E+02  0.86170560348E+03  0.87675101758E+03  0.12498202232E+03 0.  0.
          2    1    1    2  501    0 -0.47915899380E+02 -0.35432044368E+02 -0.14374429821E+03  0.15560779688E+03  0.00000000000E+00 0. -1.
          1    1    1    2  502    0 -0.44542713486E+02 -0.91403546524E+01  0.21709539635E+04  0.21714301073E+04  0.00000000000E+00 0. -1.
         22    1    3    3    0    0  0.79545688215E+02 -0.25710673725E+02  0.33760557134E+03  0.34780177840E+03  0.00000000000E+00 0.  1.
         22    1    3    3    0    0  0.12912924651E+02  0.70283072745E+02  0.52410003214E+03  0.52894923918E+03  0.00000000000E+00 0.  1.
</event>
<event>
 7    1  0.6315518E-006  0.2286742E+03  0.7818608E-02  0.1261939E+00
          2   -1    0    0  502    0  0.00000000000E+00  0.00000000000E+00  0.94996783386E+03  0.94996783386E+03  0.00000000000E+00 0. -1.
          1   -1    0    0  501    0 -0.00000000000E+00 -0.00000000000E+00 -0.28650193615E+03  0.28650193615E+03  0.00000000000E+00 0. -1.
         25    2    1    2    0    0  0.21758117725E+03  0.85885601441E+02  0.61354010598E+03  0.66841200245E+03  0.12500095257E+03 0.  0.
          2    1    1    2  501    0 -0.22609298679E+03 -0.34376102345E+02 -0.20543549143E+03  0.30741420955E+03  0.00000000000E+00 0. -1.
          1    1    1    2  502    0  0.85118095418E+01 -0.51509499096E+02  0.25536128315E+03  0.26064355801E+03  0.00000000000E+00 0. -1.
         22    1    3    3    0    0  0.51543919607E+02  0.11821254957E+02  0.31086674644E+03  0.31533260497E+03  0.00000000000E+00 0. -1.
         22    1    3    3    0    0  0.16603725765E+03  0.74064346484E+02  0.30267335954E+03  0.35307939748E+03  0.00000000000E+00 0. -1.
</event>
<event>
 7    1  0.6315518E-006  0.1343996E+03  0.7818608E-02  0.1322527E+00
          2   -1    0    0  502    0  0.00000000000E+00  0.00000000000E+00  0.24953519820E+03  0.24953519820E+03  0.00000000000E+00 0. -1.
          1   -1    0    0  501    0 -0.00000000000E+00 -0.00000000000E+00 -0.88183341305E+03  0.88183341305E+03  0.00000000000E+00 0. -1.
         25    2    1    2    0    0 -0.35314196232E+02  0.13926709735E+03 -0.76881573329E+02  0.20537346705E+03  0.12500027116E+03 0.  0.
          2    1    1    2  501    0 -0.41211719547E+02 -0.29101926926E+02 -0.71542425708E+03  0.71720094506E+03  0.00000000000E+00 0. -1.
          1    1    1    2  502    0  0.76525915779E+02 -0.11016517042E+03  0.16000761556E+03  0.20879419915E+03  0.00000000000E+00 0. -1.
         22    1    3    3    0    0 -0.78271398278E+02  0.89091741645E+02 -0.72891270906E+02  0.13920088934E+03  0.00000000000E+00 0. -1.
         22    1    3    3    0    0  0.42957202046E+02  0.50175355704E+02 -0.39903024228E+01  0.66172577712E+02  0.00000000000E+00 0. -1.
</event>
<event>
 7    1  0.6315518E-006  0.4481743E+02  0.7818608E-02  0.1480918E+00
          2   -1    0    0  502    0  0.00000000000E+00  0.00000000000E+00  0.20448775531E+04  0.20448775531E+04  0.00000000000E+00 0. -1.
          1   -1    0    0  501    0 -0.00000000000E+00 -0.00000000000E+00 -0.98124617998E+01  0.98124617998E+01  0.00000000000E+00 0. -1.
         25    2    1    2    0    0  0.20274666932E+02 -0.49390313811E+02  0.84925005775E+03  0.86005892745E+03  0.12500093147E+03 0.  0.
          2    1    1    2  501    0  0.23454067181E+02  0.36190282638E+02  0.11465125224E+03  0.12249383440E+03  0.00000000000E+00 0. -1.
          1    1    1    2  502    0 -0.43728734112E+02  0.13200031173E+02  0.10711637813E+04  0.10721372531E+04  0.00000000000E+00 0. -1.
         22    1    3    3    0    0 -0.27321241322E+02  0.14099683247E+02  0.53717003432E+03  0.53804915860E+03  0.00000000000E+00 0. -1.
         22    1    3    3    0    0  0.47595908254E+02 -0.63489997058E+02  0.31208002344E+03  0.32200976885E+03  0.00000000000E+00 0. -1.
</event>
<event>
 7    1  0.6315518E-006  0.1410152E+03  0.7818608E-02  0.1229198E+00
          2   -1    0    0  502    0  0.00000000000E+00  0.00000000000E+00  0.14428246544E+04  0.14428246544E+04  0.00000000000E+00 0. -1.
          1   -1    0    0  501    0 -0.00000000000E+00 -0.00000000000E+00 -0.36871857032E+03  0.36871857032E+03  0.00000000000E+00 0. -1.
         25    2    1    2    0    0  0.19750269197E+03  0.10458619691E+03  0.56805086486E+03  0.62310370240E+03  0.12502340961E+03 0.  0.
          2    1    1    2  501    0 -0.13956904006E+03 -0.21280366437E+01 -0.32258065602E+03  0.35148588182E+03  0.00000000000E+00 0. -1.
          1    1    1    2  502    0 -0.57933651907E+02 -0.10245816027E+03  0.82863587523E+03  0.83695364051E+03  0.00000000000E+00 0. -1.
         22    1    3    3    0    0 -0.31259858556E+01  0.47160400582E+02  0.11277504603E+03  0.12227872332E+03  0.00000000000E+00 0. -1.
         22    1    3    3    0    0  0.20062867783E+03  0.57425796328E+02  0.45527581883E+03  0.50082497907E+03  0.00000000000E+00 0. -1.
</event>
<event>
 7    1  0.6315518E-006  0.4937198E+02  0.7818608E-02  0.1474380E+00
          2   -1    0    0  502    0  0.00000000000E+00  0.00000000000E+00  0.17483536199E+04  0.17483536199E+04  0.00000000000E+00 0. -1.
          1   -1    0    0  501    0 -0.00000000000E+00 -0.00000000000E+00 -0.30524729313E+02  0.30524729313E+02  0.00000000000E+00 0. -1.
         25    2    1    2    0    0  0.13496033611E+02 -0.76866630263E+02  0.11862772719E+04  0.11953947655E+04  0.12499703136E+03 0.  0.
          2    1    1    2  501    0  0.14387669861E+02  0.46802922266E+02 -0.13731276093E+01  0.48983712151E+02  0.00000000000E+00 0. -1.
          1    1    1    2  502    0 -0.27883703471E+02  0.30063707997E+02  0.53292474627E+03  0.53449987151E+03  0.00000000000E+00 0. -1.
         22    1    3    3    0    0  0.55287630163E+02 -0.59294011082E+02  0.10145504897E+04  0.10177844555E+04  0.00000000000E+00 0.  1.
         22    1    3    3    0    0 -0.41791596552E+02 -0.17572619181E+02  0.17172678227E+03  0.17761031005E+03  0.00000000000E+00 0.  1.
</event>
<event>
 7    1  0.6315518E-006  0.2086192E+03  0.7818608E-02  0.1255361E+00
          2   -1    0    0  502    0  0.00000000000E+00  0.00000000000E+00  0.87977998600E+03  0.87977998600E+03  0.00000000000E+00 0. -1.
          1   -1    0    0  501    0 -0.00000000000E+00 -0.00000000000E+00 -0.35872083551E+03  0.35872083551E+03  0.00000000000E+00 0. -1.
         25    2    1    2    0    0  0.16610879968E+03  0.17879192865E+03  0.11512783115E+03  0.29738540204E+03  0.12499989104E+03 0.  0.
          2    1    1    2  501    0 -0.16505698446E+03 -0.11774371372E+03 -0.22750737540E+03  0.30474086713E+03  0.00000000000E+00 0. -1.
          1    1    1    2  502    0 -0.10518152206E+01 -0.61048214929E+02  0.63343869475E+03  0.63637455234E+03  0.00000000000E+00 0. -1.
         22    1    3    3    0    0  0.11411009183E+03  0.72541721345E+02  0.11740204839E+03  0.17907164867E+03  0.00000000000E+00 0. -1.
         22    1    3    3    0    0  0.51998707857E+02  0.10625020730E+03 -0.22742172472E+01  0.11831375336E+03  0.00000000000E+00 0. -1.
</event>
<event>
 7    1  0.6315518E-006  0.9064993E+02  0.7818608E-02  0.1343268E+00
          2   -1    0    0  502    0  0.00000000000E+00  0.00000000000E+00  0.11173848850E+04  0.11173848850E+04  0.00000000000E+00 0. -1.
          1   -1    0    0  501    0 -0.00000000000E+00 -0.00000000000E+00 -0.25811842220E+02  0.25811842220E+02  0.00000000000E+00 0. -1.
         25    2    1    2    0    0  0.11702649850E+02 -0.52921681533E+02  0.31277256877E+03  0.34115637485E+03  0.12499334358E+03 0.  0.
          2    1    1    2  501    0 -0.43447959141E+02 -0.44754039600E+02  0.11961105744E+03  0.13489794022E+03  0.00000000000E+00 0. -1.
          1    1    1    2  502    0  0.31745309291E+02  0.97675721133E+02  0.65918941661E+03  0.66714241218E+03  0.00000000000E+00 0. -1.
         22    1    3    3    0    0  0.34330715905E+02 -0.38445603300E+01  0.13574296827E+02  0.37116576257E+02  0.00000000000E+00 0. -1.
         22    1    3    3    0    0 -0.22628066054E+02 -0.49077121203E+02  0.29919827194E+03  0.30403979860E+03  0.00000000000E+00 0. -1.
</event>
<event>
 7    1  0.6315518E-006  0.8880866E+02  0.7818608E-02  0.1376794E+00
          2   -1    0    0  502    0  0.00000000000E+00  0.00000000000E+00  0.23721123853E+03  0.23721123853E+03  0.00000000000E+00 0. -1.
          1   -1    0    0  501    0 -0.00000000000E+00 -0.00000000000E+00 -0.73304345475E+03  0.73304345475E+03  0.00000000000E+00 0. -1.
         25    2    1    2    0    0 -0.33881746186E+02 -0.12142553107E+03 -0.27684693165E+03  0.32888316275E+03  0.12501111492E+03 0.  0.
          2    1    1    2  501    0  0.47668286245E+01  0.83219617706E+02 -0.42332915786E+03  0.43145776540E+03  0.00000000000E+00 0. -1.
          1    1    1    2  502    0  0.29114917561E+02  0.38205913360E+02  0.20434387329E+03  0.20991376513E+03  0.00000000000E+00 0. -1.
         22    1    3    3    0    0  0.24304837937E+01  0.25327421068E+02 -0.29118156232E+02  0.38668495339E+02  0.00000000000E+00 0.  1.
         22    1    3    3    0    0 -0.36312229979E+02 -0.14675295213E+03 -0.24772877542E+03  0.29021466741E+03  0.00000000000E+00 0.  1.
</event>
<event>
 7    1  0.6315518E-006  0.1817636E+03  0.7818608E-02  0.1210181E+00
          2   -1    0    0  502    0  0.00000000000E+00  0.00000000000E+00  0.16638467432E+04  0.16638467432E+04  0.00000000000E+00 0. -1.
          1   -1    0    0  501    0 -0.00000000000E+00 -0.00000000000E+00 -0.38423951897E+03  0.38423951897E+03  0.00000000000E+00 0. -1.
         25    2    1    2    0    0 -0.20497551633E+03 -0.20159738857E+03  0.68249514584E+03  0.75105317320E+03  0.12499910200E+03 0.  0.
          2    1    1    2  501    0  0.11377529961E+03  0.13743937143E+03 -0.32363467548E+03  0.36955893007E+03  0.00000000000E+00 0. -1.
          1    1    1    2  502    0  0.91200216719E+02  0.64158017140E+02  0.92074675385E+03  0.92747415890E+03  0.00000000000E+00 0. -1.
         22    1    3    3    0    0 -0.79138425325E+02 -0.16738156824E+02  0.11085926972E+03  0.13723277283E+03  0.00000000000E+00 0.  1.
         22    1    3    3    0    0 -0.12583709100E+03 -0.18485923174E+03  0.57163587612E+03  0.61382040036E+03  0.00000000000E+00 0.  1.
</event>
<event>
 7    1  0.6315518E-006  0.8483897E+02  0.7818608E-02  0.1479634E+00
          2   -1    0    0  502    0  0.00000000000E+00  0.00000000000E+00  0.27462849977E+03  0.27462849977E+03  0.00000000000E+00 0. -1.
          1   -1    0    0  501    0 -0.00000000000E+00 -0.00000000000E+00 -0.19968890261E+04  0.19968890261E+04  0.00000000000E+00 0. -1.
         25    2    1    2    0    0 -0.13317740193E+02  0.88088986968E+02 -0.15355021147E+04  0.15431555044E+04  0.12500053844E+03 0.  0.
          2    1    1    2  501    0  0.22677583205E+02 -0.37733656405E+01 -0.45061608490E+03  0.45120213546E+03  0.00000000000E+00 0. -1.
          1    1    1    2  502    0 -0.93598430113E+01 -0.84315621327E+02  0.26385767329E+03  0.27715988602E+03  0.00000000000E+00 0. -1.
         22    1    3    3    0    0  0.96202647217E+00  0.71820329927E+02 -0.34219055061E+03  0.34964762006E+03  0.00000000000E+00 0. -1.
         22    1    3    3    0    0 -0.14279766665E+02  0.16268657040E+02 -0.11933115641E+04  0.11935078843E+04  0.00000000000E+00 0. -1.
</event>
<event>
 7    1  0.6315518E-006  0.2321217E+03  0.7818608E-02  0.1210768E+00
          2   -1    0    0  502    0  0.00000000000E+00  0.00000000000E+00  0.18930092912E+04  0.18930092912E+04  0.00000000000E+00 0. -1.
          1   -1    0    0  501    0 -0.00000000000E+00 -0.00000000000E+00 -0.24359856711E+04  0.24359856711E+04  0.00000000000E+00 0. -1.
         25    2    1    2    0    0 -0.15181233947E+03 -0.27527825805E+03  0.22131745777E+01  0.33831260783E+03  0.12500166679E+03 0.  0.
          2    1    1    2  501    0  0.97569267872E+02  0.20755130954E+03 -0.22610389088E+04  0.22726403709E+04  0.00000000000E+00 0. -1.
          1    1    1    2  502    0  0.54243071599E+02  0.67726948511E+02  0.17158493544E+04  0.17180419836E+04  0.00000000000E+00 0. -1.
         22    1    3    3    0    0 -0.17073530769E+03 -0.25752014023E+03  0.15084014492E+02  0.30934559219E+03  0.00000000000E+00 0. -1.
         22    1    3    3    0    0  0.18922968216E+02 -0.17758117824E+02 -0.12870839915E+02  0.28967015636E+02  0.00000000000E+00 0. -1.
</event>
<event>
 7    1  0.6315518E-006  0.1467148E+03  0.7818608E-02  0.1227092E+00
          2   -1    0    0  502    0  0.00000000000E+00  0.00000000000E+00  0.29738789103E+03  0.29738789103E+03  0.00000000000E+00 0. -1.
          1   -1    0    0  501    0 -0.00000000000E+00 -0.00000000000E+00 -0.14633394764E+04  0.14633394764E+04  0.00000000000E+00 0. -1.
         25    2    1    2    0    0 -0.17677461957E+03 -0.90782431617E+02 -0.92620712099E+03  0.95549790408E+03  0.12500359075E+03 0.  0.
          2    1    1    2  501    0  0.31827361444E+02  0.11115838224E+03 -0.49644375564E+03  0.50973087938E+03  0.00000000000E+00 0. -1.
          1    1    1    2  502    0  0.14494725813E+03 -0.20375950626E+02  0.25669929125E+03  0.29549858398E+03  0.00000000000E+00 0. -1.
         22    1    3    3    0    0 -0.16266321001E+03 -0.10196180393E+03 -0.91351800631E+03  0.93347237624E+03  0.00000000000E+00 0. -1.
         22    1    3    3    0    0 -0.14111409562E+02  0.11179372310E+02 -0.12689114685E+02  0.22025527839E+02  0.00000000000E+00 0. -1.
</event>
<event>
 7    1  0.6315518E-006  0.1453828E+03  0.7818608E-02  0.1218035E+00
          2   -1    0    0  502    0  0.00000000000E+00  0.00000000000E+00  0.56419520914E+03  0.56419520914E+03  0.00000000000E+00 0. -1.
          1   -1    0    0  501    0 -0.00000000000E+00 -0.00000000000E+00 -0.31140935545E+04  0.31140935545E+04  0.00000000000E+00 0. -1.
         25    2    1    2    0    0 -0.22535477597E+03 -0.69495174156E+02  0.54630978036E+01  0.26696422913E+03  0.12500279962E+03 0.  0.
          2    1    1    2  501    0  0.14185800440E+03 -0.27879146460E+02 -0.29719351266E+04  0.29754494344E+04  0.00000000000E+00 0. -1.
          1    1    1    2  502    0  0.83496771571E+02  0.97374320616E+02  0.41657368340E+03  0.43587510009E+03  0.00000000000E+00 0. -1.
         22    1    3    3    0    0 -0.14935127812E+03 -0.78362800825E+02  0.53107480447E+02  0.17682459475E+03  0.00000000000E+00 0. -1.
         22    1    3    3    0    0 -0.76003497858E+02  0.88676266694E+01 -0.47644382643E+02  0.90139634384E+02  0.00000000000E+00 0. -1.
</event>
<event>
 7    1  0.6315518E-006  0.1610405E+03  0.7818608E-02  0.1381682E+00
          2   -1    0    0  502    0  0.00000000000E+00  0.00000000000E+00  0.31022311532E+04  0.31022311532E+04  0.00000000000E+00 0. -1.
          1   -1    0    0  501    0 -0.00000000000E+00 -0.00000000000E+00 -0.56946304029E+03  0.56946304029E+03  0.00000000000E+00 0. -1.
         25    2    1    2    0    0 -0.10396797320E+02 -0.15182313514E+03  0.25966136591E+03  0.32589460185E+03  0.12499963523E+03 0.  0.
          2    1    1    2  501    0 -0.24712052755E+02 -0.60984238025E+01 -0.53371395816E+03  0.53432056433E+03  0.00000000000E+00 0. -1.
          1    1    1    2  502    0  0.35108850074E+02  0.15792155894E+03  0.28068207052E+04  0.28114790273E+04  0.00000000000E+00 0. -1.
         22    1    3    3    0    0  0.45288592222E+02 -0.81303484197E+02  0.19215768789E+03  0.21350852475E+03  0.00000000000E+00 0.  1.
         22    1    3    3    0    0 -0.55685389542E+02 -0.70519650943E+02  0.67503678023E+02  0.11238607709E+03  0.00000000000E+00 0.  1.
</event>
<event>
 7    1  0.6315518E-006  0.2881866E+03  0.7818608E-02  0.1241441E+00
          2   -1    0    0  502    0  0.00000000000E+00  0.00000000000E+00  0.14524682049E+04  0.14524682049E+04  0.00000000000E+00 0. -1.
          1   -1    0    0  501    0 -0.00000000000E+00 -0.00000000000E+00 -0.40477604703E+03  0.40477604703E+03  0.00000000000E+00 0. -1.
         25    2    1    2    0    0 -0.19597062118E+03 -0.21302736116E+03  0.58399100734E+03  0.66366838637E+03  0.12500035776E+03 0.  0.
          2    1    1    2  501    0  0.15509013231E+03  0.24320358222E+03 -0.30697306081E+03  0.42122843163E+03  0.00000000000E+00 0. -1.
          1    1    1    2  502    0  0.40880488869E+02 -0.30176221061E+02  0.77067421129E+03  0.77234743389E+03  0.00000000000E+00 0. -1.
         22    1    3    3    0    0 -0.39522051233E+02  0.10366337146E+02  0.55059833201E+02  0.68564121169E+02  0.00000000000E+00 0.  1.
         22    1    3    3    0    0 -0.15644856995E+03 -0.22339369831E+03  0.52893117414E+03  0.59510426520E+03  0.00000000000E+00 0.  1.
</event>
<event>
 7    1  0.6315518E-006  0.2149498E+03  0.7818608E-02  0.1245815E+00
          2   -1    0    0  502    0  0.00000000000E+00  0.00000000000E+00  0.38470319065E+03  0.38470319065E+03  0.00000000000E+00 0. -1.
          1   -1    0    0  501    0 -0.00000000000E+00 -0.00000000000E+00 -0.15411558488E+04  0.15411558488E+04  0.00000000000E+00 0. -1.
         25    2    1    2    0    0 -0.25299041687E+03 -0.31075466675E+02 -0.12890397675E+04  0.13199300310E+04  0.12498771466E+03 0.  0.
          2    1    1    2  501    0  0.39847167036E+02  0.51583389823E+02 -0.20001064468E+03  0.21036373454E+03  0.00000000000E+00 0. -1.
          1    1    1    2  502    0  0.21314324983E+03 -0.20507923148E+02  0.33259775409E+03  0.39556527386E+03  0.00000000000E+00 0. -1.
         22    1    3    3    0    0 -0.24897832289E+03  0.34284700367E+00 -0.11961819340E+04  0.12218189481E+04  0.00000000000E+00 0. -1.
         22    1    3    3    0    0 -0.40120939846E+01 -0.31418313679E+02 -0.92857833532E+02  0.98111082865E+02  0.00000000000E+00 0. -1.
</event>
<event>
 7    1  0.6315518E-006  0.5396469E+02  0.7818608E-02  0.1502936E+00
          2   -1    0    0  502    0  0.00000000000E+00  0.00000000000E+00  0.97605795477E+03  0.97605795477E+03  0.00000000000E+00 0. -1.
          1   -1    0    0  501    0 -0.00000000000E+00 -0.00000000000E+00 -0.62432609263E+03  0.62432609263E+03  0.00000000000E+00 0. -1.
         25    2    1    2    0    0  0.79954786685E+02  0.18819255065E+02 -0.41893191483E+02  0.15532801954E+03  0.12499928755E+03 0.  0.
          2    1    1    2  501    0 -0.49260495980E+02 -0.20399700879E+02 -0.52410572234E+03  0.52681073684E+03  0.00000000000E+00 0. -1.
          1    1    1    2  502    0 -0.30694290705E+02  0.15804458138E+01  0.91773077597E+03  0.91824529100E+03  0.00000000000E+00 0. -1.
         22    1    3    3    0    0  0.43848741222E+02  0.65765369834E+02 -0.52869535247E+02  0.95094604123E+02  0.00000000000E+00 0.  1.
         22    1    3    3    0    0  0.36106045463E+02 -0.46946114769E+02  0.10976343764E+02  0.60233415421E+02  0.00000000000E+00 0.  1.
</event>
<event>
 7    1  0.6315518E-006  0.8042386E+02  0.7818608E-02  0.1478877E+00
          2   -1    0    0  502    0  0.00000000000E+00  0.00000000000E+00  0.23591717394E+04  0.23591717394E+04  0.00000000000E+00 0. -1.
          1   -1    0    0  501    0 -0.00000000000E+00 -0.00000000000E+00 -0.56571863861E+02  0.56571863861E+02  0.00000000000E+00 0. -1.
         25    2    1    2    0    0  0.47643951012E+02  0.85003929908E+02  0.14987948296E+03  0.21814169848E+03  0.12500530802E+03 0.  0.
          2    1    1    2  501    0  0.42624064642E+01 -0.24006166174E+02 -0.14852816441E+02  0.28549435712E+02  0.00000000000E+00 0. -1.
          1    1    1    2  502    0 -0.51906357476E+02 -0.60997763734E+02  0.21675732091E+04  0.21690524691E+04  0.00000000000E+00 0. -1.
         22    1    3    3    0    0  0.41598449166E+00  0.79289163635E+01 -0.22302701878E+02  0.23673852007E+02  0.00000000000E+00 0. -1.
         22    1    3    3    0    0  0.47227966520E+02  0.77075013545E+02  0.17218218484E+03  0.19446784647E+03  0.00000000000E+00 0. -1.
</event>
<event>
 7    1  0.6315518E-006  0.1145266E+03  0.7818608E-02  0.1446807E+00
          2   -1    0    0  502    0  0.00000000000E+00  0.00000000000E+00  0.65075430353E+02  0.65075430353E+02  0.00000000000E+00 0. -1.
          1   -1    0    0  501    0 -0.00000000000E+00 -0.00000000000E+00 -0.20355815613E+04  0.20355815613E+04  0.00000000000E+00 0. -1.
         25    2    1    2    0    0  0.53977041364E+02 -0.77070043843E+02 -0.10436786582E+04  0.10553402077E+04  0.12499799866E+03 0.  0.
          2    1    1    2  501    0  0.10917853705E+02 -0.18629860546E+02 -0.92940922198E+03  0.92966003095E+03  0.00000000000E+00 0. -1.
          1    1    1    2  502    0 -0.64894895069E+02  0.95699904388E+02  0.25817491936E+01  0.11565675309E+03  0.00000000000E+00 0. -1.
         22    1    3    3    0    0  0.91614422567E+02 -0.31989244195E+02 -0.69699708907E+03  0.70371972854E+03  0.00000000000E+00 0.  1.
         22    1    3    3    0    0 -0.37637381203E+02 -0.45080799648E+02 -0.34668156913E+03  0.35162047912E+03  0.00000000000E+00 0.  1.
</event>
<event>
 7    1  0.6315518E-006  0.2904066E+02  0.7818608E-02  0.1633229E+00
          2   -1    0    0  502    0  0.00000000000E+00  0.00000000000E+00  0.54459122467E+03  0.54459122467E+03  0.00000000000E+00 0. -1.
          1   -1    0    0  501    0 -0.00000000000E+00 -0.00000000000E+00 -0.95244674816E+02  0.95244674816E+02  0.00000000000E+00 0. -1.
         25    2    1    2    0    0 -0.49376739607E+02 -0.13147941748E+02  0.32201569144E+03  0.34918366723E+03  0.12499678854E+03 0.  0.
          2    1    1    2  501    0  0.25189265430E+02 -0.21865555488E+00 -0.78773640972E+02  0.82703285395E+02  0.00000000000E+00 0. -1.
          1    1    1    2  502    0  0.24187474177E+02  0.13366597303E+02  0.20610449939E+03  0.20794894686E+03  0.00000000000E+00 0. -1.
         22    1    3    3    0    0 -0.48193452683E+02 -0.37115301111E+02  0.57898203624E+02  0.83978309348E+02  0.00000000000E+00 0.  1.
         22    1    3    3    0    0 -0.11832869239E+01  0.23967359362E+02  0.26411748781E+03  0.26520535788E+03  0.00000000000E+00 0.  1.
</event>
<event>
 7    1  0.6315518E-006  0.1183813E+03  0.7818608E-02  0.1373041E+00
          2   -1    0    0  502    0  0.00000000000E+00  0.00000000000E+00  0.77619535388E+03  0.77619535388E+03  0.00000000000E+00 0. -1.
          1   -1    0    0  501    0 -0.00000000000E+00 -0.00000000000E+00 -0.13644430298E+03  0.13644430298E+03  0.00000000000E+00 0. -1.
         25    2    1    2    0    0 -0.88671132091E+02  0.29770103258E+02  0.65992111175E+02  0.16949321360E+03  0.12499664797E+03 0.  0.
          2    1    1    2  501    0  0.11744111151E+03 -0.53295832414E+02 -0.34698838170E+02  0.13355474457E+03  0.00000000000E+00 0. -1.
          1    1    1    2  502    0 -0.28769979423E+02  0.23525729156E+02  0.60845777789E+03  0.60959169870E+03  0.00000000000E+00 0. -1.
         22    1    3    3    0    0 -0.45718222489E+02  0.24207220837E+02 -0.33054983672E+02  0.61390368574E+02  0.00000000000E+00 0. -1.
         22    1    3    3    0    0 -0.42952909602E+02  0.55628824215E+01  0.99047094846E+02  0.10810284502E+03  0.00000000000E+00 0. -1.
</event>
<event>
 7    1  0.6315518E-006  0.9667108E+02  0.7818608E-02  0.1344410E+00
          2   -1    0    0  502    0  0.00000000000E+00  0.00000000000E+00  0.28130250957E+03  0.28130250957E+03  0.00000000000E+00 0. -1.
          1   -1    0    0  501    0 -0.00000000000E+00 -0.00000000000E+00 -0.15155234983E+03  0.15155234983E+03  0.00000000000E+00 0. -1.
         25    2    1    2    0    0 -0.19739866793E+02 -0.53471172353E+02 -0.53659816453E+02  0.14749018573E+03  0.12500060148E+03 0.  0.
          2    1    1    2  501    0  0.32425190162E+02 -0.47990509521E+02 -0.17013241340E+02  0.60364992686E+02  0.00000000000E+00 0. -1.
          1    1    1    2  502    0 -0.12685323369E+02  0.10146168187E+03  0.20042321753E+03  0.22499968098E+03  0.00000000000E+00 0. -1.
         22    1    3    3    0    0 -0.58656485364E+02  0.12425630508E+02 -0.15276007671E+02  0.61873548300E+02  0.00000000000E+00 0.  1.
         22    1    3    3    0    0  0.38916618571E+02 -0.65896802861E+02 -0.38383808782E+02  0.85616637431E+02  0.00000000000E+00 0.  1.
</event>
<event>
 7    1  0.6315518E-006  0.8740777E+02  0.7818608E-02  0.1380325E+00
          2   -1    0    0  502    0  0.00000000000E+00  0.00000000000E+00  0.17660721029E+04  0.17660721029E+04  0.00000000000E+00 0. -1.
          1   -1    0    0  501    0 -0.00000000000E+00 -0.00000000000E+00 -0.89706977923E+02  0.89706977923E+02  0.00000000000E+00 0. -1.
         25    2    1    2    0    0 -0.64225262282E+02 -0.41452727037E+02  0.79075053335E+03  0.80421001662E+03  0.12499652776E+03 0.  0.
          2    1    1    2  501    0  0.21554801029E+02 -0.42234075595E+02 -0.73716606920E+02  0.87649670419E+02  0.00000000000E+00 0. -1.
          1    1    1    2  502    0  0.42670461253E+02  0.83686802632E+02  0.95933119852E+03  0.96391939375E+03  0.00000000000E+00 0. -1.
         22    1    3    3    0    0 -0.78784376612E+02 -0.49687829049E+02  0.32303761199E+03  0.33619809208E+03  0.00000000000E+00 0. -1.
         22    1    3    3    0    0  0.14559114330E+02  0.82351020124E+01  0.46771292136E+03  0.46801192455E+03  0.00000000000E+00 0. -1.
</event>
<event>
 7    1  0.6315518E-006  0.1502888E+03  0.7818608E-02  0.1219984E+00
          2   -1    0    0  502    0  0.00000000000E+00  0.00000000000E+00  0.40565121244E+04  0.40565121244E+04  0.00000000000E+00 0. -1.
          1   -1    0    0  501    0 -0.00000000000E+00 -0.00000000000E+00 -0.90665481805E+02  0.90665481805E+02  0.00000000000E+00 0. -1.
         25    2    1    2    0    0 -0.96030207477E+02  0.23397854204E+03  0.15914098338E+04  0.16162233746E+04  0.12499991453E+03 0.  0.
          2    1    1    2  501    0  0.25519254710E+02 -0.11885832125E+03 -0.27981697387E+02  0.12474577460E+03  0.00000000000E+00 0. -1.
          1    1    1    2  502    0  0.70510952767E+02 -0.11512022079E+03  0.24024185062E+04  0.24062084570E+04  0.00000000000E+00 0. -1.
         22    1    3    3    0    0 -0.40751025317E+02  0.17671275657E+03  0.77465267116E+03  0.79559713759E+03  0.00000000000E+00 0. -1.
         22    1    3    3    0    0 -0.55279182160E+02  0.57265785468E+02  0.81675716268E+03  0.82062623706E+03  0.00000000000E+00 0. -1.
</event>
<event>
 7    1  0.6315518E-006  0.5515612E+02  0.7818608E-02  0.1425034E+00
          2   -1    0    0  502    0  0.00000000000E+00  0.00000000000E+00  0.66524355335E+03  0.66524355335E+03  0.00000000000E+00 0. -1.
          1   -1    0    0  501    0 -0.00000000000E+00 -0.00000000000E+00 -0.42546435288E+03  0.42546435288E+03  0.00000000000E+00 0. -1.
         25    2    1    2    0    0 -0.27198760120E+02 -0.24532125352E+02  0.39285510250E+02  0.13604767488E+03  0.12499608313E+03 0.  0.
          2    1    1    2  501    0  0.51448965590E+02 -0.22380064532E+02 -0.37377804735E+03  0.37796546407E+03  0.00000000000E+00 0. -1.
          1    1    1    2  502    0 -0.24250205470E+02  0.46912189884E+02  0.57427173758E+03  0.57669476728E+03  0.00000000000E+00 0. -1.
         22    1    3    3    0    0 -0.21260383627E+02  0.75741891729E+01  0.80421648055E+02  0.83528520456E+02  0.00000000000E+00 0. -1.
         22    1    3    3    0    0 -0.59383764928E+01 -0.32106314525E+02 -0.41136137805E+02  0.52519154422E+02  0.00000000000E+00 0. -1.
</event>
<event>
 7    1  0.6315518E-006  0.7393496E+02  0.7818608E-02  0.1439123E+00
          2   -1    0    0  502    0  0.00000000000E+00  0.00000000000E+00  0.10984525893E+04  0.10984525893E+04  0.00000000000E+00 0. -1.
          1   -1    0    0  501    0 -0.00000000000E+00 -0.00000000000E+00 -0.55595629679E+03  0.55595629679E+03  0.00000000000E+00 0. -1.
         25    2    1    2    0    0  0.78237560249E+02 -0.52197562373E+02  0.81207184236E+02  0.17622392818E+03  0.12495825199E+03 0.  0.
          2    1    1    2  501    0 -0.34711027854E+02 -0.70344268434E+01 -0.50643569162E+03  0.50767257988E+03  0.00000000000E+00 0. -1.
          1    1    1    2  502    0 -0.43526532394E+02  0.59231989217E+02  0.96772479988E+03  0.97051237801E+03  0.00000000000E+00 0. -1.
         22    1    3    3    0    0  0.54934943307E+02  0.16971338516E+01  0.10039235471E+03  0.11445240558E+03  0.00000000000E+00 0.  1.
         22    1    3    3    0    0  0.23302616942E+02 -0.53894696225E+02 -0.19185170476E+02  0.61771522595E+02  0.00000000000E+00 0.  1.
</event>
<event>
 7    1  0.6315518E-006  0.9247383E+02  0.7818608E-02  0.1309574E+00
          2   -1    0    0  502    0  0.00000000000E+00  0.00000000000E+00  0.16994886748E+04  0.16994886748E+04  0.00000000000E+00 0. -1.
          1   -1    0    0  501    0 -0.00000000000E+00 -0.00000000000E+00 -0.50162923722E+02  0.50162923722E+02  0.00000000000E+00 0. -1.
         25    2    1    2    0    0 -0.20373768547E+02 -0.52254132223E+02  0.19866623154E+03  0.24132678174E+03  0.12499903699E+03 0.  0.
          2    1    1    2  501    0  0.78158536296E+02 -0.26030432372E+02  0.35298611356E+02  0.89623279169E+02  0.00000000000E+00 0. -1.
          1    1    1    2  502    0 -0.57784767749E+02  0.78284564596E+02  0.14153609082E+04  0.14187015376E+04  0.00000000000E+00 0. -1.
         22    1    3    3    0    0  0.20134393709E+02 -0.52614059639E+02  0.22664561025E+02  0.60723269084E+02  0.00000000000E+00 0. -1.
         22    1    3    3    0    0 -0.40508162256E+02  0.35992741625E+00  0.17600167052E+03  0.18060351265E+03  0.00000000000E+00 0. -1.
</event>
<event>
 7    1  0.6315518E-006  0.6735757E+02  0.7818608E-02  0.1384308E+00
          2   -1    0    0  502    0  0.00000000000E+00  0.00000000000E+00  0.23276173135E+03  0.23276173135E+03  0.00000000000E+00 0. -1.
          1   -1    0    0  501    0 -0.00000000000E+00 -0.00000000000E+00 -0.33272254163E+03  0.33272254163E+03  0.00000000000E+00 0. -1.
         25    2    1    2    0    0  0.16174573813E+02  0.28300443232E+02 -0.91409257784E+02  0.15825000025E+03  0.12499951298E+03 0.  0.
          2    1    1    2  501    0  0.22419767309E+02 -0.73678870347E+02 -0.19597866168E+03  0.21056794090E+03  0.00000000000E+00 0. -1.
          1    1    1    2  502    0 -0.38594341122E+02  0.45378427115E+02  0.18742710919E+03  0.19666633182E+03  0.00000000000E+00 0. -1.
         22    1    3    3    0    0  0.32806015539E+02 -0.49342585402E+01  0.21398932393E+02  0.39477789584E+02  0.00000000000E+00 0. -1.
         22    1    3    3    0    0 -0.16631441726E+02  0.33234701772E+02 -0.11280819018E+03  0.11877221067E+03  0.00000000000E+00 0. -1.
</event>
<event>
 7    1  0.6315518E-006  0.1226998E+03  0.7818608E-02  0.1273269E+00
          2   -1    0    0  502    0  0.00000000000E+00  0.00000000000E+00  0.37972784560E+03  0.37972784560E+03  0.00000000000E+00 0. -1.
          1   -1    0    0  501    0 -0.00000000000E+00 -0.00000000000E+00 -0.81709915113E+03  0.81709915113E+03  0.00000000000E+00 0. -1.
         25    2    1    2    0    0  0.16632777084E+03 -0.11784779876E+03 -0.21363976114E+03  0.32065646700E+03  0.12500236503E+03 0.  0.
          2    1    1    2  501    0 -0.79400000576E+02  0.35965692641E+02 -0.53537787583E+03  0.54242728643E+03  0.00000000000E+00 0. -1.
          1    1    1    2  502    0 -0.86927770268E+02  0.81882106121E+02  0.31164633144E+03  0.33374324330E+03  0.00000000000E+00 0. -1.
         22    1    3    3    0    0 -0.81029836899E+01 -0.10485278086E+02  0.10587418093E+02  0.16961510048E+02  0.00000000000E+00 0.  1.
         22    1    3    3    0    0  0.17443075453E+03 -0.10736252068E+03 -0.22422717923E+03  0.30369495696E+03  0.00000000000E+00 0.  1.
</event>
<event>
 7    1  0.6315518E-006  0.4436529E+02  0.7818608E-02  0.1498571E+00
          2   -1    0    0  502    0  0.00000000000E+00  0.00000000000E+00  0.17587944275E+04  0.17587944275E+04  0.00000000000E+00 0. -1.
          1   -1    0    0  501    0 -0.00000000000E+00 -0.00000000000E+00 -0.18963832227E+03  0.18963832227E+03  0.00000000000E+00 0. -1.
         25    2    1    2    0    0 -0.44740955592E+02 -0.34332572455E+01  0.45648724535E+02  0.14043700563E+03  0.12500082454E+03 0.  0.
          2    1    1    2  501    0  0.14243101606E+02  0.35792560378E+02 -0.13933336070E+03  0.14456057113E+03  0.00000000000E+00 0. -1.
          1    1    1    2  502    0  0.30497853986E+02 -0.32359303133E+02  0.16628407414E+04  0.16634351730E+04  0.00000000000E+00 0. -1.
         22    1    3    3    0    0 -0.51478992456E+02 -0.71352968383E+01  0.85388188198E+02  0.99960701323E+02  0.00000000000E+00 0. -1.
         22    1    3    3    0    0  0.67380368645E+01  0.37020395928E+01 -0.39739463662E+02  0.40476304304E+02  0.00000000000E+00 0. -1.
</event>
<event>
 7    1  0.6315518E-006  0.1101756E+03  0.7818608E-02  0.1362708E+00
          2   -1    0    0  502    0  0.00000000000E+00  0.00000000000E+00  0.79597420655E+03  0.79597420655E+03  0.00000000000E+00 0. -1.
          1   -1    0    0  501    0 -0.00000000000E+00 -0.00000000000E+00 -0.45125650180E+03  0.45125650180E+03  0.00000000000E+00 0. -1.
         25    2    1    2    0    0  0.89966087313E+02 -0.81107394650E+02 -0.64413363811E+02  0.18559624673E+03  0.12499831611E+03 0.  0.
          2    1    1    2  501    0  0.12767828110E+02  0.41594517124E+02 -0.32065542329E+03  0.32359391492E+03  0.00000000000E+00 0. -1.
          1    1    1    2  502    0 -0.10273391542E+03  0.39512877526E+02  0.72978649186E+03  0.73804054670E+03  0.00000000000E+00 0. -1.
         22    1    3    3    0    0  0.76133561088E+02 -0.64766991902E+01 -0.77206704238E+02  0.10862385528E+03  0.00000000000E+00 0.  1.
         22    1    3    3    0    0  0.13832526225E+02 -0.74630695460E+02  0.12793340427E+02  0.76972391452E+02  0.00000000000E+00 0.  1.
</event>
<event>
 7    1  0.6315518E-006  0.4474402E+02  0.7818608E-02  0.1492092E+00
          2   -1    0    0  502    0  0.00000000000E+00  0.00000000000E+00  0.20057608061E+04  0.20057608061E+04  0.00000000000E+00 0. -1.
          1   -1    0    0  501    0 -0.00000000000E+00 -0.00000000000E+00 -0.20819572223E+03  0.20819572223E+03  0.00000000000E+00 0. -1.
         25    2    1    2    0    0 -0.78993368407E+02  0.26530631679E+02  0.13236383970E+04  0.13321368949E+04  0.12500509598E+03 0.  0.
          2    1    1    2  501    0  0.44113499192E+02 -0.70595952305E+01 -0.20090220200E+03  0.20580945912E+03  0.00000000000E+00 0. -1.
          1    1    1    2  502    0  0.34879869215E+02 -0.19471036448E+02  0.67482888884E+03  0.67601017429E+03  0.00000000000E+00 0. -1.
         22    1    3    3    0    0 -0.98574168205E+02  0.26172673868E+01  0.12202438829E+04  0.12242217325E+04  0.00000000000E+00 0. -1.
         22    1    3    3    0    0  0.19580799798E+02  0.23913364292E+02  0.10339451416E+03  0.10791516238E+03  0.00000000000E+00 0. -1.
</event>
<event>
 7    1  0.6315518E-006  0.6055497E+02  0.7818608E-02  0.1477227E+00
          2   -1    0    0  502    0  0.00000000000E+00  0.00000000000E+00  0.12438709768E+04  0.12438709768E+04  0.00000000000E+00 0. -1.
          1   -1    0    0  501    0 -0.00000000000E+00 -0.00000000000E+00 -0.19709391549E+02  0.19709391549E+02  0.00000000000E+00 0. -1.
         25    2    1    2    0    0  0.29112272847E+02  0.14713647389E+02  0.31167141371E+03  0.33738608337E+03  0.12500513301E+03 0.  0.
          2    1    1    2  501    0  0.17865610639E+02  0.27462151020E+02  0.41286000102E+02  0.52705631450E+02  0.00000000000E+00 0. -1.
          1    1    1    2  502    0 -0.46977883486E+02 -0.42175798409E+02  0.87120417141E+03  0.87348865350E+03  0.00000000000E+00 0. -1.
         22    1    3    3    0    0  0.18705032240E+02 -0.44767210061E+02  0.23413980345E+03  0.23911384085E+03  0.00000000000E+00 0. -1.
         22    1    3    3    0    0  0.10407240607E+02  0.59480857450E+02  0.77531610262E+02  0.98272242520E+02  0.00000000000E+00 0. -1.
</event>
<event>
 7    1  0.6315518E-006  0.7142616E+02  0.7818608E-02  0.1442392E+00
          2   -1    0    0  502    0  0.00000000000E+00  0.00000000000E+00  0.11649566334E+03  0.11649566334E+03  0.00000000000E+00 0. -1.
          1   -1    0    0  501    0 -0.00000000000E+00 -0.00000000000E+00 -0.16385351089E+04  0.16385351089E+04  0.00000000000E+00 0. -1.
         25    2    1    2    0    0 -0.35705982501E+02 -0.91585698880E+02 -0.51184148934E+03  0.53597562287E+03  0.12500120270E+03 0.  0.
          2    1    1    2  501    0  0.81274705589E+01  0.68795060463E+02 -0.11104509598E+04  0.11126096127E+04  0.00000000000E+00 0. -1.
          1    1    1    2  502    0  0.27578511942E+02  0.22790638417E+02  0.10025300366E+03  0.10644553660E+03  0.00000000000E+00 0. -1.
         22    1    3    3    0    0 -0.69980626965E+02 -0.42691454380E+02 -0.40832458615E+03  0.41647186709E+03  0.00000000000E+00 0.  1.
         22    1    3    3    0    0  0.34274644464E+02 -0.48894244500E+02 -0.10351690319E+03  0.11950375577E+03  0.00000000000E+00 0.  1.
</event>
<event>
 7    1  0.6315518E-006  0.9125026E+02  0.7818608E-02  0.1473191E+00
          2   -1    0    0  502    0  0.00000000000E+00  0.00000000000E+00  0.17426378816E+04  0.17426378816E+04  0.00000000000E+00 0. -1.
          1   -1    0    0  501    0 -0.00000000000E+00 -0.00000000000E+00 -0.19635543209E+03  0.19635543209E+03  0.00000000000E+00 0. -1.
         25    2    1    2    0    0 -0.10195622687E+03  0.56675657231E+01  0.30063261760E+03  0.34122008221E+03  0.12499592091E+03 0.  0.
          2    1    1    2  501    0  0.12287124072E+02 -0.18698724757E+02 -0.17390049295E+03  0.17533395898E+03  0.00000000000E+00 0. -1.
          1    1    1    2  502    0  0.89669102797E+02  0.13031159034E+02  0.14195503249E+04  0.14224392725E+04  0.00000000000E+00 0. -1.
         22    1    3    3    0    0 -0.54450799662E+02  0.35985449868E+02  0.44580672412E+02  0.79039727598E+02  0.00000000000E+00 0.  1.
         22    1    3    3    0    0 -0.47505427207E+02 -0.30317884145E+02  0.25605194518E+03  0.26218035461E+03  0.00000000000E+00 0.  1.
</event>
<event>
 7    1  0.6315518E-006  0.1691761E+03  0.7818608E-02  0.1266728E+00
          2   -1    0    0  502    0  0.00000000000E+00  0.00000000000E+00  0.33874630297E+04  0.33874630297E+04  0.00000000000E+00 0. -1.
          1   -1    0    0  501    0 -0.00000000000E+00 -0.00000000000E+00 -0.54003782824E+03  0.54003782824E+03  0.00000000000E+00 0. -1.
         25    2    1    2    0    0 -0.14801776193E+02  0.10914262023E+03 -0.10422334787E+02  0.16692779677E+03  0.12500024057E+03 0.  0.
          2    1    1    2  501    0 -0.43739937994E+02  0.51210262906E+02 -0.44663510368E+03  0.45168416957E+03  0.00000000000E+00 0. -1.
          1    1    1    2  502    0  0.58541714187E+02 -0.16035288314E+03  0.33044826399E+04  0.33088888916E+04  0.00000000000E+00 0. -1.
         22    1    3    3    0    0  0.25929046687E+02  0.28737180240E+02 -0.54298893609E+02  0.66682162813E+02  0.00000000000E+00 0.  1.
         22    1    3    3    0    0 -0.40730822879E+02  0.80405439994E+02  0.43876558822E+02  0.10024563396E+03  0.00000000000E+00 0.  1.
</event>
<event>
 7    1  0.6315518E-006  0.6565997E+02  0.7818608E-02  0.1380947E+00
          2   -1    0    0  502    0  0.00000000000E+00  0.00000000000E+00  0.76036325823E+02  0.76036325823E+02  0.00000000000E+00 0. -1.
          1   -1    0    0  501    0 -0.00000000000E+00 -0.00000000000E+00 -0.16436142996E+04  0.16436142996E+04  0.00000000000E+00 0. -1.
         25    2    1    2    0    0  0.52383502872E+00  0.58026007393E+01 -0.21333461409E+03  0.24732714589E+03  0.12500045978E+03 0.  0.
          2    1    1    2  501    0 -0.71226149354E+01 -0.68257985524E+02 -0.13954967126E+04  0.13971832232E+04  0.00000000000E+00 0. -1.
          1    1    1    2  502    0  0.65987799067E+01  0.62455384785E+02  0.41253352977E+02  0.75140256299E+02  0.00000000000E+00 0. -1.
         22    1    3    3    0    0  0.29186403069E+02  0.47825850317E+02 -0.46188652984E+02  0.72612325036E+02  0.00000000000E+00 0. -1.
         22    1    3    3    0    0 -0.28662568040E+02 -0.42023249578E+02 -0.16714596111E+03  0.17471482085E+03  0.00000000000E+00 0. -1.
</event>
<event>
 7    1  0.6315518E-006  0.8957964E+02  0.7818608E-02  0.1464913E+00
          2   -1    0    0  502    0  0.00000000000E+00  0.00000000000E+00  0.20539279397E+04  0.20539279397E+04  0.00000000000E+00 0. -1.
          1   -1    0    0  501    0 -0.00000000000E+00 -0.00000000000E+00 -0.21110002496E+03  0.21110002496E+03  0.00000000000E+00 0. -1.
         25    2    1    2    0    0 -0.68349201568E+02 -0.31946709733E+02  0.12400098477E+04  0.12485758037E+04  0.12499963834E+03 0.  0.
          2    1    1    2  501    0  0.70020942760E+02  0.56074692728E+02 -0.19689805590E+03  0.21637039540E+03  0.00000000000E+00 0. -1.
          1    1    1    2  502    0 -0.16717411923E+01 -0.24127982994E+02  0.79971612291E+03  0.80008176553E+03  0.00000000000E+00 0. -1.
         22    1    3    3    0    0 -0.18084487459E+02  0.70989281294E+01  0.10024199511E+04  0.10026081996E+04  0.00000000000E+00 0.  1.
         22    1    3    3    0    0 -0.50264714109E+02 -0.39045637863E+02  0.23758989660E+03  0.24596760414E+03  0.00000000000E+00 0.  1.
</event>
<event>
 7    1  0.6315518E-006  0.7120352E+02  0.7818608E-02  0.1375748E+00
          2   -1    0    0  502    0  0.00000000000E+00  0.00000000000E+00  0.41471183271E+03  0.41471183271E+03  0.00000000000E+00 0. -1.
          1   -1    0    0  501    0 -0.00000000000E+00 -0.00000000000E+00 -0.43388939603E+03  0.43388939603E+03  0.00000000000E+00 0. -1.
         25    2    1    2    0    0 -0.81552630424E+01  0.20014983815E+02  0.17623620012E+03  0.21714278525E+03  0.12499873225E+03 0.  0.
          2    1    1    2  501    0 -0.69458246477E+02 -0.15668214525E+02 -0.40328773365E+03  0.40952525815E+03  0.00000000000E+00 0. -1.
          1    1    1    2  502    0  0.77613509519E+02 -0.43467692901E+01  0.20787397021E+03  0.22193318533E+03  0.00000000000E+00 0. -1.
         22    1    3    3    0    0 -0.29848078933E+01  0.43343296493E+02  0.44168055213E+01  0.43669882070E+02  0.00000000000E+00 0.  1.
         22    1    3    3    0    0 -0.51704551490E+01 -0.23328312678E+02  0.17181939460E+03  0.17347290318E+03  0.00000000000E+00 0.  1.
</event>
<event>
 7    1  0.6315518E-006  0.6422333E+02  0.7818608E-02  0.1402532E+00
          2   -1    0    0  502    0  0.00000000000E+00  0.00000000000E+00  0.46078707736E+04  0.46078707736E+04  0.00000000000E+00 0. -1.
          1   -1    0    0  501    0 -0.00000000000E+00 -0.00000000000E+00 -0.31303213595E+03  0.31303213595E+03  0.00000000000E+00 0. -1.
         25    2    1    2    0    0 -0.13548610293E+02 -0.64250243937E+01  0.36812137560E+02  0.13116965170E+03  0.12500199309E+03 0.  0.
          2    1    1    2  501    0 -0.48635692459E+02  0.23480733762E+02 -0.26287825440E+03  0.26836868684E+03  0.00000000000E+00 0. -1.
          1    1    1    2  502    0  0.62184302752E+02 -0.17055709368E+02  0.45209047545E+04  0.45213645711E+04  0.00000000000E+00 0. -1.
         22    1    3    3    0    0  0.33003506263E+02 -0.49516156293E+02  0.31968383340E+02  0.67550415935E+02  0.00000000000E+00 0. -1.
         22    1    3    3    0    0 -0.46552116556E+02  0.43091131899E+02  0.48437542205E+01  0.63619235764E+02  0.00000000000E+00 0. -1.
</event>
<event>
 7    1  0.6315518E-006  0.1536558E+03  0.7818608E-02  0.1225708E+00
          2   -1    0    0  502    0  0.00000000000E+00  0.00000000000E+00  0.28984756308E+04  0.28984756308E+04  0.00000000000E+00 0. -1.
          1   -1    0    0  501    0 -0.00000000000E+00 -0.00000000000E+00 -0.10440279448E+04  0.10440279448E+04  0.00000000000E+00 0. -1.
         25    2    1    2    0    0 -0.39045549735E+02 -0.59739075990E+02  0.30871321135E+03  0.34061981673E+03  0.12499880211E+03 0.  0.
          2    1    1    2  501    0 -0.11004402317E+03 -0.20841387279E+02 -0.10222229105E+04  0.10283402789E+04  0.00000000000E+00 0. -1.
          1    1    1    2  502    0  0.14908957290E+03  0.80580463269E+02  0.25679573851E+04  0.25735434800E+04  0.00000000000E+00 0. -1.
         22    1    3    3    0    0 -0.39564538682E+02 -0.97810989450E+02  0.23701419293E+03  0.25943798879E+03  0.00000000000E+00 0. -1.
         22    1    3    3    0    0  0.51898894760E+00  0.38071913460E+02  0.71699018428E+02  0.81181827939E+02  0.00000000000E+00 0. -1.
</event>
<event>
 7    1  0.6315518E-006  0.3897891E+02  0.7818608E-02  0.1530732E+00
          2   -1    0    0  502    0  0.00000000000E+00  0.00000000000E+00  0.76210492361E+02  0.76210492361E+02  0.00000000000E+00 0. -1.
          1   -1    0    0  501    0 -0.00000000000E+00 -0.00000000000E+00 -0.95359692554E+03  0.95359692554E+03  0.00000000000E+00 0. -1.
         25    2    1    2    0    0 -0.14009059446E+02  0.71883341653E+02 -0.20400434254E+03  0.25021203894E+03  0.12499929640E+03 0.  0.
          2    1    1    2  501    0  0.75522174965E+01 -0.34488265190E+02 -0.71922079128E+03  0.72008681631E+03  0.00000000000E+00 0. -1.
          1    1    1    2  502    0  0.64568419496E+01 -0.37395076462E+02  0.45838700641E+02  0.59508562645E+02  0.00000000000E+00 0. -1.
         22    1    3    3    0    0 -0.21333595507E+02 -0.32853282422E+02 -0.44875695005E+02  0.59567511828E+02  0.00000000000E+00 0.  1.
         22    1    3    3    0    0  0.73245360612E+01  0.10473662407E+03 -0.15912864754E+03  0.19064452711E+03  0.00000000000E+00 0.  1.
</event>
<event>
 7    1  0.6315518E-006  0.6545299E+02  0.7818608E-02  0.1477526E+00
          2   -1    0    0  502    0  0.00000000000E+00  0.00000000000E+00  0.14080263862E+03  0.14080263862E+03  0.00000000000E+00 0. -1.
          1   -1    0    0  501    0 -0.00000000000E+00 -0.00000000000E+00 -0.62215732964E+03  0.62215732964E+03  0.00000000000E+00 0. -1.
         25    2    1    2    0    0  0.47368875103E+02 -0.10662368748E+01 -0.19926857015E+03  0.23995538377E+03  0.12500270382E+03 0.  0.
          2    1    1    2  501    0  0.13762232204E+02  0.26934034367E+02 -0.39277507261E+03  0.39393793788E+03  0.00000000000E+00 0. -1.
          1    1    1    2  502    0 -0.61131107307E+02 -0.25867797492E+02  0.11068895174E+03  0.12906664660E+03  0.00000000000E+00 0. -1.
         22    1    3    3    0    0  0.37033594141E+02  0.60124790859E+02 -0.91285860186E+02  0.11541051010E+03  0.00000000000E+00 0.  1.
         22    1    3    3    0    0  0.10335280962E+02 -0.61191027734E+02 -0.10798270996E+03  0.12454487367E+03  0.00000000000E+00 0.  1.
</event>
<event>
 7    1  0.6315518E-006  0.9946663E+02  0.7818608E-02  0.1384554E+00
          2   -1    0    0  502    0  0.00000000000E+00  0.00000000000E+00  0.19246999843E+04  0.19246999843E+04  0.00000000000E+00 0. -1.
          1   -1    0    0  501    0 -0.00000000000E+00 -0.00000000000E+00 -0.33395042923E+03  0.33395042923E+03  0.00000000000E+00 0. -1.
         25    2    1    2    0    0 -0.12117009773E+03  0.39973870665E+02  0.14563753428E+04  0.14672879539E+04  0.12499879066E+03 0.  0.
          2    1    1    2  501    0  0.99144706862E+02 -0.62723522675E+01 -0.32007296919E+03  0.33513537698E+03  0.00000000000E+00 0. -1.
          1    1    1    2  502    0  0.22025390870E+02 -0.33701518397E+02  0.45444718149E+03  0.45622708265E+03  0.00000000000E+00 0. -1.
         22    1    3    3    0    0 -0.50933907337E+02  0.74431868778E+02  0.10179145668E+04  0.10219023590E+04  0.00000000000E+00 0.  1.
         22    1    3    3    0    0 -0.70236190395E+02 -0.34457998114E+02  0.43846077596E+03  0.44538559488E+03  0.00000000000E+00 0.  1.
</event>
<event>
 7    1  0.6315518E-006  0.3627149E+02  0.7818608E-02  0.1590454E+00
          2   -1    0    0  502    0  0.00000000000E+00  0.00000000000E+00  0.11651272429E+04  0.11651272429E+04  0.00000000000E+00 0. -1.
          1   -1    0    0  501    0 -0.00000000000E+00 -0.00000000000E+00 -0.39682854002E+03  0.39682854002E+03  0.00000000000E+00 0. -1.
         25    2    1    2    0    0  0.83000142726E+01  0.42549973993E+02  0.12815600593E+03  0.18419543765E+03  0.12499842748E+03 0.  0.
          2    1    1    2  501    0 -0.26873560703E+02 -0.24373120488E+02 -0.36774870301E+03  0.36953395762E+03  0.00000000000E+00 0. -1.
          1    1    1    2  502    0  0.18573546431E+02 -0.18176853505E+02  0.10078914000E+04  0.10082263877E+04  0.00000000000E+00 0. -1.
         22    1    3    3    0    0  0.63153046194E+02  0.25850140245E+02  0.40198169320E+02  0.79198673037E+02  0.00000000000E+00 0. -1.
         22    1    3    3    0    0 -0.54853031921E+02  0.16699833748E+02  0.87957836612E+02  0.10499676461E+03  0.00000000000E+00 0. -1.
</event>
<event>
 7    1  0.6315518E-006  0.1025794E+03  0.7818608E-02  0.1352836E+00
          2   -1    0    0  502    0  0.00000000000E+00  0.00000000000E+00  0.18739613414E+04  0.18739613414E+04  0.00000000000E+00 0. -1.
          1   -1    0    0  501    0 -0.00000000000E+00 -0.00000000000E+00 -0.34753145692E+04  0.34753145692E+04  0.00000000000E+00 0. -1.
         25    2    1    2    0    0 -0.39755954082E+02 -0.61450062154E+02  0.46707595893E+03  0.48902135380E+03  0.12500114812E+03 0.  0.
          2    1    1    2  501    0  0.20986907981E+02 -0.46249406667E+02 -0.34620148906E+04  0.34623874076E+04  0.00000000000E+00 0. -1.
          1    1    1    2  502    0  0.18769046101E+02  0.10769946882E+03  0.13935857039E+04  0.13978671491E+04  0.00000000000E+00 0. -1.
         22    1    3    3    0    0  0.19624322141E+02  0.16526584370E+02  0.24422927717E+03  0.24557317002E+03  0.00000000000E+00 0. -1.
         22    1    3    3    0    0 -0.59380276223E+02 -0.77976646524E+02  0.22284668177E+03  0.24344818377E+03  0.00000000000E+00 0. -1.
</event>
<event>
 7    1  0.6315518E-006  0.1218941E+03  0.7818608E-02  0.1318080E+00
          2   -1    0    0  502    0  0.00000000000E+00  0.00000000000E+00  0.79528737398E+03  0.79528737398E+03  0.00000000000E+00 0. -1.
          1   -1    0    0  501    0 -0.00000000000E+00 -0.00000000000E+00 -0.58800486455E+03  0.58800486455E+03  0.00000000000E+00 0. -1.
         25    2    1    2    0    0  0.12947715320E+03 -0.68874649193E+02  0.23936730259E+03  0.30729545800E+03  0.12500296979E+03 0.  0.
          2    1    1    2  501    0 -0.12099794581E+03  0.11618476083E+02 -0.54572857473E+03  0.55910210977E+03  0.00000000000E+00 0. -1.
          1    1    1    2  502    0 -0.84792073889E+01  0.57256173111E+02  0.51364378157E+03  0.51689467077E+03  0.00000000000E+00 0. -1.
         22    1    3    3    0    0  0.48530875872E+02 -0.55125228710E+02  0.20594300321E+03  0.21864710683E+03  0.00000000000E+00 0. -1.
         22    1    3    3    0    0  0.80946277328E+02 -0.13749420483E+02  0.33424299378E+02  0.88648351173E+02  0.00000000000E+00 0. -1.
</event>
<event>
 7    1  0.6315518E-006  0.2796334E+03  0.7818608E-02  0.1265228E+00
          2   -1    0    0  502    0  0.00000000000E+00  0.00000000000E+00  0.26733848332E+03  0.26733848332E+03  0.00000000000E+00 0. -1.
          1   -1    0    0  501    0 -0.00000000000E+00 -0.00000000000E+00 -0.17667054898E+04  0.17667054898E+04  0.00000000000E+00 0. -1.
         25    2    1    2    0    0 -0.12497962766E+03 -0.28667693718E+03 -0.37298512763E+03  0.50255188055E+03  0.12504764520E+03 0.  0.
          2    1    1    2  501    0  0.71862073237E+01  0.40714327304E+02 -0.12366413001E+04  0.12373322121E+04  0.00000000000E+00 0. -1.
          1    1    1    2  502    0  0.11779342034E+03  0.24596260987E+03  0.11025942121E+03  0.29415988050E+03  0.00000000000E+00 0. -1.
         22    1    3    3    0    0 -0.62474027648E+02 -0.15881330571E+03 -0.10857324288E+03  0.20226917529E+03  0.00000000000E+00 0.  1.
         22    1    3    3    0    0 -0.62505600011E+02 -0.12786363147E+03 -0.26441188475E+03  0.30028270527E+03  0.00000000000E+00 0.  1.
</event>
<event>
 7    1  0.6315518E-006  0.7637988E+02  0.7818608E-02  0.1395625E+00
          2   -1    0    0  502    0  0.00000000000E+00  0.00000000000E+00  0.34700608765E+03  0.34700608765E+03  0.00000000000E+00 0. -1.
          1   -1    0    0  501    0 -0.00000000000E+00 -0.00000000000E+00 -0.58778798124E+03  0.58778798124E+03  0.00000000000E+00 0. -1.
         25    2    1    2    0    0 -0.42033565366E+02 -0.51364563253E+02 -0.21670362242E+03  0.25882516633E+03  0.12499947113E+03 0.  0.
          2    1    1    2  501    0 -0.33002425331E+02  0.34809768772E+02 -0.34380658503E+03  0.34713664167E+03  0.00000000000E+00 0. -1.
          1    1    1    2  502    0  0.75035990697E+02  0.16554794481E+02  0.31972831385E+03  0.32883226089E+03  0.00000000000E+00 0. -1.
         22    1    3    3    0    0  0.43296518577E+02 -0.32353379499E+02 -0.79279543894E+02  0.95950902893E+02  0.00000000000E+00 0.  1.
         22    1    3    3    0    0 -0.85330083943E+02 -0.19011183754E+02 -0.13742407852E+03  0.16287426344E+03  0.00000000000E+00 0.  1.
</event>
<event>
 7    1  0.6315518E-006  0.1016818E+03  0.7818608E-02  0.1336965E+00
          2   -1    0    0  502    0  0.00000000000E+00  0.00000000000E+00  0.26985442458E+03  0.26985442458E+03  0.00000000000E+00 0. -1.
          1   -1    0    0  501    0 -0.00000000000E+00 -0.00000000000E+00 -0.18042958283E+04  0.18042958283E+04  0.00000000000E+00 0. -1.
         25    2    1    2    0    0 -0.41558285844E+02 -0.14967862265E+03 -0.17062243957E+03  0.26242474801E+03  0.12499580106E+03 0.  0.
          2    1    1    2  501    0  0.28098335579E+02  0.51569500869E+02 -0.15762514984E+04  0.15773451481E+04  0.00000000000E+00 0. -1.
          1    1    1    2  502    0  0.13459950264E+02  0.98109121782E+02  0.21243253427E+03  0.23438035680E+03  0.00000000000E+00 0. -1.
         22    1    3    3    0    0  0.42469309759E+01 -0.83658726843E+00 -0.84219315609E+02  0.84330477424E+02  0.00000000000E+00 0.  1.
         22    1    3    3    0    0 -0.45805216820E+02 -0.14884203538E+03 -0.86403123964E+02  0.17809427059E+03  0.00000000000E+00 0.  1.
</event>
<event>
 7    1  0.6315518E-006  0.8050415E+02  0.7818608E-02  0.1386480E+00
          2   -1    0    0  502    0  0.00000000000E+00  0.00000000000E+00  0.40876951589E+02  0.40876951589E+02  0.00000000000E+00 0. -1.
          1   -1    0    0  501    0 -0.00000000000E+00 -0.00000000000E+00 -0.41549963224E+04  0.41549963224E+04  0.00000000000E+00 0. -1.
         25    2    1    2    0    0 -0.10107318542E+03 -0.47505005941E+02 -0.68610299557E+03  0.70628010318E+03  0.12498699619E+03 0.  0.
          2    1    1    2  501    0  0.22384749340E+02  0.43559915191E+02 -0.34079351336E+04  0.34082870211E+04  0.00000000000E+00 0. -1.
          1    1    1    2  502    0  0.78688436076E+02  0.39450907504E+01 -0.20081241596E+02  0.81306149688E+02  0.00000000000E+00 0. -1.
         22    1    3    3    0    0  0.13254140701E+02  0.24414254432E+02 -0.19395573694E+03  0.19593508098E+03  0.00000000000E+00 0.  1.
         22    1    3    3    0    0 -0.11432732612E+03 -0.71919260374E+02 -0.49214725863E+03  0.51034502220E+03  0.00000000000E+00 0.  1.
</event>
<event>
 7    1  0.6315518E-006  0.9961384E+02  0.7818608E-02  0.1302451E+00
          2   -1    0    0  502    0  0.00000000000E+00  0.00000000000E+00  0.33712011605E+03  0.33712011605E+03  0.00000000000E+00 0. -1.
          1   -1    0    0  501    0 -0.00000000000E+00 -0.00000000000E+00 -0.82478688074E+03  0.82478688074E+03  0.00000000000E+00 0. -1.
         25    2    1    2    0    0  0.13844370400E+03 -0.67101748479E+02 -0.22234369036E+03  0.29787747535E+03  0.12499987941E+03 0.  0.
          2    1    1    2  501    0 -0.80635370966E+02 -0.12597525432E+02 -0.55350669662E+03  0.55949121879E+03  0.00000000000E+00 0. -1.
          1    1    1    2  502    0 -0.57808333030E+02  0.79699273911E+02  0.28818362229E+03  0.30453830265E+03  0.00000000000E+00 0. -1.
         22    1    3    3    0    0  0.11642564942E+02 -0.63668187676E+02 -0.41157198525E+02  0.76701384804E+02  0.00000000000E+00 0. -1.
         22    1    3    3    0    0  0.12680113905E+03 -0.34335608033E+01 -0.18118649184E+03  0.22117609055E+03  0.00000000000E+00 0. -1.
</event>
<event>
 7    1  0.6315518E-006  0.3731886E+02  0.7818608E-02  0.1535537E+00
          2   -1    0    0  502    0  0.00000000000E+00  0.00000000000E+00  0.88021487710E+02  0.88021487710E+02  0.00000000000E+00 0. -1.
          1   -1    0    0  501    0 -0.00000000000E+00 -0.00000000000E+00 -0.16644091370E+04  0.16644091370E+04  0.00000000000E+00 0. -1.
         25    2    1    2    0    0  0.45880320604E+02  0.12664851618E+02 -0.35098076675E+03  0.37560332112E+03  0.12499981567E+03 0.  0.
          2    1    1    2  501    0 -0.14335161671E+02 -0.32728338769E+02 -0.12962407656E+04  0.12967331119E+04  0.00000000000E+00 0. -1.
          1    1    1    2  502    0 -0.31545158933E+02  0.20063487150E+02  0.70833883027E+02  0.80094191758E+02  0.00000000000E+00 0. -1.
         22    1    3    3    0    0 -0.22772739350E+02  0.48844362809E+02 -0.17873826703E+03  0.18668620071E+03  0.00000000000E+00 0.  1.
         22    1    3    3    0    0  0.68653059954E+02 -0.36179511191E+02 -0.17224249973E+03  0.18891712041E+03  0.00000000000E+00 0.  1.
</event>
<event>
 7    1  0.6315518E-006  0.6825325E+02  0.7818608E-02  0.1455329E+00
          2   -1    0    0  502    0  0.00000000000E+00  0.00000000000E+00  0.20081636325E+03  0.20081636325E+03  0.00000000000E+00 0. -1.
          1   -1    0    0  501    0 -0.00000000000E+00 -0.00000000000E+00 -0.61845443604E+03  0.61845443604E+03  0.00000000000E+00 0. -1.
         25    2    1    2    0    0  0.11022327596E+02  0.40293485233E+02 -0.17097796521E+03  0.21587380734E+03  0.12499191755E+03 0.  0.
          2    1    1    2  501    0 -0.37674881375E+02 -0.61453855484E+02 -0.42030875461E+03  0.42644509875E+03  0.00000000000E+00 0. -1.
          1    1    1    2  502    0  0.26652553778E+02  0.21160370252E+02  0.17364864704E+03  0.17695189321E+03  0.00000000000E+00 0. -1.
         22    1    3    3    0    0 -0.22609619120E+02  0.72187112105E+02 -0.14288891670E+03  0.16167688934E+03  0.00000000000E+00 0.  1.
         22    1    3    3    0    0  0.33631946716E+02 -0.31893626872E+02 -0.28089048511E+02  0.54196918005E+02  0.00000000000E+00 0.  1.
</event>
<event>
 7    1  0.6315518E-006  0.7371166E+02  0.7818608E-02  0.1356294E+00
          2   -1    0    0  502    0  0.00000000000E+00  0.00000000000E+00  0.25780708356E+02  0.25780708356E+02  0.00000000000E+00 0. -1.
          1   -1    0    0  501    0 -0.00000000000E+00 -0.00000000000E+00 -0.20346280768E+04  0.20346280768E+04  0.00000000000E+00 0. -1.
         25    2    1    2    0    0  0.79682552051E+01  0.33467982098E+02 -0.76321278015E+03  0.77414571818E+03  0.12499698510E+03 0.  0.
          2    1    1    2  501    0  0.47090663438E+02 -0.74451206307E+02 -0.12013582170E+04  0.12045837780E+04  0.00000000000E+00 0. -1.
          1    1    1    2  502    0 -0.55058918643E+02  0.40983224209E+02 -0.44276371290E+02  0.81679288950E+02  0.00000000000E+00 0. -1.
         22    1    3    3    0    0 -0.50580819430E+00 -0.47689529205E+02 -0.25448088191E+03  0.25891130971E+03  0.00000000000E+00 0. -1.
         22    1    3    3    0    0  0.84740633994E+01  0.81157511303E+02 -0.50873189823E+03  0.51523440847E+03  0.00000000000E+00 0. -1.
</event>
<event>
 7    1  0.6315518E-006  0.1144236E+03  0.7818608E-02  0.1291491E+00
          2   -1    0    0  502    0  0.00000000000E+00  0.00000000000E+00  0.14269669310E+04  0.14269669310E+04  0.00000000000E+00 0. -1.
          1   -1    0    0  501    0 -0.00000000000E+00 -0.00000000000E+00 -0.44992151732E+02  0.44992151732E+02  0.00000000000E+00 0. -1.
         25    2    1    2    0    0 -0.35704826024E+02 -0.39117832521E+02  0.50857936883E+03  0.52638675685E+03  0.12500001589E+03 0.  0.
          2    1    1    2  501    0  0.10665823901E+03  0.73031895089E+02  0.88294403477E+02  0.15654245218E+03  0.00000000000E+00 0. -1.
          1    1    1    2  502    0 -0.70953412984E+02 -0.33914062568E+02  0.78510100701E+03  0.78902987375E+03  0.00000000000E+00 0. -1.
         22    1    3    3    0    0 -0.41758442105E+02 -0.63788521604E+02  0.48736056820E+03  0.49328801568E+03  0.00000000000E+00 0. -1.
         22    1    3    3    0    0  0.60536160806E+01  0.24670689083E+02  0.21218800629E+02  0.33098741179E+02  0.00000000000E+00 0. -1.
</event>
<event>
 7    1  0.6315518E-006  0.6270256E+02  0.7818608E-02  0.1410211E+00
          2   -1    0    0  502    0  0.00000000000E+00  0.00000000000E+00  0.19324979137E+04  0.19324979137E+04  0.00000000000E+00 0. -1.
          1   -1    0    0  501    0 -0.00000000000E+00 -0.00000000000E+00 -0.72237965613E+03  0.72237965613E+03  0.00000000000E+00 0. -1.
         25    2    1    2    0    0  0.19478938368E+02  0.11206121393E+03  0.11817385654E+03  0.20622469992E+03  0.12500568700E+03 0.  0.
          2    1    1    2  501    0 -0.48818717730E+01 -0.62065440232E+02 -0.67654159951E+03  0.67940009377E+03  0.00000000000E+00 0. -1.
          1    1    1    2  502    0 -0.14597066595E+02 -0.49995773693E+02  0.17684860005E+04  0.17692527761E+04  0.00000000000E+00 0. -1.
         22    1    3    3    0    0  0.28319322812E+02 -0.10036029106E+01  0.82663095422E+02  0.87385231063E+02  0.00000000000E+00 0. -1.
         22    1    3    3    0    0 -0.88403844438E+01  0.11306481684E+03  0.35510761121E+02  0.11883946886E+03  0.00000000000E+00 0. -1.
</event>
<event>
 7    1  0.6315518E-006  0.5264663E+02  0.7818608E-02  0.1479255E+00
          2   -1    0    0  502    0  0.00000000000E+00  0.00000000000E+00  0.19246646878E+03  0.19246646878E+03  0.00000000000E+00 0. -1.
          1   -1    0    0  501    0 -0.00000000000E+00 -0.00000000000E+00 -0.46440266056E+03  0.46440266056E+03  0.00000000000E+00 0. -1.
         25    2    1    2    0    0 -0.19021499649E+02 -0.85339995646E+00 -0.80242053154E+02  0.14973641818E+03  0.12497864656E+03 0.  0.
          2    1    1    2  501    0 -0.30058032620E+02 -0.21825589470E+02 -0.34374978332E+03  0.34575100175E+03  0.00000000000E+00 0. -1.
          1    1    1    2  502    0  0.49079532269E+02  0.22678989427E+02  0.15205564469E+03  0.16138170941E+03  0.00000000000E+00 0. -1.
         22    1    3    3    0    0  0.25622007256E+02 -0.33695839254E+01  0.24648578289E+02  0.35712655507E+02  0.00000000000E+00 0. -1.
         22    1    3    3    0    0 -0.44643506906E+02  0.25161839690E+01 -0.10489063144E+03  0.11402376268E+03  0.00000000000E+00 0. -1.
</event>
<event>
 7    1  0.6315518E-006  0.8017431E+02  0.7818608E-02  0.1489068E+00
          2   -1    0    0  502    0  0.00000000000E+00  0.00000000000E+00  0.11097269401E+04  0.11097269401E+04  0.00000000000E+00 0. -1.
          1   -1    0    0  501    0 -0.00000000000E+00 -0.00000000000E+00 -0.14567105562E+03  0.14567105562E+03  0.00000000000E+00 0. -1.
         25    2    1    2    0    0  0.41186411330E+02 -0.44779306953E+02  0.12876367214E+03  0.18949285534E+03  0.12500380856E+03 0.  0.
          2    1    1    2  501    0 -0.62304558744E+02  0.53287756634E+02 -0.10057749535E+03  0.12975852812E+03  0.00000000000E+00 0. -1.
          1    1    1    2  502    0  0.21118147414E+02 -0.85084496808E+01  0.93586970775E+03  0.93614661231E+03  0.00000000000E+00 0. -1.
         22    1    3    3    0    0 -0.12386345325E+02  0.12734684993E+02  0.10626059528E+03  0.10773536032E+03  0.00000000000E+00 0. -1.
         22    1    3    3    0    0  0.53572756654E+02 -0.57513991946E+02  0.22503076852E+02  0.81757495026E+02  0.00000000000E+00 0. -1.
</event>
<event>
 7    1  0.6315518E-006  0.2394165E+03  0.7818608E-02  0.1245271E+00
          2   -1    0    0  502    0  0.00000000000E+00  0.00000000000E+00  0.87440629538E+03  0.87440629538E+03  0.00000000000E+00 0. -1.
          1   -1    0    0  501    0 -0.00000000000E+00 -0.00000000000E+00 -0.36933514235E+03  0.36933514235E+03  0.00000000000E+00 0. -1.
         25    2    1    2    0    0  0.27113933319E+03  0.90888627215E+02  0.11981302875E+03  0.33429961237E+03  0.12499515357E+03 0.  0.
          2    1    1    2  501    0 -0.47493418929E+02 -0.34738022396E+02 -0.23785858054E+03  0.24502869092E+03  0.00000000000E+00 0. -1.
          1    1    1    2  502    0 -0.22364591426E+03 -0.56150604819E+02  0.62311670482E+03  0.66441313444E+03  0.00000000000E+00 0. -1.
         22    1    3    3    0    0  0.23492368721E+03  0.67689955877E+02  0.14520841901E+03  0.28435286862E+03  0.00000000000E+00 0. -1.
         22    1    3    3    0    0  0.36215645980E+02  0.23198671338E+02 -0.25395390258E+02  0.49946743757E+02  0.00000000000E+00 0. -1.
</event>
<event>
 7    1  0.6315518E-006  0.7613823E+02  0.7818608E-02  0.1345898E+00
          2   -1    0    0  502    0  0.00000000000E+00  0.00000000000E+00  0.26667396137E+03  0.26667396137E+03  0.00000000000E+00 0. -1.
          1   -1    0    0  501    0 -0.00000000000E+00 -0.00000000000E+00 -0.19962759937E+03  0.19962759937E+03  0.00000000000E+00 0. -1.
         25    2    1    2    0    0  0.90409460297E+02  0.13909063784E+02 -0.11435878413E+02  0.15530761082E+03  0.12498936794E+03 0.  0.
          2    1    1    2  501    0 -0.59115707753E+02  0.51602844591E+02 -0.94831610622E+02  0.12308759014E+03  0.00000000000E+00 0. -1.
          1    1    1    2  502    0 -0.31293752544E+02 -0.65511908375E+02  0.17331385103E+03  0.18790635978E+03  0.00000000000E+00 0. -1.
         22    1    3    3    0    0  0.83395848388E+02  0.90553842688E+01  0.47065678290E+02  0.96187554213E+02  0.00000000000E+00 0. -1.
         22    1    3    3    0    0  0.70136119083E+01  0.48536795150E+01 -0.58501556702E+02  0.59120056609E+02  0.00000000000E+00 0. -1.
</event>
<event>
 7    1  0.6315518E-006  0.7319286E+02  0.7818608E-02  0.1456995E+00
          2   -1    0    0  502    0  0.00000000000E+00  0.00000000000E+00  0.18060482581E+02  0.18060482581E+02  0.00000000000E+00 0. -1.
          1   -1    0    0  501    0 -0.00000000000E+00 -0.00000000000E+00 -0.16473951720E+04  0.16473951720E+04  0.00000000000E+00 0. -1.
         25    2    1    2    0    0  0.48127519646E+02  0.21623148092E+02 -0.91886485646E+03  0.92882761202E+03  0.12499715890E+03 0.  0.
          2    1    1    2  501    0  0.27614848362E+02 -0.14841898741E+02 -0.60909345071E+03  0.60989974053E+03  0.00000000000E+00 0. -1.
          1    1    1    2  502    0 -0.75742368007E+02 -0.67812493504E+01 -0.10137638221E+03  0.12672830198E+03  0.00000000000E+00 0. -1.
         22    1    3    3    0    0  0.50877035990E+02  0.53356691003E+02 -0.84721362478E+03  0.85041538984E+03  0.00000000000E+00 0.  1.
         22    1    3    3    0    0 -0.27495163443E+01 -0.31733542911E+02 -0.71651231677E+02  0.78412222177E+02  0.00000000000E+00 0.  1.
</event>
<event>
 7    1  0.6315518E-006  0.5262238E+02  0.7818608E-02  0.1472297E+00
          2   -1    0    0  502    0  0.00000000000E+00  0.00000000000E+00  0.51398305445E+02  0.51398305445E+02  0.00000000000E+00 0. -1.
          1   -1    0    0  501    0 -0.00000000000E+00 -0.00000000000E+00 -0.48131060459E+03  0.48131060459E+03  0.00000000000E+00 0. -1.
         25    2    1    2    0    0 -0.43767444231E+01  0.15727103110E+02 -0.63385569370E+02  0.14110144749E+03  0.12500156166E+03 0.  0.
          2    1    1    2  501    0 -0.46155413848E+02  0.25274338409E+02 -0.27074371066E+03  0.27581020879E+03  0.00000000000E+00 0. -1.
          1    1    1    2  502    0  0.50532158271E+02 -0.41001441519E+02 -0.95783019112E+02  0.11579725375E+03  0.00000000000E+00 0. -1.
         22    1    3    3    0    0 -0.25358959018E+02  0.47841728818E+02 -0.82155403473E+02  0.98394197687E+02  0.00000000000E+00 0.  1.
         22    1    3    3    0    0  0.20982214595E+02 -0.32114625708E+02  0.18769834103E+02  0.42707249805E+02  0.00000000000E+00 0.  1.
</event>
<event>
 7    1  0.6315518E-006  0.6314688E+02  0.7818608E-02  0.1447283E+00
          2   -1    0    0  502    0  0.00000000000E+00  0.00000000000E+00  0.67629031872E+03  0.67629031872E+03  0.00000000000E+00 0. -1.
          1   -1    0    0  501    0 -0.00000000000E+00 -0.00000000000E+00 -0.69465658445E+02  0.69465658445E+02  0.00000000000E+00 0. -1.
         25    2    1    2    0    0  0.25619493992E+02 -0.41438542627E+02  0.48655299373E+03  0.50471033215E+03  0.12500076953E+03 0.  0.
          2    1    1    2  501    0 -0.59850730001E+02  0.22698826415E+02 -0.40406008680E+02  0.75696711551E+02  0.00000000000E+00 0. -1.
          1    1    1    2  502    0  0.34231236009E+02  0.18739716212E+02  0.16067767523E+03  0.16534893347E+03  0.00000000000E+00 0. -1.
         22    1    3    3    0    0 -0.28890634850E+02  0.31261898848E+02  0.13171561659E+03  0.13842318720E+03  0.00000000000E+00 0.  1.
         22    1    3    3    0    0  0.54510128843E+02 -0.72700441475E+02  0.35483737714E+03  0.36628714495E+03  0.00000000000E+00 0.  1.
</event>
<event>
 7    1  0.6315518E-006  0.2536297E+03  0.7818608E-02  0.1330761E+00
          2   -1    0    0  502    0  0.00000000000E+00  0.00000000000E+00  0.10993523237E+04  0.10993523237E+04  0.00000000000E+00 0. -1.
          1   -1    0    0  501    0 -0.00000000000E+00 -0.00000000000E+00 -0.26549546609E+03  0.26549546609E+03  0.00000000000E+00 0. -1.
         25    2    1    2    0    0 -0.17493733267E+03 -0.20289622417E+03  0.32868110721E+03  0.44207025216E+03  0.12499955786E+03 0.  0.
          2    1    1    2  501    0  0.17677480730E+03  0.17810738837E+03 -0.13307483599E+03  0.28404310634E+03  0.00000000000E+00 0. -1.
          1    1    1    2  502    0 -0.18374746255E+01  0.24788835793E+02  0.63825058636E+03  0.63873443126E+03  0.00000000000E+00 0. -1.
         22    1    3    3    0    0 -0.41517937022E+02 -0.11707376124E+02  0.12588777136E+03  0.13307341105E+03  0.00000000000E+00 0. -1.
         22    1    3    3    0    0 -0.13341939565E+03 -0.19118884804E+03  0.20279333585E+03  0.30899684111E+03  0.00000000000E+00 0. -1.
</event>
<event>
 7    1  0.6315518E-006  0.5600229E+02  0.7818608E-02  0.1535256E+00
          2   -1    0    0  502    0  0.00000000000E+00  0.00000000000E+00  0.21036302382E+04  0.21036302382E+04  0.00000000000E+00 0. -1.
          1   -1    0    0  501    0 -0.00000000000E+00 -0.00000000000E+00 -0.89256713979E+02  0.89256713979E+02  0.00000000000E+00 0. -1.
         25    2    1    2    0    0 -0.57485835403E+02  0.28873872847E+01  0.11051002809E+04  0.11136354562E+04  0.12499736124E+03 0.  0.
          2    1    1    2  501    0  0.52196292284E+02  0.20372428576E+02 -0.75594021459E+02  0.94095402940E+02  0.00000000000E+00 0. -1.
          1    1    1    2  502    0  0.52895431190E+01 -0.23259815861E+02  0.98486726482E+03  0.98515609302E+03  0.00000000000E+00 0. -1.
         22    1    3    3    0    0 -0.38981626215E+02 -0.49791455709E+02  0.29951628732E+03  0.30611887008E+03  0.00000000000E+00 0. -1.
         22    1    3    3    0    0 -0.18504209187E+02  0.52678842994E+02  0.80558399356E+03  0.80751658617E+03  0.00000000000E+00 0. -1.
</event>
<event>
 7    1  0.6315518E-006  0.8486322E+02  0.7818608E-02  0.1368162E+00
          2   -1    0    0  502    0  0.00000000000E+00  0.00000000000E+00  0.45009837794E+03  0.45009837794E+03  0.00000000000E+00 0. -1.
          1   -1    0    0  501    0 -0.00000000000E+00 -0.00000000000E+00 -0.48234264711E+03  0.48234264711E+03  0.00000000000E+00 0. -1.
         25    2    1    2    0    0  0.27663424067E+02  0.98345521848E+02 -0.37784439292E+02  0.16580205705E+03  0.12500220626E+03 0.  0.
          2    1    1    2  501    0 -0.51246369867E+02 -0.16951634203E+02 -0.37393819845E+03  0.37781387559E+03  0.00000000000E+00 0. -1.
          1    1    1    2  502    0  0.23582945800E+02 -0.81393887645E+02  0.37947836858E+03  0.38882509242E+03  0.00000000000E+00 0. -1.
         22    1    3    3    0    0  0.10605124317E+02  0.10766665478E+03  0.15305749786E+02  0.10926501357E+03  0.00000000000E+00 0. -1.
         22    1    3    3    0    0  0.17058299750E+02 -0.93211329298E+01 -0.53090189077E+02  0.56537043482E+02  0.00000000000E+00 0. -1.
</event>
<event>
 7    1  0.6315518E-006  0.4763446E+02  0.7818608E-02  0.1488992E+00
          2   -1    0    0  502    0  0.00000000000E+00  0.00000000000E+00  0.11766720679E+03  0.11766720679E+03  0.00000000000E+00 0. -1.
          1   -1    0    0  501    0 -0.00000000000E+00 -0.00000000000E+00 -0.54663907646E+03  0.54663907646E+03  0.00000000000E+00 0. -1.
         25    2    1    2    0    0  0.64345623665E+01 -0.29327248555E+02  0.39530738279E+02  0.13449404066E+03  0.12499790640E+03 0.  0.
          2    1    1    2  501    0 -0.43641577203E+02  0.20070834231E+02 -0.48550128459E+03  0.48787183049E+03  0.00000000000E+00 0. -1.
          1    1    1    2  502    0  0.37207014836E+02  0.92564143234E+01  0.16998676646E+02  0.41940412097E+02  0.00000000000E+00 0. -1.
         22    1    3    3    0    0  0.10620530968E+02  0.40705393633E+02  0.48001520660E+02  0.63826880971E+02  0.00000000000E+00 0. -1.
         22    1    3    3    0    0 -0.41859686016E+01 -0.70032642187E+02 -0.84707823810E+01  0.70667159693E+02  0.00000000000E+00 0. -1.
</event>
<event>
 7    1  0.6315518E-006  0.5931729E+02  0.7818608E-02  0.1462529E+00
          2   -1    0    0  502    0  0.00000000000E+00  0.00000000000E+00  0.36347877118E+03  0.36347877118E+03  0.00000000000E+00 0. -1.
          1   -1    0    0  501    0 -0.00000000000E+00 -0.00000000000E+00 -0.34678974990E+04  0.34678974990E+04  0.00000000000E+00 0. -1.
         25    2    1    2    0    0 -0.75449282789E+02  0.50929281861E+02 -0.23254202679E+02  0.15636737275E+03  0.12499444505E+03 0.  0.
          2    1    1    2  501    0  0.38814287424E+02 -0.44707556848E+02 -0.33766635675E+04  0.33771825776E+04  0.00000000000E+00 0. -1.
          1    1    1    2  502    0  0.36634995365E+02 -0.62217250132E+01  0.29549904234E+03  0.29782631981E+03  0.00000000000E+00 0. -1.
         22    1    3    3    0    0 -0.76522231073E+02  0.73267200711E+02  0.19869906220E+02  0.10778936739E+03  0.00000000000E+00 0. -1.
         22    1    3    3    0    0  0.10729482840E+01 -0.22337918850E+02 -0.43124108899E+02  0.48578005361E+02  0.00000000000E+00 0. -1.
</event>
<event>
 7    1  0.6315518E-006  0.1162239E+03  0.7818608E-02  0.1273821E+00
          2   -1    0    0  502    0  0.00000000000E+00  0.00000000000E+00  0.10999801816E+04  0.10999801816E+04  0.00000000000E+00 0. -1.
          1   -1    0    0  501    0 -0.00000000000E+00 -0.00000000000E+00 -0.51712608274E+02  0.51712608274E+02  0.00000000000E+00 0. -1.
         25    2    1    2    0    0  0.23588508287E+02 -0.58212589699E+01  0.26892969803E+03  0.29755091621E+03  0.12499224166E+03 0.  0.
          2    1    1    2  501    0 -0.83155272883E+02 -0.93977486699E+02  0.88398221175E+02  0.15349531889E+03  0.00000000000E+00 0. -1.
          1    1    1    2  502    0  0.59566764596E+02  0.99798745669E+02  0.69093965416E+03  0.70064655482E+03  0.00000000000E+00 0. -1.
         22    1    3    3    0    0  0.52489995040E+02 -0.93759642090E+01  0.26232869640E+03  0.26769283374E+03  0.00000000000E+00 0. -1.
         22    1    3    3    0    0 -0.28901486753E+02  0.35547052391E+01  0.66010016306E+01  0.29858082463E+02  0.00000000000E+00 0. -1.
</event>
<event>
 7    1  0.6315518E-006  0.7600006E+02  0.7818608E-02  0.1509741E+00
          2   -1    0    0  502    0  0.00000000000E+00  0.00000000000E+00  0.11770902789E+04  0.11770902789E+04  0.00000000000E+00 0. -1.
          1   -1    0    0  501    0 -0.00000000000E+00 -0.00000000000E+00 -0.89639902751E+02  0.89639902751E+02  0.00000000000E+00 0. -1.
         25    2    1    2    0    0  0.60451912591E+02  0.66078743724E+02  0.12142595387E+03  0.19592695566E+03  0.12498910182E+03 0.  0.
          2    1    1    2  501    0 -0.58407564543E+02 -0.45344137643E+02 -0.26134605636E+02  0.78425455218E+02  0.00000000000E+00 0. -1.
          1    1    1    2  502    0 -0.20443480476E+01 -0.20734606081E+02  0.99215902796E+03  0.99237777082E+03  0.00000000000E+00 0. -1.
         22    1    3    3    0    0 -0.11562866325E+02 -0.30464384934E+02  0.18339397192E+02  0.37391337452E+02  0.00000000000E+00 0. -1.
         22    1    3    3    0    0  0.72014778915E+02  0.96543128658E+02  0.10308655668E+03  0.15853561821E+03  0.00000000000E+00 0. -1.
</event>
<event>
 7    1  0.6315518E-006  0.9140412E+02  0.7818608E-02  0.1378035E+00
          2   -1    0    0  502    0  0.00000000000E+00  0.00000000000E+00  0.39126805833E+03  0.39126805833E+03  0.00000000000E+00 0. -1.
          1   -1    0    0  501    0 -0.00000000000E+00 -0.00000000000E+00 -0.35264949903E+03  0.35264949903E+03  0.00000000000E+00 0. -1.
         25    2    1    2    0    0  0.93603028463E+02 -0.73066620449E+02 -0.50802835774E+02  0.17973955833E+03  0.12500049098E+03 0.  0.
          2    1    1    2  501    0 -0.84148757311E+02  0.27845200077E+02 -0.22736988739E+03  0.24403572323E+03  0.00000000000E+00 0. -1.
          1    1    1    2  502    0 -0.94542711516E+01  0.45221420371E+02  0.31679128246E+03  0.32014227579E+03  0.00000000000E+00 0. -1.
         22    1    3    3    0    0  0.91226074163E+02 -0.53605156269E+02  0.18765785886E+02  0.10746098876E+03  0.00000000000E+00 0.  1.
         22    1    3    3    0    0  0.23769543003E+01 -0.19461464180E+02 -0.69568621660E+02  0.72278569573E+02  0.00000000000E+00 0.  1.
</event>
<event>
 7    1  0.6315518E-006  0.7493357E+02  0.7818608E-02  0.1405661E+00
          2   -1    0    0  502    0  0.00000000000E+00  0.00000000000E+00  0.34075622291E+03  0.34075622291E+03  0.00000000000E+00 0. -1.
          1   -1    0    0  501    0 -0.00000000000E+00 -0.00000000000E+00 -0.90717548170E+02  0.90717548170E+02  0.00000000000E+00 0. -1.
         25    2    1    2    0    0  0.81342942270E+02 -0.23559515714E+02  0.10166540710E+03  0.18201513002E+03  0.12498770946E+03 0.  0.
          2    1    1    2  501    0 -0.72214816725E+02 -0.20670306204E+02 -0.17852379439E+02  0.77207180785E+02  0.00000000000E+00 0. -1.
          1    1    1    2  502    0 -0.91281255452E+01  0.44229821918E+02  0.16622564707E+03  0.17225146028E+03  0.00000000000E+00 0. -1.
         22    1    3    3    0    0  0.40651695292E+02 -0.61336695830E+02  0.10286887653E+03  0.12647828408E+03  0.00000000000E+00 0.  1.
         22    1    3    3    0    0  0.40691246977E+02  0.37777180116E+02 -0.12034694218E+01  0.55536845938E+02  0.00000000000E+00 0.  1.
</event>
<event>
 7    1  0.6315518E-006  0.1558110E+03  0.7818608E-02  0.1345971E+00
          2   -1    0    0  502    0  0.00000000000E+00  0.00000000000E+00  0.27526386754E+04  0.27526386754E+04  0.00000000000E+00 0. -1.
          1   -1    0    0  501    0 -0.00000000000E+00 -0.00000000000E+00 -0.10171178826E+04  0.10171178826E+04  0.00000000000E+00 0. -1.
         25    2    1    2    0    0  0.78889272190E+02  0.14840716644E+03  0.45061140845E+03  0.49691400894E+03  0.12499874615E+03 0.  0.
          2    1    1    2  501    0 -0.99628331108E+02 -0.11964994260E+03 -0.98773019199E+03  0.99992641994E+03  0.00000000000E+00 0. -1.
          1    1    1    2  502    0  0.20739058918E+02 -0.28757223840E+02  0.22726395763E+04  0.22729161291E+04  0.00000000000E+00 0. -1.
         22    1    3    3    0    0  0.77986014898E+02  0.88239870844E+02  0.40395704852E+03  0.42077237359E+03  0.00000000000E+00 0. -1.
         22    1    3    3    0    0  0.90325729189E+00  0.60167295598E+02  0.46654359925E+02  0.76141635347E+02  0.00000000000E+00 0. -1.
</event>
<event>
 7    1  0.6315518E-006  0.1034258E+03  0.7818608E-02  0.1461803E+00
          2   -1    0    0  502    0  0.00000000000E+00  0.00000000000E+00  0.35079611547E+04  0.35079611547E+04  0.00000000000E+00 0. -1.
          1   -1    0    0  501    0 -0.00000000000E+00 -0.00000000000E+00 -0.63563888936E+03  0.63563888936E+03  0.00000000000E+00 0. -1.
         25    2    1    2    0    0 -0.50869088635E+02  0.69353197181E+02 -0.41114530364E+03  0.43824961259E+03  0.12499892838E+03 0.  0.
          2    1    1    2  501    0 -0.20758166275E+02  0.53007239352E+01 -0.20962956918E+03  0.21072151151E+03  0.00000000000E+00 0. -1.
          1    1    1    2  502    0  0.71627254910E+02 -0.74653921116E+02  0.34930971382E+04  0.34946289200E+04  0.00000000000E+00 0. -1.
         22    1    3    3    0    0  0.48342851831E+01  0.17636617420E+02  0.17922242532E+01  0.18374783129E+02  0.00000000000E+00 0.  1.
         22    1    3    3    0    0 -0.55703373818E+02  0.51716579761E+02 -0.41293752789E+03  0.41987482946E+03  0.00000000000E+00 0.  1.
</event>
<event>
 7    1  0.6315518E-006  0.2277962E+03  0.7818608E-02  0.1230563E+00
          2   -1    0    0  502    0  0.00000000000E+00  0.00000000000E+00  0.10921102631E+04  0.10921102631E+04  0.00000000000E+00 0. -1.
          1   -1    0    0  501    0 -0.00000000000E+00 -0.00000000000E+00 -0.40584561397E+03  0.40584561397E+03  0.00000000000E+00 0. -1.
         25    2    1    2    0    0  0.74544516290E+02  0.16996499557E+03 -0.24029703167E+03  0.32834801137E+03  0.12499907406E+03 0.  0.
          2    1    1    2  501    0  0.71421236315E+02  0.77704136575E+01 -0.96897379124E+02  0.12062534728E+03  0.00000000000E+00 0. -1.
          1    1    1    2  502    0 -0.14596575261E+03 -0.17773540923E+03  0.10234590599E+04  0.10489825184E+04  0.00000000000E+00 0. -1.
         22    1    3    3    0    0 -0.27834586419E+02  0.31291970829E+01 -0.29118105699E+02  0.40403219612E+02  0.00000000000E+00 0. -1.
         22    1    3    3    0    0  0.10237910271E+03  0.16683579849E+03 -0.21117892597E+03  0.28794479176E+03  0.00000000000E+00 0. -1.
</event>
<event>
 7    1  0.6315518E-006  0.1015473E+03  0.7818608E-02  0.1415996E+00
          2   -1    0    0  502    0  0.00000000000E+00  0.00000000000E+00  0.17409008579E+04  0.17409008579E+04  0.00000000000E+00 0. -1.
          1   -1    0    0  501    0 -0.00000000000E+00 -0.00000000000E+00 -0.26811928231E+03  0.26811928231E+03  0.00000000000E+00 0. -1.
         25    2    1    2    0    0 -0.54014494339E+02  0.77806831650E+02  0.94465106633E+03  0.95758149191E+03  0.12500083153E+03 0.  0.
          2    1    1    2  501    0  0.80466750732E+02 -0.62133791673E+02 -0.25146441479E+03  0.27123764109E+03  0.00000000000E+00 0. -1.
          1    1    1    2  502    0 -0.26452256393E+02 -0.15673039978E+02  0.77959492401E+03  0.78020100717E+03  0.00000000000E+00 0. -1.
         22    1    3    3    0    0 -0.42617430542E+02  0.11204691842E+03  0.68075198937E+03  0.69122646676E+03  0.00000000000E+00 0.  1.
         22    1    3    3    0    0 -0.11397063796E+02 -0.34240086770E+02  0.26389907695E+03  0.26635502515E+03  0.00000000000E+00 0.  1.
</event>
<event>
 7    1  0.6315518E-006  0.8763945E+02  0.7818608E-02  0.1410775E+00
          2   -1    0    0  502    0  0.00000000000E+00  0.00000000000E+00  0.83641061402E+02  0.83641061402E+02  0.00000000000E+00 0. -1.
          1   -1    0    0  501    0 -0.00000000000E+00 -0.00000000000E+00 -0.12431918711E+04  0.12431918711E+04  0.00000000000E+00 0. -1.
         25    2    1    2    0    0 -0.29795106054E+02  0.10465506728E+03 -0.33340274255E+03  0.37232155775E+03  0.12500208870E+03 0.  0.
          2    1    1    2  501    0 -0.17670873828E+02 -0.32621182702E+02 -0.86076089953E+03  0.86156005449E+03  0.00000000000E+00 0. -1.
          1    1    1    2  502    0  0.47465979882E+02 -0.72033884578E+02  0.34612832370E+02  0.92951320261E+02  0.00000000000E+00 0. -1.
         22    1    3    3    0    0 -0.13694031037E+02  0.10478375679E+03 -0.12666672468E+03  0.16495945355E+03  0.00000000000E+00 0.  1.
         22    1    3    3    0    0 -0.16101075018E+02 -0.12868951301E+00 -0.20673601786E+03  0.20736210420E+03  0.00000000000E+00 0.  1.
</event>
<event>
 7    1  0.6315518E-006  0.6892497E+02  0.7818608E-02  0.1455267E+00
          2   -1    0    0  502    0  0.00000000000E+00  0.00000000000E+00  0.20176561490E+04  0.20176561490E+04  0.00000000000E+00 0. -1.
          1   -1    0    0  501    0 -0.00000000000E+00 -0.00000000000E+00 -0.15936261206E+03  0.15936261206E+03  0.00000000000E+00 0. -1.
         25    2    1    2    0    0 -0.20536690001E+02  0.93370027549E+02 -0.81502899794E+02  0.17722445811E+03  0.12500427272E+03 0.  0.
          2    1    1    2  501    0 -0.10602792896E+02 -0.32004116085E+02 -0.19727636551E+02  0.39062287535E+02  0.00000000000E+00 0. -1.
          1    1    1    2  502    0  0.31139482897E+02 -0.61365911463E+02  0.19595240733E+04  0.19607320154E+04  0.00000000000E+00 0. -1.
         22    1    3    3    0    0  0.20836235652E+02  0.10693750876E+03 -0.37243809355E+02  0.11513852887E+03  0.00000000000E+00 0.  1.
         22    1    3    3    0    0 -0.41372925653E+02 -0.13567481208E+02 -0.44259090439E+02  0.62085929242E+02  0.00000000000E+00 0.  1.
</event>
<event>
 7    1  0.6315518E-006  0.6830366E+02  0.7818608E-02  0.1468137E+00
          2   -1    0    0  502    0  0.00000000000E+00  0.00000000000E+00  0.88817574533E+03  0.88817574533E+03  0.00000000000E+00 0. -1.
          1   -1    0    0  501    0 -0.00000000000E+00 -0.00000000000E+00 -0.78992820468E+03  0.78992820468E+03  0.00000000000E+00 0. -1.
         25    2    1    2    0    0 -0.53712303725E+01 -0.38644148407E+02 -0.28299320040E+03  0.31182157118E+03  0.12500128183E+03 0.  0.
          2    1    1    2  501    0  0.88305833916E+01 -0.29707192673E+02 -0.49069105042E+03  0.49166879447E+03  0.00000000000E+00 0. -1.
          1    1    1    2  502    0 -0.34593530191E+01  0.68351341080E+02  0.87193179147E+03  0.87461358435E+03  0.00000000000E+00 0. -1.
         22    1    3    3    0    0 -0.49810615486E+02  0.31151884382E+01 -0.21399462279E+03  0.21973734411E+03  0.00000000000E+00 0. -1.
         22    1    3    3    0    0  0.44439385114E+02 -0.41759336845E+02 -0.68998577614E+02  0.92084227074E+02  0.00000000000E+00 0. -1.
</event>
<event>
 7    1  0.6315518E-006  0.1284169E+03  0.7818608E-02  0.1435125E+00
          2   -1    0    0  502    0  0.00000000000E+00  0.00000000000E+00  0.24335728357E+03  0.24335728357E+03  0.00000000000E+00 0. -1.
          1   -1    0    0  501    0 -0.00000000000E+00 -0.00000000000E+00 -0.41533216852E+03  0.41533216852E+03  0.00000000000E+00 0. -1.
         25    2    1    2    0    0  0.11327927181E+03 -0.80402594275E+02  0.25769970846E+02  0.18864272614E+03  0.12500086455E+03 0.  0.
          2    1    1    2  501    0 -0.11264499076E+03  0.59400299753E+02 -0.32083055898E+03  0.34518044140E+03  0.00000000000E+00 0. -1.
          1    1    1    2  502    0 -0.63428105381E+00  0.21002294522E+02  0.12308570319E+03  0.12486628455E+03  0.00000000000E+00 0. -1.
         22    1    3    3    0    0  0.88806318145E+02 -0.76534702344E+02  0.71008732970E+02  0.13706335383E+03  0.00000000000E+00 0.  1.
         22    1    3    3    0    0  0.24472953668E+02 -0.38678919312E+01 -0.45238762124E+02  0.51579372309E+02  0.00000000000E+00 0.  1.
</event>
<event>
 7    1  0.6315518E-006  0.4014683E+02  0.7818608E-02  0.1595322E+00
          2   -1    0    0  502    0  0.00000000000E+00  0.00000000000E+00  0.11219094697E+04  0.11219094697E+04  0.00000000000E+00 0. -1.
          1   -1    0    0  501    0 -0.00000000000E+00 -0.00000000000E+00 -0.37160309685E+02  0.37160309685E+02  0.00000000000E+00 0. -1.
         25    2    1    2    0    0 -0.56123151441E+02  0.19391895624E+02  0.75067967874E+03  0.76332829992E+03  0.12499703857E+03 0.  0.
          2    1    1    2  501    0  0.19709815880E+02 -0.11452609877E+02 -0.25524184937E+02  0.34221676343E+02  0.00000000000E+00 0. -1.
          1    1    1    2  502    0  0.36413335561E+02 -0.79392857470E+01  0.35959366625E+03  0.36151980315E+03  0.00000000000E+00 0. -1.
         22    1    3    3    0    0 -0.73834018101E+02  0.32337305176E+02  0.26113304828E+03  0.27329038117E+03  0.00000000000E+00 0. -1.
         22    1    3    3    0    0  0.17710866660E+02 -0.12945409553E+02  0.48954663045E+03  0.49003791875E+03  0.00000000000E+00 0. -1.
</event>
<event>
 7    1  0.6315518E-006  0.9853110E+02  0.7818608E-02  0.1317202E+00
          2   -1    0    0  502    0  0.00000000000E+00  0.00000000000E+00  0.27745101211E+04  0.27745101211E+04  0.00000000000E+00 0. -1.
          1   -1    0    0  501    0 -0.00000000000E+00 -0.00000000000E+00 -0.14497671330E+04  0.14497671330E+04  0.00000000000E+00 0. -1.
         25    2    1    2    0    0 -0.10332159511E+03 -0.21244413916E+02  0.14443857351E+03  0.21820731600E+03  0.12500101639E+03 0.  0.
          2    1    1    2  501    0  0.17203663862E+02  0.70089958211E+02 -0.14110151937E+04  0.14128596693E+04  0.00000000000E+00 0. -1.
          1    1    1    2  502    0  0.86117931252E+02 -0.48845544295E+02  0.25913196084E+04  0.25932102688E+04  0.00000000000E+00 0. -1.
         22    1    3    3    0    0  0.28487666328E+02 -0.11171023973E+01  0.38508935415E+02  0.47913809673E+02  0.00000000000E+00 0. -1.
         22    1    3    3    0    0 -0.13180926144E+03 -0.20127311519E+02  0.10592963810E+03  0.17029350633E+03  0.00000000000E+00 0. -1.
</event>
<event>
 7    1  0.6315518E-006  0.4544767E+02  0.7818608E-02  0.1506558E+00
          2   -1    0    0  502    0  0.00000000000E+00  0.00000000000E+00  0.10199119434E+04  0.10199119434E+04  0.00000000000E+00 0. -1.
          1   -1    0    0  501    0 -0.00000000000E+00 -0.00000000000E+00 -0.56309753655E+02  0.56309753655E+02  0.00000000000E+00 0. -1.
         25    2    1    2    0    0 -0.22454088779E+02 -0.81466004687E+01  0.59142960957E+03  0.60496620391E+03  0.12499828638E+03 0.  0.
          2    1    1    2  501    0 -0.55983722375E+01 -0.35160532770E+02 -0.41327320173E+02  0.54548622613E+02  0.00000000000E+00 0. -1.
          1    1    1    2  502    0  0.28052461016E+02  0.43307133238E+02  0.41349990038E+03  0.41670687056E+03  0.00000000000E+00 0. -1.
         22    1    3    3    0    0  0.33437437588E+02  0.94757185572E+01  0.45697876284E+03  0.45829841934E+03  0.00000000000E+00 0.  1.
         22    1    3    3    0    0 -0.55891526367E+02 -0.17622319026E+02  0.13445084673E+03  0.14666778458E+03  0.00000000000E+00 0.  1.
</event>
<event>
 7    1  0.6315518E-006  0.4646901E+02  0.7818608E-02  0.1505788E+00
          2   -1    0    0  502    0  0.00000000000E+00  0.00000000000E+00  0.73328033164E+03  0.73328033164E+03  0.00000000000E+00 0. -1.
          1   -1    0    0  501    0 -0.00000000000E+00 -0.00000000000E+00 -0.87870375883E+02  0.87870375883E+02  0.00000000000E+00 0. -1.
         25    2    1    2    0    0  0.77714334397E+02  0.17376470048E+02  0.14504035122E+03  0.20737096228E+03  0.12499821212E+03 0.  0.
          2    1    1    2  501    0 -0.44198048045E+02 -0.72792052996E+01 -0.47212171852E+02  0.65080284663E+02  0.00000000000E+00 0. -1.
          1    1    1    2  502    0 -0.33516286353E+02 -0.10097264748E+02  0.54758177639E+03  0.54869946058E+03  0.00000000000E+00 0. -1.
         22    1    3    3    0    0 -0.57028566312E+01 -0.15610014078E+02 -0.15976718367E+02  0.23053213291E+02  0.00000000000E+00 0.  1.
         22    1    3    3    0    0  0.83417191029E+02  0.32986484126E+02  0.16101706959E+03  0.18431774899E+03  0.00000000000E+00 0.  1.
</event>
<event>
 7    1  0.6315518E-006  0.1552729E+03  0.7818608E-02  0.1303049E+00
          2   -1    0    0  502    0  0.00000000000E+00  0.00000000000E+00  0.14338074420E+04  0.14338074420E+04  0.00000000000E+00 0. -1.
          1   -1    0    0  501    0 -0.00000000000E+00 -0.00000000000E+00 -0.33025218923E+03  0.33025218923E+03  0.00000000000E+00 0. -1.
         25    2    1    2    0    0  0.16059979269E+03 -0.99902012065E+02 -0.11959746545E+03  0.25632275483E+03  0.12500038189E+03 0.  0.
          2    1    1    2  501    0 -0.12313920255E+03  0.63733059416E+02 -0.10788406398E+03  0.17568192089E+03  0.00000000000E+00 0. -1.
          1    1    1    2  502    0 -0.37460590142E+02  0.36168952649E+02  0.13310367822E+04  0.13320549556E+04  0.00000000000E+00 0. -1.
         22    1    3    3    0    0  0.43087738025E+02  0.16051754417E+02 -0.70352208346E+02  0.84045494865E+02  0.00000000000E+00 0. -1.
         22    1    3    3    0    0  0.11751205466E+03 -0.11595376648E+03 -0.49245257107E+02  0.17227725996E+03  0.00000000000E+00 0. -1.
</event>
<event>
 7    1  0.6315518E-006  0.1020402E+03  0.7818608E-02  0.1463095E+00
          2   -1    0    0  502    0  0.00000000000E+00  0.00000000000E+00  0.12246276355E+03  0.12246276355E+03  0.00000000000E+00 0. -1.
          1   -1    0    0  501    0 -0.00000000000E+00 -0.00000000000E+00 -0.19319257552E+04  0.19319257552E+04  0.00000000000E+00 0. -1.
         25    2    1    2    0    0  0.31812497490E+01 -0.11905498737E+03  0.44281843753E+02  0.17823739309E+03  0.12499390481E+03 0.  0.
          2    1    1    2  501    0 -0.14549564698E+02  0.10079101574E+03 -0.18517474705E+04  0.18545455543E+04  0.00000000000E+00 0. -1.
          1    1    1    2  502    0  0.11368314949E+02  0.18263971634E+02 -0.19973648963E+01  0.21605571299E+02  0.00000000000E+00 0. -1.
         22    1    3    3    0    0 -0.25769847570E+02 -0.88155411220E+02  0.80795588791E+02  0.12232493098E+03  0.00000000000E+00 0.  1.
         22    1    3    3    0    0  0.28951097319E+02 -0.30899576153E+02 -0.36513745038E+02  0.55912462109E+02  0.00000000000E+00 0.  1.
</event>
<event>
 7    1  0.6315518E-006  0.3666930E+03  0.7818608E-02  0.1144805E+00
          2   -1    0    0  502    0  0.00000000000E+00  0.00000000000E+00  0.18488507779E+04  0.18488507779E+04  0.00000000000E+00 0. -1.
          1   -1    0    0  501    0 -0.00000000000E+00 -0.00000000000E+00 -0.16200826705E+03  0.16200826705E+03  0.00000000000E+00 0. -1.
         25    2    1    2    0    0  0.26877808149E+03 -0.88959782564E+02  0.24800723135E+03  0.39659526113E+03  0.12499885737E+03 0.  0.
          2    1    1    2  501    0  0.99720629423E+02 -0.58636262825E+02 -0.60509919329E+01  0.11584053588E+03  0.00000000000E+00 0. -1.
          1    1    1    2  502    0 -0.36849871091E+03  0.14759604539E+03  0.14448862715E+04  0.14984232480E+04  0.00000000000E+00 0. -1.
         22    1    3    3    0    0  0.10387158753E+03 -0.48267997929E+02  0.18059429782E+03  0.21385370402E+03  0.00000000000E+00 0.  1.
         22    1    3    3    0    0  0.16490649396E+03 -0.40691784635E+02  0.67412933534E+02  0.18274155711E+03  0.00000000000E+00 0.  1.
</event>
<event>
 7    1  0.6315518E-006  0.7083181E+02  0.7818608E-02  0.1515459E+00
          2   -1    0    0  502    0  0.00000000000E+00  0.00000000000E+00  0.18105994606E+04  0.18105994606E+04  0.00000000000E+00 0. -1.
          1   -1    0    0  501    0 -0.00000000000E+00 -0.00000000000E+00 -0.47647874919E+02  0.47647874919E+02  0.00000000000E+00 0. -1.
         25    2    1    2    0    0  0.41513504551E+00 -0.50105920150E+02  0.16716850610E+03  0.21465896401E+03  0.12498954287E+03 0.  0.
          2    1    1    2  501    0  0.25525108370E+01 -0.21356485726E+02 -0.18106228642E+02  0.28114948155E+02  0.00000000000E+00 0. -1.
          1    1    1    2  502    0 -0.29676458826E+01  0.71462405876E+02  0.16138893083E+04  0.16154734234E+04  0.00000000000E+00 0. -1.
         22    1    3    3    0    0  0.58414856453E+02 -0.11710166315E+02  0.47298283110E+02  0.76069383031E+02  0.00000000000E+00 0. -1.
         22    1    3    3    0    0 -0.57999721407E+02 -0.38395753835E+02  0.11987022299E+03  0.13858958098E+03  0.00000000000E+00 0. -1.
</event>
<event>
 7    1  0.6315518E-006  0.3333952E+02  0.7818608E-02  0.1639793E+00
          2   -1    0    0  502    0  0.00000000000E+00  0.00000000000E+00  0.14052448358E+03  0.14052448358E+03  0.00000000000E+00 0. -1.
          1   -1    0    0  501    0 -0.00000000000E+00 -0.00000000000E+00 -0.68628148112E+03  0.68628148112E+03  0.00000000000E+00 0. -1.
         25    2    1    2    0    0  0.22073036719E+02 -0.69907159909E+01  0.66934200747E+02  0.14367147150E+03  0.12500086173E+03 0.  0.
          2    1    1    2  501    0  0.13381432934E+02  0.16353325510E+02 -0.63814595282E+03  0.63849569388E+03  0.00000000000E+00 0. -1.
          1    1    1    2  502    0 -0.35454469653E+02 -0.93626095190E+01  0.25454754533E+02  0.44638799309E+02  0.00000000000E+00 0. -1.
         22    1    3    3    0    0  0.54377730872E+01 -0.63282643984E+02  0.14923363832E+02  0.65245453434E+02  0.00000000000E+00 0.  1.
         22    1    3    3    0    0  0.16635263632E+02  0.56291927993E+02  0.52010836915E+02  0.78426018067E+02  0.00000000000E+00 0.  1.
</event>
<event>
 7    1  0.6315518E-006  0.9765740E+02  0.7818608E-02  0.1458536E+00
          2   -1    0    0  502    0  0.00000000000E+00  0.00000000000E+00  0.72284491323E+03  0.72284491323E+03  0.00000000000E+00 0. -1.
          1   -1    0    0  501    0 -0.00000000000E+00 -0.00000000000E+00 -0.36549332864E+03  0.36549332864E+03  0.00000000000E+00 0. -1.
         25    2    1    2    0    0 -0.66647806791E+02  0.46722158675E+02  0.13235140390E+02  0.14975075711E+03  0.12500092021E+03 0.  0.
          2    1    1    2  501    0  0.71057962359E+02 -0.69534372641E+02 -0.28870286025E+03  0.30534178310E+03  0.00000000000E+00 0. -1.
          1    1    1    2  502    0 -0.44101555679E+01  0.22812213966E+02  0.63281930445E+03  0.63324570165E+03  0.00000000000E+00 0. -1.
         22    1    3    3    0    0 -0.79908550871E+01  0.70831049786E+02  0.39054291462E+02  0.81278097052E+02  0.00000000000E+00 0.  1.
         22    1    3    3    0    0 -0.58656951704E+02 -0.24108891111E+02 -0.25819151073E+02  0.68472660062E+02  0.00000000000E+00 0.  1.
</event>
<event>
 7    1  0.6315518E-006  0.4263240E+02  0.7818608E-02  0.1605022E+00
          2   -1    0    0  502    0  0.00000000000E+00  0.00000000000E+00  0.30593563609E+04  0.30593563609E+04  0.00000000000E+00 0. -1.
          1   -1    0    0  501    0 -0.00000000000E+00 -0.00000000000E+00 -0.38304614952E+02  0.38304614952E+02  0.00000000000E+00 0. -1.
         25    2    1    2    0    0  0.18009523401E+02 -0.56894057431E+02  0.12169111546E+04  0.12247671173E+04  0.12498182506E+03 0.  0.
          2    1    1    2  501    0 -0.12990551367E+02  0.15533993015E+02 -0.31137449129E+02  0.37142968407E+02  0.00000000000E+00 0. -1.
          1    1    1    2  502    0 -0.50189720337E+01  0.41360064416E+02  0.18352780404E+04  0.18357508901E+04  0.00000000000E+00 0. -1.
         22    1    3    3    0    0 -0.30852479021E+02 -0.68155738068E+02  0.96611726230E+03  0.96900962050E+03  0.00000000000E+00 0.  1.
         22    1    3    3    0    0  0.48862002422E+02  0.11261680637E+02  0.25079389234E+03  0.25575749680E+03  0.00000000000E+00 0.  1.
</event>
<event>
 7    1  0.6315518E-006  0.3379924E+02  0.7818608E-02  0.1562092E+00
          2   -1    0    0  502    0  0.00000000000E+00  0.00000000000E+00  0.91448902110E+03  0.91448902110E+03  0.00000000000E+00 0. -1.
          1   -1    0    0  501    0 -0.00000000000E+00 -0.00000000000E+00 -0.34485906359E+02  0.34485906359E+02  0.00000000000E+00 0. -1.
         25    2    1    2    0    0  0.13778495685E+02 -0.12826866418E+02  0.19801327178E+03  0.23492353771E+03  0.12500174928E+03 0.  0.
          2    1    1    2  501    0  0.11513113939E+02  0.34419643945E+02  0.54574437662E+01  0.36702144002E+02  0.00000000000E+00 0. -1.
          1    1    1    2  502    0 -0.25291609624E+02 -0.21592777527E+02  0.67653239920E+03  0.67734924575E+03  0.00000000000E+00 0. -1.
         22    1    3    3    0    0  0.68603186383E+02  0.44161396115E+01  0.10134657700E+03  0.12246235397E+03  0.00000000000E+00 0.  1.
         22    1    3    3    0    0 -0.54824690698E+02 -0.17243006029E+02  0.96666694783E+02  0.11246118374E+03  0.00000000000E+00 0.  1.
</event>
<event>
 7    1  0.6315518E-006  0.7130765E+02  0.7818608E-02  0.1458080E+00
          2   -1    0    0  502    0  0.00000000000E+00  0.00000000000E+00  0.62034929198E+03  0.62034929198E+03  0.00000000000E+00 0. -1.
          1   -1    0    0  501    0 -0.00000000000E+00 -0.00000000000E+00 -0.50377665092E+02  0.50377665092E+02  0.00000000000E+00 0. -1.
         25    2    1    2    0    0 -0.12170065564E+02 -0.92107579035E+02  0.35078155324E+03  0.38380159123E+03  0.12499618684E+03 0.  0.
          2    1    1    2  501    0 -0.10423109467E+02  0.30176597882E+02 -0.20761382022E+02  0.38082847244E+02  0.00000000000E+00 0. -1.
          1    1    1    2  502    0  0.22593175031E+02  0.61930981152E+02  0.23995145566E+03  0.24884251859E+03  0.00000000000E+00 0. -1.
         22    1    3    3    0    0 -0.40234934050E+02 -0.11351106584E+03  0.27364356701E+03  0.29897226252E+03  0.00000000000E+00 0.  1.
         22    1    3    3    0    0  0.28064868486E+02  0.21403486808E+02  0.77137986232E+02  0.84829328717E+02  0.00000000000E+00 0.  1.
</event>
<event>
 7    1  0.6315518E-006  0.8850050E+02  0.7818608E-02  0.1361951E+00
          2   -1    0    0  502    0  0.00000000000E+00  0.00000000000E+00  0.58296885135E+03  0.58296885135E+03  0.00000000000E+00 0. -1.
          1   -1    0    0  501    0 -0.00000000000E+00 -0.00000000000E+00 -0.80228878573E+02  0.80228878573E+02  0.00000000000E+00 0. -1.
         25    2    1    2    0    0  0.29824461891E+02  0.30712712226E+02  0.27385988253E+03  0.30406792191E+03  0.12500118662E+03 0.  0.
          2    1    1    2  501    0 -0.81887112075E+02 -0.46864282182E+02 -0.26497494618E+02  0.97999373924E+02  0.00000000000E+00 0. -1.
          1    1    1    2  502    0  0.52062650184E+02  0.16151569957E+02  0.25537758487E+03  0.26113043409E+03  0.00000000000E+00 0. -1.
         22    1    3    3    0    0  0.71528071417E+02  0.35785664951E+02  0.22919857917E+03  0.24275268796E+03  0.00000000000E+00 0. -1.
         22    1    3    3    0    0 -0.41703609525E+02 -0.50729527251E+01  0.44661303356E+02  0.61315233950E+02  0.00000000000E+00 0. -1.
</event>
<event>
 7    1  0.6315518E-006  0.7583763E+02  0.7818608E-02  0.1344681E+00
          2   -1    0    0  502    0  0.00000000000E+00  0.00000000000E+00  0.15151992360E+03  0.15151992360E+03  0.00000000000E+00 0. -1.
          1   -1    0    0  501    0 -0.00000000000E+00 -0.00000000000E+00 -0.45480471439E+03  0.45480471439E+03  0.00000000000E+00 0. -1.
         25    2    1    2    0    0  0.18661793168E+02  0.21119328480E+01 -0.97962483060E+02  0.15992292886E+03  0.12500388915E+03 0.  0.
          2    1    1    2  501    0  0.38248435546E+02 -0.62947089696E+02 -0.30656647754E+03  0.31529079288E+03  0.00000000000E+00 0. -1.
          1    1    1    2  502    0 -0.56910228714E+02  0.60835156848E+02  0.10124416981E+03  0.13111091625E+03  0.00000000000E+00 0. -1.
         22    1    3    3    0    0  0.41297034226E+02 -0.45217560270E+02 -0.86893891857E+02  0.10630438013E+03  0.00000000000E+00 0. -1.
         22    1    3    3    0    0 -0.22635241058E+02  0.47329493118E+02 -0.11068591203E+02  0.53618548728E+02  0.00000000000E+00 0. -1.
</event>
<event>
 7    1  0.6315518E-006  0.1267888E+03  0.7818608E-02  0.1271177E+00
          2   -1    0    0  502    0  0.00000000000E+00  0.00000000000E+00  0.14336066126E+04  0.14336066126E+04  0.00000000000E+00 0. -1.
          1   -1    0    0  501    0 -0.00000000000E+00 -0.00000000000E+00 -0.49073880844E+03  0.49073880844E+03  0.00000000000E+00 0. -1.
         25    2    1    2    0    0 -0.72628447865E+02  0.14128591012E+03 -0.92892267978E+02  0.22246365886E+03  0.12499802489E+03 0.  0.
          2    1    1    2  501    0  0.10778970154E+03 -0.62723637388E+02 -0.31997387384E+03  0.34341833729E+03  0.00000000000E+00 0. -1.
          1    1    1    2  502    0 -0.35161253674E+02 -0.78562272736E+02  0.13557339460E+04  0.13584634249E+04  0.00000000000E+00 0. -1.
         22    1    3    3    0    0 -0.35686861716E+02  0.15599152716E+03 -0.87374245748E+02  0.18232160449E+03  0.00000000000E+00 0.  1.
         22    1    3    3    0    0 -0.36941586150E+02 -0.14705617036E+02 -0.55180222300E+01  0.40142054369E+02  0.00000000000E+00 0.  1.
</event>
<event>
 7    1  0.6315518E-006  0.6885813E+02  0.7818608E-02  0.1371972E+00
          2   -1    0    0  502    0  0.00000000000E+00  0.00000000000E+00  0.11654717318E+04  0.11654717318E+04  0.00000000000E+00 0. -1.
          1   -1    0    0  501    0 -0.00000000000E+00 -0.00000000000E+00 -0.80788958025E+03  0.80788958025E+03  0.00000000000E+00 0. -1.
         25    2    1    2    0    0 -0.13255048659E+03 -0.57987036629E+00  0.16943569260E+03  0.24880424933E+03  0.12500053124E+03 0.  0.
          2    1    1    2  501    0  0.68228832689E+02  0.47766071251E+01 -0.76559290311E+03  0.76864197314E+03  0.00000000000E+00 0. -1.
          1    1    1    2  502    0  0.64321653898E+02 -0.41967367588E+01  0.95373936206E+03  0.95591508959E+03  0.00000000000E+00 0. -1.
         22    1    3    3    0    0 -0.14764089475E+03 -0.13255544349E+02  0.17399323334E+03  0.22857643909E+03  0.00000000000E+00 0.  1.
         22    1    3    3    0    0  0.15090408165E+02  0.12675673983E+02 -0.45575407320E+01  0.20227810238E+02  0.00000000000E+00 0.  1.
</event>
<event>
 7    1  0.6315518E-006  0.6809427E+02  0.7818608E-02  0.1471797E+00
          2   -1    0    0  502    0  0.00000000000E+00  0.00000000000E+00  0.14845113157E+04  0.14845113157E+04  0.00000000000E+00 0. -1.
          1   -1    0    0  501    0 -0.00000000000E+00 -0.00000000000E+00 -0.18187154938E+04  0.18187154938E+04  0.00000000000E+00 0. -1.
         25    2    1    2    0    0 -0.20519956701E+01  0.65002104186E+02  0.32472370223E+03  0.35397488687E+03  0.12499301383E+03 0.  0.
          2    1    1    2  501    0  0.30196837091E+02 -0.22815254261E+01 -0.18029309018E+04  0.18031852071E+04  0.00000000000E+00 0. -1.
          1    1    1    2  502    0 -0.28144841421E+02 -0.62720578760E+02  0.11440030215E+04  0.11460667155E+04  0.00000000000E+00 0. -1.
         22    1    3    3    0    0 -0.31474573171E+02  0.85793367327E+02  0.28953403886E+03  0.30361342245E+03  0.00000000000E+00 0. -1.
         22    1    3    3    0    0  0.29422577501E+02 -0.20791263141E+02  0.35189663371E+02  0.50361464415E+02  0.00000000000E+00 0. -1.
</event>
<event>
 7    1  0.6315518E-006  0.5511130E+02  0.7818608E-02  0.1430071E+00
          2   -1    0    0  502    0  0.00000000000E+00  0.00000000000E+00  0.21984493735E+04  0.21984493735E+04  0.00000000000E+00 0. -1.
          1   -1    0    0  501    0 -0.00000000000E+00 -0.00000000000E+00 -0.82324581689E+02  0.82324581689E+02  0.00000000000E+00 0. -1.
         25    2    1    2    0    0 -0.71478158943E+02 -0.22560346835E+02  0.15941855258E+04  0.16008344839E+04  0.12500183103E+03 0.  0.
          2    1    1    2  501    0  0.27344528721E+02  0.47848461370E+02 -0.68159661530E+02  0.87652369998E+02  0.00000000000E+00 0. -1.
          1    1    1    2  502    0  0.44133630223E+02 -0.25288114535E+02  0.59009892752E+03  0.59228710126E+03  0.00000000000E+00 0. -1.
         22    1    3    3    0    0  0.18871861612E+02 -0.34520822739E+02  0.87690208730E+03  0.87778420189E+03  0.00000000000E+00 0.  1.
         22    1    3    3    0    0 -0.90350020556E+02  0.11960475904E+02  0.71728343847E+03  0.72305028200E+03  0.00000000000E+00 0.  1.
</event>
<event>
 7    1  0.6315518E-006  0.1876536E+03  0.7818608E-02  0.1343537E+00
          2   -1    0    0  502    0  0.00000000000E+00  0.00000000000E+00  0.21493770380E+04  0.21493770380E+04  0.00000000000E+00 0. -1.
          1   -1    0    0  501    0 -0.00000000000E+00 -0.00000000000E+00 -0.14753390712E+03  0.14753390712E+03  0.00000000000E+00 0. -1.
         25    2    1    2    0    0 -0.20151459088E+03 -0.72244781912E+00  0.10630264317E+03  0.25986856959E+03  0.12499107668E+03 0.  0.
          2    1    1    2  501    0  0.17848291005E+03 -0.18597344943E+02  0.43354032924E+02  0.18461197846E+03  0.00000000000E+00 0. -1.
          1    1    1    2  502    0  0.23031680828E+02  0.19319792762E+02  0.18521864548E+04  0.18524303971E+04  0.00000000000E+00 0. -1.
         22    1    3    3    0    0 -0.28227260774E+02  0.46076455846E+02  0.63156937293E+01  0.54403180251E+02  0.00000000000E+00 0. -1.
         22    1    3    3    0    0 -0.17328733011E+03 -0.46798903666E+02  0.99986949442E+02  0.20546538934E+03  0.00000000000E+00 0. -1.
</event>
<event>
 7    1  0.6315518E-006  0.4769844E+02  0.7818608E-02  0.1546619E+00
          2   -1    0    0  502    0  0.00000000000E+00  0.00000000000E+00  0.14990319634E+04  0.14990319634E+04  0.00000000000E+00 0. -1.
          1   -1    0    0  501    0 -0.00000000000E+00 -0.00000000000E+00 -0.26709759907E+02  0.26709759907E+02  0.00000000000E+00 0. -1.
         25    2    1    2    0    0  0.70432713173E+02  0.14050427857E+02  0.48354531133E+03  0.50457752274E+03  0.12499690691E+03 0.  0.
          2    1    1    2  501    0 -0.45697039547E+02 -0.60017505314E+01  0.17131076768E+02  0.49170257514E+02  0.00000000000E+00 0. -1.
          1    1    1    2  502    0 -0.24735673626E+02 -0.80486773259E+01  0.97164581536E+03  0.97199394302E+03  0.00000000000E+00 0. -1.
         22    1    3    3    0    0 -0.31639102979E+02  0.15571311220E+02  0.67086738328E+02  0.75790032524E+02  0.00000000000E+00 0.  1.
         22    1    3    3    0    0  0.10207181615E+03 -0.15208833623E+01  0.41645857300E+03  0.42878749021E+03  0.00000000000E+00 0.  1.
</event>
<event>
 7    1  0.6315518E-006  0.6145434E+02  0.7818608E-02  0.1418846E+00
          2   -1    0    0  502    0  0.00000000000E+00  0.00000000000E+00  0.19351706706E+04  0.19351706706E+04  0.00000000000E+00 0. -1.
          1   -1    0    0  501    0 -0.00000000000E+00 -0.00000000000E+00 -0.77600498110E+03  0.77600498110E+03  0.00000000000E+00 0. -1.
         25    2    1    2    0    0 -0.18760184023E+02 -0.46765812398E+02  0.70805555441E+02  0.15224049277E+03  0.12499902097E+03 0.  0.
          2    1    1    2  501    0 -0.30442233861E+02  0.53784479546E+02 -0.73364940441E+03  0.73624788518E+03  0.00000000000E+00 0. -1.
          1    1    1    2  502    0  0.49202417884E+02 -0.70186671470E+01  0.18220095385E+04  0.18226872738E+04  0.00000000000E+00 0. -1.
         22    1    3    3    0    0 -0.29945923890E+02 -0.64199772577E+02 -0.75048686276E+01  0.71236873947E+02  0.00000000000E+00 0. -1.
         22    1    3    3    0    0  0.11185739868E+02  0.17433960179E+02  0.78310424068E+02  0.81003618818E+02  0.00000000000E+00 0. -1.
</event>
<event>
 7    1  0.7604839E-006  0.7456944E+02  0.7818608E-02  0.1367246E+00
          2   -1    0    0  502    0  0.00000000000E+00  0.00000000000E+00  0.71383753293E+03  0.71383753293E+03  0.00000000000E+00 0. -1.
          1   -1    0    0  501    0 -0.00000000000E+00 -0.00000000000E+00 -0.19958703828E+04  0.19958703828E+04  0.00000000000E+00 0. -1.
         25    2    1    2    0    0 -0.11398832053E+03  0.47968092932E+02 -0.34684172925E+03  0.38886604888E+03  0.12499337447E+03 0.  0.
          2    1    1    2  501    0  0.61703814982E+02  0.48976276919E+01 -0.16254308334E+04  0.16266089701E+04  0.00000000000E+00 0. -1.
          1    1    1    2  502    0  0.52284505545E+02 -0.52865720624E+02  0.69023971273E+03  0.69423289677E+03  0.00000000000E+00 0. -1.
         22    1    3    3    0    0 -0.14114875821E+02 -0.13345310609E+02  0.32367011606E+01  0.19692721221E+02  0.00000000000E+00 0. -1.
         22    1    3    3    0    0 -0.99873444706E+02  0.61313403541E+02 -0.35007843042E+03  0.36917332766E+03  0.00000000000E+00 0. -1.
</event>
<event>
 7    1  0.6315518E-006  0.7508951E+02  0.7818608E-02  0.1410200E+00
          2   -1    0    0  502    0  0.00000000000E+00  0.00000000000E+00  0.11215969753E+04  0.11215969753E+04  0.00000000000E+00 0. -1.
          1   -1    0    0  501    0 -0.00000000000E+00 -0.00000000000E+00 -0.67479310580E+02  0.67479310580E+02  0.00000000000E+00 0. -1.
         25    2    1    2    0    0  0.88082291819E+02  0.47653421716E+02  0.14417722643E+03  0.21550093304E+03  0.12499696311E+03 0.  0.
          2    1    1    2  501    0 -0.42128506624E+02  0.10817807091E+02 -0.14728002032E+02  0.45921128737E+02  0.00000000000E+00 0. -1.
          1    1    1    2  502    0 -0.45953785195E+02 -0.58471228807E+02  0.92466844029E+03  0.92765422408E+03  0.00000000000E+00 0. -1.
         22    1    3    3    0    0  0.16195855323E+02 -0.39989858107E+02  0.20602834045E+02  0.47811831713E+02  0.00000000000E+00 0.  1.
         22    1    3    3    0    0  0.71886436496E+02  0.87643279823E+02  0.12357439239E+03  0.16768910133E+03  0.00000000000E+00 0.  1.
</event>
<event>
 7    1  0.6315518E-006  0.4463956E+02  0.7818608E-02  0.1512656E+00
          2   -1    0    0  502    0  0.00000000000E+00  0.00000000000E+00  0.12128779225E+04  0.12128779225E+04  0.00000000000E+00 0. -1.
          1   -1    0    0  501    0 -0.00000000000E+00 -0.00000000000E+00 -0.90618431202E+02  0.90618431202E+02  0.00000000000E+00 0. -1.
         25    2    1    2    0    0 -0.66610790357E+02  0.23786138408E+02  0.46582378912E+02  0.15099478973E+03  0.12500692273E+03 0.  0.
          2    1    1    2  501    0  0.22243191086E+02 -0.26736886555E+02 -0.30000058886E+02  0.45930645385E+02  0.00000000000E+00 0. -1.
          1    1    1    2  502    0  0.44367599272E+02  0.29507481463E+01  0.11056771712E+04  0.11065709186E+04  0.00000000000E+00 0. -1.
         22    1    3    3    0    0  0.14680318956E+01 -0.45626388456E+02  0.22182574139E+02  0.50754202157E+02  0.00000000000E+00 0. -1.
         22    1    3    3    0    0 -0.68078822253E+02  0.69412526864E+02  0.24399804773E+02  0.10024058758E+03  0.00000000000E+00 0. -1.
</event>
<event>
 7    1  0.6315518E-006  0.1912504E+03  0.7818608E-02  0.1198722E+00
          2   -1    0    0  502    0  0.00000000000E+00  0.00000000000E+00  0.52515798380E+03  0.52515798380E+03  0.00000000000E+00 0. -1.
          1   -1    0    0  501    0 -0.00000000000E+00 -0.00000000000E+00 -0.42363279171E+03  0.42363279171E+03  0.00000000000E+00 0. -1.
         25    2    1    2    0    0  0.10234901803E+03  0.10270873100E+03 -0.13947180721E+03  0.23685774197E+03  0.12499920004E+03 0.  0.
          2    1    1    2  501    0 -0.73401960133E+02  0.94814697795E+02 -0.19697948036E+03  0.23060483592E+03  0.00000000000E+00 0. -1.
          1    1    1    2  502    0 -0.28947057894E+02 -0.19752342880E+03  0.43797647966E+03  0.48132819761E+03  0.00000000000E+00 0. -1.
         22    1    3    3    0    0  0.86140605350E+02  0.74555731565E+02 -0.23369804715E+02  0.11629664127E+03  0.00000000000E+00 0.  1.
         22    1    3    3    0    0  0.16208412677E+02  0.28152999436E+02 -0.11610200249E+03  0.12056110070E+03  0.00000000000E+00 0.  1.
</event>
<event>
 7    1  0.6315518E-006  0.7640618E+02  0.7818608E-02  0.1435170E+00
          2   -1    0    0  502    0  0.00000000000E+00  0.00000000000E+00  0.12885365870E+04  0.12885365870E+04  0.00000000000E+00 0. -1.
          1   -1    0    0  501    0 -0.00000000000E+00 -0.00000000000E+00 -0.66186964904E+03  0.66186964904E+03  0.00000000000E+00 0. -1.
         25    2    1    2    0    0 -0.84270689528E+02  0.58598137076E+02  0.13343912298E+03  0.20968140255E+03  0.12500000100E+03 0.  0.
          2    1    1    2  501    0  0.71653580753E+02 -0.25626807918E+02 -0.62114690733E+03  0.62579105891E+03  0.00000000000E+00 0. -1.
          1    1    1    2  502    0  0.12617108774E+02 -0.32971329158E+02  0.11143747223E+04  0.11149337745E+04  0.00000000000E+00 0. -1.
         22    1    3    3    0    0 -0.13283746707E+00  0.67461093252E+02  0.24552991805E+02  0.71790432197E+02  0.00000000000E+00 0.  1.
         22    1    3    3    0    0 -0.84137852061E+02 -0.88629561760E+01  0.10888613117E+03  0.13789097035E+03  0.00000000000E+00 0.  1.
</event>
<event>
 7    1  0.6315518E-006  0.1189734E+03  0.7818608E-02  0.1381011E+00
          2   -1    0    0  502    0  0.00000000000E+00  0.00000000000E+00  0.65767966505E+02  0.65767966505E+02  0.00000000000E+00 0. -1.
          1   -1    0    0  501    0 -0.00000000000E+00 -0.00000000000E+00 -0.10464257319E+04  0.10464257319E+04  0.00000000000E+00 0. -1.
         25    2    1    2    0    0  0.45845654533E+02 -0.97792811104E+02 -0.11435836662E+03  0.20091665144E+03  0.12499762745E+03 0.  0.
          2    1    1    2  501    0 -0.79665253917E+02  0.90289620755E+02 -0.86826966497E+03  0.87657913470E+03  0.00000000000E+00 0. -1.
          1    1    1    2  502    0  0.33819599384E+02  0.75031903483E+01  0.19702661668E+01  0.34697912281E+02  0.00000000000E+00 0. -1.
         22    1    3    3    0    0 -0.25095789499E+01 -0.24920987323E+02 -0.11057787320E+03  0.11337909701E+03  0.00000000000E+00 0. -1.
         22    1    3    3    0    0  0.48355233483E+02 -0.72871823781E+02 -0.37804934162E+01  0.87537554437E+02  0.00000000000E+00 0. -1.
</event>
<event>
 7    1  0.6315518E-006  0.5841281E+02  0.7818608E-02  0.1485128E+00
          2   -1    0    0  502    0  0.00000000000E+00  0.00000000000E+00  0.58736359240E+02  0.58736359240E+02  0.00000000000E+00 0. -1.
          1   -1    0    0  501    0 -0.00000000000E+00 -0.00000000000E+00 -0.47459534402E+03  0.47459534402E+03  0.00000000000E+00 0. -1.
         25    2    1    2    0    0 -0.50963440138E+02  0.36480375142E+02 -0.15930890124E+03  0.21197266257E+03  0.12499997464E+03 0.  0.
          2    1    1    2  501    0 -0.76956163748E+01 -0.31187592775E+02 -0.26036417649E+03  0.26233831755E+03  0.00000000000E+00 0. -1.
          1    1    1    2  502    0  0.58659056513E+02 -0.52927823665E+01  0.38140929469E+01  0.59020723150E+02  0.00000000000E+00 0. -1.
         22    1    3    3    0    0 -0.81678706865E+02  0.12599106378E+02 -0.15107691783E+03  0.17220448234E+03  0.00000000000E+00 0. -1.
         22    1    3    3    0    0  0.30715266727E+02  0.23881268764E+02 -0.82319834146E+01  0.39768180231E+02  0.00000000000E+00 0. -1.
</event>
<event>
 7    1  0.6315518E-006  0.3668356E+02  0.7818608E-02  0.1547687E+00
          2   -1    0    0  502    0  0.00000000000E+00  0.00000000000E+00  0.39480700050E+03  0.39480700050E+03  0.00000000000E+00 0. -1.
          1   -1    0    0  501    0 -0.00000000000E+00 -0.00000000000E+00 -0.21716117090E+04  0.21716117090E+04  0.00000000000E+00 0. -1.
         25    2    1    2    0    0 -0.60098533220E+02  0.32112163271E+02 -0.59657977397E+03  0.61333123036E+03  0.12499898678E+03 0.  0.
          2    1    1    2  501    0  0.27848473482E+02 -0.22717365525E+02 -0.15657196435E+04  0.15661320564E+04  0.00000000000E+00 0. -1.
          1    1    1    2  502    0  0.32250059738E+02 -0.93947977458E+01  0.38549470893E+03  0.38695542274E+03  0.00000000000E+00 0. -1.
         22    1    3    3    0    0  0.22043672025E+01 -0.26698567247E+02 -0.37200928607E+03  0.37297262856E+03  0.00000000000E+00 0. -1.
         22    1    3    3    0    0 -0.62302900422E+02  0.58810730518E+02 -0.22457048790E+03  0.24035860180E+03  0.00000000000E+00 0. -1.
</event>
<event>
 7    1  0.6315518E-006  0.1386271E+03  0.7818608E-02  0.1364447E+00
          2   -1    0    0  502    0  0.00000000000E+00  0.00000000000E+00  0.15400607274E+04  0.15400607274E+04  0.00000000000E+00 0. -1.
          1   -1    0    0  501    0 -0.00000000000E+00 -0.00000000000E+00 -0.32461407223E+03  0.32461407223E+03  0.00000000000E+00 0. -1.
         25    2    1    2    0    0 -0.65270725279E+02  0.13376929688E+03 -0.12928717767E+03  0.23344038194E+03  0.12499898097E+03 0.  0.
          2    1    1    2  501    0  0.31397002905E+02 -0.13001591273E+03 -0.11178602979E+03  0.17431587940E+03  0.00000000000E+00 0. -1.
          1    1    1    2  502    0  0.33873722374E+02 -0.37533841454E+01  0.14565198627E+04  0.14569185383E+04  0.00000000000E+00 0. -1.
         22    1    3    3    0    0 -0.97353006533E+02  0.10537939839E+03 -0.68257500233E+02  0.15887577482E+03  0.00000000000E+00 0.  1.
         22    1    3    3    0    0  0.32082281254E+02  0.28389898488E+02 -0.61029677440E+02  0.74564607121E+02  0.00000000000E+00 0.  1.
</event>
<event>
 7    1  0.6315518E-006  0.5439646E+02  0.7818608E-02  0.1430355E+00
          2   -1    0    0  502    0  0.00000000000E+00  0.00000000000E+00  0.45135363325E+03  0.45135363325E+03  0.00000000000E+00 0. -1.
          1   -1    0    0  501    0 -0.00000000000E+00 -0.00000000000E+00 -0.10166479876E+03  0.10166479876E+03  0.00000000000E+00 0. -1.
         25    2    1    2    0    0 -0.48019884166E+02 -0.92625242212E+02  0.33513863250E+03  0.37259651139E+03  0.12499965017E+03 0.  0.
          2    1    1    2  501    0  0.21725302529E+02  0.48433479920E+02 -0.66097860129E+02  0.84774511858E+02  0.00000000000E+00 0. -1.
          1    1    1    2  502    0  0.26294581638E+02  0.44191762292E+02  0.80648062118E+02  0.95647408754E+02  0.00000000000E+00 0. -1.
         22    1    3    3    0    0  0.95796045997E+01 -0.76478016122E+02  0.82211356825E+02  0.11269145028E+03  0.00000000000E+00 0.  1.
         22    1    3    3    0    0 -0.57599488766E+02 -0.16147226090E+02  0.25292727567E+03  0.25990506112E+03  0.00000000000E+00 0.  1.
</event>
<event>
 7    1  0.6315518E-006  0.6763864E+02  0.7818608E-02  0.1431626E+00
          2   -1    0    0  502    0  0.00000000000E+00  0.00000000000E+00  0.74948392050E+03  0.74948392050E+03  0.00000000000E+00 0. -1.
          1   -1    0    0  501    0 -0.00000000000E+00 -0.00000000000E+00 -0.22873301551E+03  0.22873301551E+03  0.00000000000E+00 0. -1.
         25    2    1    2    0    0  0.29430603267E+02  0.17560205486E+02  0.10965337118E+03  0.16976976160E+03  0.12499355550E+03 0.  0.
          2    1    1    2  501    0  0.40054317562E+02 -0.85626104408E+01 -0.19452232135E+03  0.19878782698E+03  0.00000000000E+00 0. -1.
          1    1    1    2  502    0 -0.69484920829E+02 -0.89975950455E+01  0.60561985516E+03  0.60965934743E+03  0.00000000000E+00 0. -1.
         22    1    3    3    0    0  0.23932914347E+02  0.67593240312E+02  0.35149870253E+02  0.79857021632E+02  0.00000000000E+00 0.  1.
         22    1    3    3    0    0  0.54976889200E+01 -0.50033034826E+02  0.74503500930E+02  0.89912739966E+02  0.00000000000E+00 0.  1.
</event>
<event>
 7    1  0.6315518E-006  0.1078111E+03  0.7818608E-02  0.1350581E+00
          2   -1    0    0  502    0  0.00000000000E+00  0.00000000000E+00  0.78293880320E+03  0.78293880320E+03  0.00000000000E+00 0. -1.
          1   -1    0    0  501    0 -0.00000000000E+00 -0.00000000000E+00 -0.22924567108E+03  0.22924567108E+03  0.00000000000E+00 0. -1.
         25    2    1    2    0    0 -0.57849611256E+02 -0.43712271566E+02 -0.22381582216E+02  0.14622950652E+03  0.12499917258E+03 0.  0.
          2    1    1    2  501    0 -0.57034912385E+00 -0.49256387240E+02 -0.13642430057E+03  0.14504518871E+03  0.00000000000E+00 0. -1.
          1    1    1    2  502    0  0.58419960380E+02  0.92968658806E+02  0.71249901490E+03  0.72090977905E+03  0.00000000000E+00 0. -1.
         22    1    3    3    0    0  0.24363243126E+02  0.23757488968E+02 -0.20763127496E+02  0.39863433885E+02  0.00000000000E+00 0. -1.
         22    1    3    3    0    0 -0.82212854382E+02 -0.67469760534E+02 -0.16184547195E+01  0.10636607264E+03  0.00000000000E+00 0. -1.
</event>
<event>
 7    1  0.6315518E-006  0.6639769E+02  0.7818608E-02  0.1418429E+00
          2   -1    0    0  502    0  0.00000000000E+00  0.00000000000E+00  0.12712415634E+04  0.12712415634E+04  0.00000000000E+00 0. -1.
          1   -1    0    0  501    0 -0.00000000000E+00 -0.00000000000E+00 -0.91922462006E+03  0.91922462006E+03  0.00000000000E+00 0. -1.
         25    2    1    2    0    0 -0.49697293629E+02 -0.44958350761E+02  0.16506642252E+03  0.21762993746E+03  0.12499916615E+03 0.  0.
          2    1    1    2  501    0 -0.17248640611E+02  0.42803808272E+02 -0.89130671872E+03  0.89250061537E+03  0.00000000000E+00 0. -1.
          1    1    1    2  502    0  0.66945934240E+02  0.21545424893E+01  0.10782572395E+04  0.10803356306E+04  0.00000000000E+00 0. -1.
         22    1    3    3    0    0 -0.41952635189E+02 -0.61319524200E+01  0.17225077964E+03  0.17739209545E+03  0.00000000000E+00 0.  1.
         22    1    3    3    0    0 -0.77446584397E+01 -0.38826398341E+02 -0.71843571242E+01  0.40237842012E+02  0.00000000000E+00 0.  1.
</event>
<event>
 7    1  0.6315518E-006  0.1761738E+03  0.7818608E-02  0.1187230E+00
          2   -1    0    0  502    0  0.00000000000E+00  0.00000000000E+00  0.15827669325E+03  0.15827669325E+03  0.00000000000E+00 0. -1.
          1   -1    0    0  501    0 -0.00000000000E+00 -0.00000000000E+00 -0.27408067230E+04  0.27408067230E+04  0.00000000000E+00 0. -1.
         25    2    1    2    0    0 -0.15217989144E+03 -0.52131474658E+02 -0.59150840005E+02  0.21211841803E+03  0.12497596323E+03 0.  0.
          2    1    1    2  501    0  0.45951625233E+02 -0.14036349243E+03 -0.24510743407E+04  0.24555200845E+04  0.00000000000E+00 0. -1.
          1    1    1    2  502    0  0.10622826621E+03  0.19249496709E+03 -0.72304849115E+02  0.23144491375E+03  0.00000000000E+00 0. -1.
         22    1    3    3    0    0 -0.77006274870E+02 -0.17880167965E+01 -0.88195602410E+02  0.11709665947E+03  0.00000000000E+00 0. -1.
         22    1    3    3    0    0 -0.75173616573E+02 -0.50343457862E+02  0.29044762405E+02  0.95021758567E+02  0.00000000000E+00 0. -1.
</event>
<event>
 7    1  0.6315518E-006  0.9231026E+02  0.7818608E-02  0.1313544E+00
          2   -1    0    0  502    0  0.00000000000E+00  0.00000000000E+00  0.96578305944E+03  0.96578305944E+03  0.00000000000E+00 0. -1.
          1   -1    0    0  501    0 -0.00000000000E+00 -0.00000000000E+00 -0.43245853105E+03  0.43245853105E+03  0.00000000000E+00 0. -1.
         25    2    1    2    0    0  0.19279201477E+02 -0.11265744264E+03 -0.12497690923E+03  0.21048646795E+03  0.12498775283E+03 0.  0.
          2    1    1    2  501    0  0.54967295122E+02  0.57590401610E+02 -0.25635862051E+03  0.26843584001E+03  0.00000000000E+00 0. -1.
          1    1    1    2  502    0 -0.74246496599E+02  0.55067041030E+02  0.91466005814E+03  0.91931928252E+03  0.00000000000E+00 0. -1.
         22    1    3    3    0    0 -0.27105856469E+02 -0.30998831831E+02  0.13353130276E+02  0.43289272550E+02  0.00000000000E+00 0. -1.
         22    1    3    3    0    0  0.46385057946E+02 -0.81658610809E+02 -0.13833003951E+03  0.16719719540E+03  0.00000000000E+00 0. -1.
</event>
<event>
 7    1  0.6315518E-006  0.3860276E+02  0.7818608E-02  0.1524017E+00
          2   -1    0    0  502    0  0.00000000000E+00  0.00000000000E+00  0.98450810093E+03  0.98450810093E+03  0.00000000000E+00 0. -1.
          1   -1    0    0  501    0 -0.00000000000E+00 -0.00000000000E+00 -0.18499854169E+03  0.18499854169E+03  0.00000000000E+00 0. -1.
         25    2    1    2    0    0  0.73679180830E+02  0.95315203640E+01  0.18645449047E+03  0.23645185307E+03  0.12499892094E+03 0.  0.
          2    1    1    2  501    0 -0.36460670828E+02 -0.11490814766E+02 -0.15725939779E+03  0.16183923361E+03  0.00000000000E+00 0. -1.
          1    1    1    2  502    0 -0.37218510003E+02  0.19592944015E+01  0.77031446656E+03  0.77121555593E+03  0.00000000000E+00 0. -1.
         22    1    3    3    0    0  0.19339134241E+02  0.13789358263E+02 -0.14774116026E+02  0.27971825447E+02  0.00000000000E+00 0. -1.
         22    1    3    3    0    0  0.54340046589E+02 -0.42578378986E+01  0.20122860650E+03  0.20848002763E+03  0.00000000000E+00 0. -1.
</event>
<event>
 7    1  0.6315518E-006  0.4978537E+02  0.7818608E-02  0.1468236E+00
          2   -1    0    0  502    0  0.00000000000E+00  0.00000000000E+00  0.17479929976E+03  0.17479929976E+03  0.00000000000E+00 0. -1.
          1   -1    0    0  501    0 -0.00000000000E+00 -0.00000000000E+00 -0.15060207498E+04  0.15060207498E+04  0.00000000000E+00 0. -1.
         25    2    1    2    0    0  0.78468778619E+02 -0.48155112685E+02  0.23415905750E+02  0.15700178530E+03  0.12499996740E+03 0.  0.
          2    1    1    2  501    0 -0.41955435995E+02  0.26426548696E+02 -0.14334363891E+04  0.14342937295E+04  0.00000000000E+00 0. -1.
          1    1    1    2  502    0 -0.36513342625E+02  0.21728563989E+02  0.78799033247E+02  0.89524534757E+02  0.00000000000E+00 0. -1.
         22    1    3    3    0    0  0.71200950389E+02 -0.51198375353E+02  0.68471868616E+02  0.11126205897E+03  0.00000000000E+00 0.  1.
         22    1    3    3    0    0  0.72678282303E+01  0.30432626680E+01 -0.45055962866E+02  0.45739726328E+02  0.00000000000E+00 0.  1.
</event>
<event>
 7    1  0.6315518E-006  0.2043757E+03  0.7818608E-02  0.1295063E+00
          2   -1    0    0  502    0  0.00000000000E+00  0.00000000000E+00  0.16152785721E+04  0.16152785721E+04  0.00000000000E+00 0. -1.
          1   -1    0    0  501    0 -0.00000000000E+00 -0.00000000000E+00 -0.45929552201E+03  0.45929552201E+03  0.00000000000E+00 0. -1.
         25    2    1    2    0    0  0.72050314910E+02  0.22360650020E+03  0.71474378923E+03  0.76267602434E+03  0.12499967622E+03 0.  0.
          2    1    1    2  501    0 -0.36501898052E+02 -0.20015303800E+03 -0.41099716813E+03  0.45859818947E+03  0.00000000000E+00 0. -1.
          1    1    1    2  502    0 -0.35548416858E+02 -0.23453462197E+02  0.85223642895E+03  0.85329988026E+03  0.00000000000E+00 0. -1.
         22    1    3    3    0    0  0.88423570736E+01  0.11980022683E+03  0.51532129766E+03  0.52913733704E+03  0.00000000000E+00 0.  1.
         22    1    3    3    0    0  0.63207957837E+02  0.10380627336E+03  0.19942249158E+03  0.23353868731E+03  0.00000000000E+00 0.  1.
</event>
<event>
 7    1  0.6315518E-006  0.1119016E+03  0.7818608E-02  0.1454786E+00
          2   -1    0    0  502    0  0.00000000000E+00  0.00000000000E+00  0.17561101368E+03  0.17561101368E+03  0.00000000000E+00 0. -1.
          1   -1    0    0  501    0 -0.00000000000E+00 -0.00000000000E+00 -0.15805040841E+04  0.15805040841E+04  0.00000000000E+00 0. -1.
         25    2    1    2    0    0 -0.91170150508E+02 -0.32379160164E+02 -0.58117630737E+03  0.60228699573E+03  0.12499327430E+03 0.  0.
          2    1    1    2  501    0 -0.89010160825E+01 -0.18842915646E+02 -0.96950553024E+03  0.96972947605E+03  0.00000000000E+00 0. -1.
          1    1    1    2  502    0  0.10007116659E+03  0.51222075810E+02  0.14578876723E+03  0.18409862597E+03  0.00000000000E+00 0. -1.
         22    1    3    3    0    0 -0.22067283824E+00 -0.66680342320E+01  0.51272891923E+01  0.84143016040E+01  0.00000000000E+00 0. -1.
         22    1    3    3    0    0 -0.90949477670E+02 -0.25711125932E+02 -0.58630359656E+03  0.59387269412E+03  0.00000000000E+00 0. -1.
</event>
<event>
 7    1  0.6315518E-006  0.9249056E+02  0.7818608E-02  0.1360857E+00
          2   -1    0    0  502    0  0.00000000000E+00  0.00000000000E+00  0.83264163009E+03  0.83264163009E+03  0.00000000000E+00 0. -1.
          1   -1    0    0  501    0 -0.00000000000E+00 -0.00000000000E+00 -0.74725891723E+03  0.74725891723E+03  0.00000000000E+00 0. -1.
         25    2    1    2    0    0 -0.46980296921E+02  0.30374870739E+02 -0.78150936445E+02  0.15767708081E+03  0.12499884750E+03 0.  0.
          2    1    1    2  501    0  0.36798663374E+01  0.52510646663E+02 -0.62547815830E+03  0.62768928295E+03  0.00000000000E+00 0. -1.
          1    1    1    2  502    0  0.43300430583E+02 -0.82885517402E+02  0.78901180761E+03  0.79453418355E+03  0.00000000000E+00 0. -1.
         22    1    3    3    0    0 -0.43572831688E+02 -0.85895672847E+01 -0.10242832256E+03  0.11164198848E+03  0.00000000000E+00 0.  1.
         22    1    3    3    0    0 -0.34074652323E+01  0.38964438024E+02  0.24277386120E+02  0.46035092339E+02  0.00000000000E+00 0.  1.
</event>
<event>
 7    1  0.6315518E-006  0.1233496E+03  0.7818608E-02  0.1351893E+00
          2   -1    0    0  502    0  0.00000000000E+00  0.00000000000E+00  0.16485713948E+04  0.16485713948E+04  0.00000000000E+00 0. -1.
          1   -1    0    0  501    0 -0.00000000000E+00 -0.00000000000E+00 -0.21794953549E+04  0.21794953549E+04  0.00000000000E+00 0. -1.
         25    2    1    2    0    0  0.13466997918E+03  0.19878934356E+01  0.27505987413E+03  0.33079496443E+03  0.12500967613E+03 0.  0.
          2    1    1    2  501    0 -0.11648790379E+03 -0.40486380809E+02 -0.21495232125E+04  0.21530579695E+04  0.00000000000E+00 0. -1.
          1    1    1    2  502    0 -0.18182075396E+02  0.38498487373E+02  0.13435393783E+04  0.13442138158E+04  0.00000000000E+00 0. -1.
         22    1    3    3    0    0  0.13717400684E+03  0.38134427403E+02  0.18300401179E+03  0.23186507076E+03  0.00000000000E+00 0.  1.
         22    1    3    3    0    0 -0.25040276553E+01 -0.36146533967E+02  0.92055862337E+02  0.98929893677E+02  0.00000000000E+00 0.  1.
</event>
<event>
 7    1  0.6315518E-006  0.5919973E+02  0.7818608E-02  0.1447621E+00
          2   -1    0    0  502    0  0.00000000000E+00  0.00000000000E+00  0.20991979921E+04  0.20991979921E+04  0.00000000000E+00 0. -1.
          1   -1    0    0  501    0 -0.00000000000E+00 -0.00000000000E+00 -0.21794131452E+03  0.21794131452E+03  0.00000000000E+00 0. -1.
         25    2    1    2    0    0 -0.58061379116E+02  0.12108492429E+02  0.11762066332E+03  0.18159452423E+03  0.12499684579E+03 0.  0.
          2    1    1    2  501    0  0.22088006267E+02  0.35161117291E+02 -0.18317769624E+03  0.18782505847E+03  0.00000000000E+00 0. -1.
          1    1    1    2  502    0  0.35973372849E+02 -0.47269609720E+02  0.19468137105E+04  0.19477197239E+04  0.00000000000E+00 0. -1.
         22    1    3    3    0    0 -0.72546311647E+02 -0.21527854177E+02  0.12316498733E+03  0.14455459156E+03  0.00000000000E+00 0.  1.
         22    1    3    3    0    0  0.14484932531E+02  0.33636346607E+02 -0.55443240030E+01  0.37039932669E+02  0.00000000000E+00 0.  1.
</event>
<event>
 7    1  0.6315518E-006  0.5082435E+02  0.7818608E-02  0.1567005E+00
          2   -1    0    0  502    0  0.00000000000E+00  0.00000000000E+00  0.42597033107E+03  0.42597033107E+03  0.00000000000E+00 0. -1.
          1   -1    0    0  501    0 -0.00000000000E+00 -0.00000000000E+00 -0.55182589620E+03  0.55182589620E+03  0.00000000000E+00 0. -1.
         25    2    1    2    0    0 -0.19512801562E+02  0.30871679892E+02  0.11136031635E+03  0.17134661120E+03  0.12499892427E+03 0.  0.
          2    1    1    2  501    0  0.98484749034E+01 -0.50011472585E+02 -0.52018147120E+03  0.52267284493E+03  0.00000000000E+00 0. -1.
          1    1    1    2  502    0  0.96643266590E+01  0.19139792692E+02  0.28296558971E+03  0.28377677114E+03  0.00000000000E+00 0. -1.
         22    1    3    3    0    0  0.26112327092E+02  0.66871979628E+02  0.55562588542E+02  0.90779494000E+02  0.00000000000E+00 0.  1.
         22    1    3    3    0    0 -0.45625128654E+02 -0.36000299735E+02  0.55797727811E+02  0.80567117204E+02  0.00000000000E+00 0.  1.
</event>
<event>
 7    1  0.6315518E-006  0.8210863E+02  0.7818608E-02  0.1417029E+00
          2   -1    0    0  502    0  0.00000000000E+00  0.00000000000E+00  0.14183858979E+04  0.14183858979E+04  0.00000000000E+00 0. -1.
          1   -1    0    0  501    0 -0.00000000000E+00 -0.00000000000E+00 -0.57559353164E+03  0.57559353164E+03  0.00000000000E+00 0. -1.
         25    2    1    2    0    0  0.78896789297E+02 -0.90033463666E+02  0.10232291941E+04  0.10377639951E+04  0.12500159178E+03 0.  0.
          2    1    1    2  501    0 -0.53423267135E+02  0.62209671569E+02 -0.56443922184E+03  0.57036455347E+03  0.00000000000E+00 0. -1.
          1    1    1    2  502    0 -0.25473522162E+02  0.27823792097E+02  0.38400239402E+03  0.38585088098E+03  0.00000000000E+00 0. -1.
         22    1    3    3    0    0  0.70018362768E+02  0.10050923234E+02  0.49948279273E+03  0.50446670100E+03  0.00000000000E+00 0.  1.
         22    1    3    3    0    0  0.88784265288E+01 -0.10008438690E+03  0.52374640140E+03  0.53329729414E+03  0.00000000000E+00 0.  1.
</event>
<event>
 7    1  0.6315518E-006  0.1415672E+03  0.7818608E-02  0.1288680E+00
          2   -1    0    0  502    0  0.00000000000E+00  0.00000000000E+00  0.70171325539E+03  0.70171325539E+03  0.00000000000E+00 0. -1.
          1   -1    0    0  501    0 -0.00000000000E+00 -0.00000000000E+00 -0.76044945752E+03  0.76044945752E+03  0.00000000000E+00 0. -1.
         25    2    1    2    0    0  0.31292345353E+02 -0.84909719691E+02  0.49129395064E+02  0.16199543028E+03  0.12505978808E+03 0.  0.
          2    1    1    2  501    0 -0.89238116863E+02  0.11492583468E+03 -0.69467022500E+03  0.70974510247E+03  0.00000000000E+00 0. -1.
          1    1    1    2  502    0  0.57945771509E+02 -0.30016114989E+02  0.58680462781E+03  0.59042218016E+03  0.00000000000E+00 0. -1.
         22    1    3    3    0    0 -0.35419170761E+02 -0.58869276553E+02  0.57899208666E+02  0.89846690220E+02  0.00000000000E+00 0. -1.
         22    1    3    3    0    0  0.66711516115E+02 -0.26040443138E+02 -0.87698136023E+01  0.72148740057E+02  0.00000000000E+00 0. -1.
</event>
<event>
 7    1  0.6315518E-006  0.9638323E+02  0.7818608E-02  0.1390874E+00
          2   -1    0    0  502    0  0.00000000000E+00  0.00000000000E+00  0.18761550256E+03  0.18761550256E+03  0.00000000000E+00 0. -1.
          1   -1    0    0  501    0 -0.00000000000E+00 -0.00000000000E+00 -0.95887880018E+03  0.95887880018E+03  0.00000000000E+00 0. -1.
         25    2    1    2    0    0 -0.42554585665E+02 -0.49347796724E+02 -0.18270196561E+03  0.23076300036E+03  0.12500182517E+03 0.  0.
          2    1    1    2  501    0 -0.38948120209E+02 -0.64854251266E+01 -0.73665338945E+03  0.73771080580E+03  0.00000000000E+00 0. -1.
          1    1    1    2  502    0  0.81502705875E+02  0.55833221851E+02  0.14809205743E+03  0.17802049658E+03  0.00000000000E+00 0. -1.
         22    1    3    3    0    0 -0.56642884711E+02 -0.19055570606E+02 -0.17578641826E+02  0.62293978906E+02  0.00000000000E+00 0.  1.
         22    1    3    3    0    0  0.14088299046E+02 -0.30292226118E+02 -0.16512332378E+03  0.16846902145E+03  0.00000000000E+00 0.  1.
</event>
<event>
 7    1  0.6315518E-006  0.9972226E+02  0.7818608E-02  0.1350466E+00
          2   -1    0    0  502    0  0.00000000000E+00  0.00000000000E+00  0.31972877389E+03  0.31972877389E+03  0.00000000000E+00 0. -1.
          1   -1    0    0  501    0 -0.00000000000E+00 -0.00000000000E+00 -0.25320834516E+03  0.25320834516E+03  0.00000000000E+00 0. -1.
         25    2    1    2    0    0  0.74380877868E+02 -0.96012029968E+01  0.83218501962E+02  0.16785218273E+03  0.12499735233E+03 0.  0.
          2    1    1    2  501    0  0.31909122345E+02  0.42702707550E+02 -0.19098093401E+03  0.19828119043E+03  0.00000000000E+00 0. -1.
          1    1    1    2  502    0 -0.10629000021E+03 -0.33101504553E+02  0.17428286078E+03  0.20680374589E+03  0.00000000000E+00 0. -1.
         22    1    3    3    0    0 -0.38992884803E+00  0.27268063909E+02  0.79892984587E+02  0.84419123071E+02  0.00000000000E+00 0. -1.
         22    1    3    3    0    0  0.74770806716E+02 -0.36869266905E+02  0.33255173748E+01  0.83433059664E+02  0.00000000000E+00 0. -1.
</event>
<event>
 7    1  0.6315518E-006  0.1257360E+03  0.7818608E-02  0.1242557E+00
          2   -1    0    0  502    0  0.00000000000E+00  0.00000000000E+00  0.10662041391E+04  0.10662041391E+04  0.00000000000E+00 0. -1.
          1   -1    0    0  501    0 -0.00000000000E+00 -0.00000000000E+00 -0.24911631740E+03  0.24911631740E+03  0.00000000000E+00 0. -1.
         25    2    1    2    0    0 -0.58575167760E+02 -0.23958933257E+02  0.83941217523E+02  0.16332724465E+03  0.12499832033E+03 0.  0.
          2    1    1    2  501    0 -0.81739597594E+01  0.13051456417E+03 -0.18429432974E+03  0.22597624887E+03  0.00000000000E+00 0. -1.
          1    1    1    2  502    0  0.66749127520E+02 -0.10655563092E+03  0.91744093386E+03  0.92601696293E+03  0.00000000000E+00 0. -1.
         22    1    3    3    0    0 -0.64618710206E+02  0.38287693088E+02  0.60834020470E+02  0.96655590615E+02  0.00000000000E+00 0. -1.
         22    1    3    3    0    0  0.60435424453E+01 -0.62246626345E+02  0.23107197053E+02  0.66671654039E+02  0.00000000000E+00 0. -1.
</event>
<event>
 7    1  0.6315518E-006  0.5098219E+02  0.7818608E-02  0.1486723E+00
          2   -1    0    0  502    0  0.00000000000E+00  0.00000000000E+00  0.88305146829E+02  0.88305146829E+02  0.00000000000E+00 0. -1.
          1   -1    0    0  501    0 -0.00000000000E+00 -0.00000000000E+00 -0.36128583694E+03  0.36128583694E+03  0.00000000000E+00 0. -1.
         25    2    1    2    0    0  0.34320850673E+02  0.24702827497E+01 -0.80983807606E+02  0.15285590660E+03  0.12499011161E+03 0.  0.
          2    1    1    2  501    0  0.33403628648E+01  0.36242189007E+02 -0.22860752339E+03  0.23148661740E+03  0.00000000000E+00 0. -1.
          1    1    1    2  502    0 -0.37661213538E+02 -0.38712471757E+02  0.36610640885E+02  0.65248459757E+02  0.00000000000E+00 0. -1.
         22    1    3    3    0    0  0.74555244571E+02  0.30524273395E+02 -0.51898153108E+02  0.95831279107E+02  0.00000000000E+00 0.  1.
         22    1    3    3    0    0 -0.40234393898E+02 -0.28053990646E+02 -0.29085654498E+02  0.57024627496E+02  0.00000000000E+00 0.  1.
</event>
<event>
 7    1  0.6315518E-006  0.7130112E+02  0.7818608E-02  0.1476676E+00
          2   -1    0    0  502    0  0.00000000000E+00  0.00000000000E+00  0.20389560364E+04  0.20389560364E+04  0.00000000000E+00 0. -1.
          1   -1    0    0  501    0 -0.00000000000E+00 -0.00000000000E+00 -0.17215919601E+03  0.17215919601E+03  0.00000000000E+00 0. -1.
         25    2    1    2    0    0  0.52860170067E+02 -0.13986228240E+02  0.19812979851E+03  0.24056880865E+03  0.12501248927E+03 0.  0.
          2    1    1    2  501    0 -0.71780616676E+02 -0.65634719365E+01 -0.14222051440E+03  0.15944344079E+03  0.00000000000E+00 0. -1.
          1    1    1    2  502    0  0.18920446609E+02  0.20549700177E+02  0.18108875563E+04  0.18111029830E+04  0.00000000000E+00 0. -1.
         22    1    3    3    0    0 -0.17072285825E+02  0.35236265276E+02  0.11428074179E+03  0.12080209136E+03  0.00000000000E+00 0. -1.
         22    1    3    3    0    0  0.69932455892E+02 -0.49222493517E+02  0.83849056728E+02  0.11976671728E+03  0.00000000000E+00 0. -1.
</event>
<event>
 7    1  0.6315518E-006  0.1991752E+03  0.7818608E-02  0.1202522E+00
          2   -1    0    0  502    0  0.00000000000E+00  0.00000000000E+00  0.16399945850E+04  0.16399945850E+04  0.00000000000E+00 0. -1.
          1   -1    0    0  501    0 -0.00000000000E+00 -0.00000000000E+00 -0.35936216114E+03  0.35936216114E+03  0.00000000000E+00 0. -1.
         25    2    1    2    0    0 -0.10216014258E+03  0.81238095922E+02  0.48353268711E+03  0.51620544246E+03  0.12501150490E+03 0.  0.
          2    1    1    2  501    0  0.77760812055E+02 -0.18899606678E+03 -0.30958938711E+03  0.37096070649E+03  0.00000000000E+00 0. -1.
          1    1    1    2  502    0  0.24399330525E+02  0.10775797085E+03  0.11066891238E+04  0.11121905972E+04  0.00000000000E+00 0. -1.
         22    1    3    3    0    0  0.20736663486E+02  0.43080062568E+02  0.18580453493E+03  0.19185730689E+03  0.00000000000E+00 0. -1.
         22    1    3    3    0    0 -0.12289680607E+03  0.38158033354E+02  0.29772815218E+03  0.32434813558E+03  0.00000000000E+00 0. -1.
</event>
<event>
 7    1  0.6315518E-006  0.8307976E+02  0.7818608E-02  0.1351137E+00
          2   -1    0    0  502    0  0.00000000000E+00  0.00000000000E+00  0.28165853751E+03  0.28165853751E+03  0.00000000000E+00 0. -1.
          1   -1    0    0  501    0 -0.00000000000E+00 -0.00000000000E+00 -0.96852536059E+03  0.96852536059E+03  0.00000000000E+00 0. -1.
         25    2    1    2    0    0 -0.41226202922E+02  0.21864400926E+02 -0.23688504582E+03  0.27187624946E+03  0.12499807299E+03 0.  0.
          2    1    1    2  501    0 -0.38054877292E+02 -0.50985299522E+02 -0.70592633355E+03  0.70878745958E+03  0.00000000000E+00 0. -1.
          1    1    1    2  502    0  0.79281080215E+02  0.29120898596E+02  0.25594455629E+03  0.26952018906E+03  0.00000000000E+00 0. -1.
         22    1    3    3    0    0 -0.81252285914E+02  0.14700636902E+02 -0.20227394564E+03  0.21847835540E+03  0.00000000000E+00 0.  1.
         22    1    3    3    0    0  0.40026082992E+02  0.71637640238E+01 -0.34611100174E+02  0.53397894059E+02  0.00000000000E+00 0.  1.
</event>
<event>
 7    1  0.6315518E-006  0.1088838E+03  0.7818608E-02  0.1438088E+00
          2   -1    0    0  502    0  0.00000000000E+00  0.00000000000E+00  0.23763320991E+03  0.23763320991E+03  0.00000000000E+00 0. -1.
          1   -1    0    0  501    0 -0.00000000000E+00 -0.00000000000E+00 -0.36318035518E+03  0.36318035518E+03  0.00000000000E+00 0. -1.
         25    2    1    2    0    0  0.12379306228E+03 -0.39860483785E+02 -0.45931058400E+02  0.18613999433E+03  0.12499941971E+03 0.  0.
          2    1    1    2  501    0 -0.23229122926E+02  0.69129996328E+01 -0.22973204107E+03  0.23100690988E+03  0.00000000000E+00 0. -1.
          1    1    1    2  502    0 -0.10056393936E+03  0.32947484152E+02  0.15011595420E+03  0.18366666088E+03  0.00000000000E+00 0. -1.
         22    1    3    3    0    0  0.34352532254E+02 -0.35722799163E+02  0.38743171542E+02  0.62906662552E+02  0.00000000000E+00 0. -1.
         22    1    3    3    0    0  0.89440530028E+02 -0.41376846217E+01 -0.84674229942E+02  0.12323333178E+03  0.00000000000E+00 0. -1.
</event>
<event>
 7    1  0.6315518E-006  0.9469347E+02  0.7818608E-02  0.1448563E+00
          2   -1    0    0  502    0  0.00000000000E+00  0.00000000000E+00  0.37293916354E+03  0.37293916354E+03  0.00000000000E+00 0. -1.
          1   -1    0    0  501    0 -0.00000000000E+00 -0.00000000000E+00 -0.18923634376E+04  0.18923634376E+04  0.00000000000E+00 0. -1.
         25    2    1    2    0    0 -0.10858251190E+03 -0.50709542225E+02  0.88256381240E+02  0.19435788401E+03  0.12499671470E+03 0.  0.
          2    1    1    2  501    0  0.83786881652E+02  0.43657010507E+02 -0.18373779234E+04  0.18398053728E+04  0.00000000000E+00 0. -1.
          1    1    1    2  502    0  0.24795630245E+02  0.70525317178E+01  0.22969726818E+03  0.23113934432E+03  0.00000000000E+00 0. -1.
         22    1    3    3    0    0 -0.72824682884E+01 -0.57694318676E+02  0.70312085755E+02  0.91243948594E+02  0.00000000000E+00 0.  1.
         22    1    3    3    0    0 -0.10130004361E+03  0.69847764507E+01  0.17944295485E+02  0.10311393542E+03  0.00000000000E+00 0.  1.
</event>
<event>
 7    1  0.6315518E-006  0.1288019E+03  0.7818608E-02  0.1340040E+00
          2   -1    0    0  502    0  0.00000000000E+00  0.00000000000E+00  0.38694652787E+04  0.38694652787E+04  0.00000000000E+00 0. -1.
          1   -1    0    0  501    0 -0.00000000000E+00 -0.00000000000E+00 -0.98838541948E+02  0.98838541948E+02  0.00000000000E+00 0. -1.
         25    2    1    2    0    0  0.10750553764E+03  0.10702110774E+03  0.16274517230E+04  0.16392787490E+04  0.12499899283E+03 0.  0.
          2    1    1    2  501    0 -0.89430559102E+00 -0.45132035249E+02 -0.85637345579E+02  0.96806277411E+02  0.00000000000E+00 0. -1.
          1    1    1    2  502    0 -0.10661123205E+03 -0.61889072489E+02  0.22288123594E+04  0.22322187943E+04  0.00000000000E+00 0. -1.
         22    1    3    3    0    0  0.11215911456E+03  0.77964715022E+02  0.15562877132E+04  0.15622706583E+04  0.00000000000E+00 0.  1.
         22    1    3    3    0    0 -0.46535769179E+01  0.29056392717E+02  0.71164009820E+02  0.77008090675E+02  0.00000000000E+00 0.  1.
</event>
<event>
 7    1  0.6315518E-006  0.4822960E+02  0.7818608E-02  0.1503365E+00
          2   -1    0    0  502    0  0.00000000000E+00  0.00000000000E+00  0.64811902218E+03  0.64811902218E+03  0.00000000000E+00 0. -1.
          1   -1    0    0  501    0 -0.00000000000E+00 -0.00000000000E+00 -0.96520903418E+02  0.96520903418E+02  0.00000000000E+00 0. -1.
         25    2    1    2    0    0 -0.61876631102E+02 -0.32395736109E+02  0.27734106008E+03  0.31212815955E+03  0.12501089227E+03 0.  0.
          2    1    1    2  501    0  0.28171802774E+02  0.38698385966E+02 -0.70960436035E+02  0.85595554967E+02  0.00000000000E+00 0. -1.
          1    1    1    2  502    0  0.33704828327E+02 -0.63026498568E+01  0.34521749472E+03  0.34691621108E+03  0.00000000000E+00 0. -1.
         22    1    3    3    0    0 -0.85418666376E+02  0.52558070072E+01  0.11215151987E+03  0.14107421977E+03  0.00000000000E+00 0.  1.
         22    1    3    3    0    0  0.23542035275E+02 -0.37651543116E+02  0.16518954020E+03  0.17105393979E+03  0.00000000000E+00 0.  1.
</event>
<event>
 7    1  0.6315518E-006  0.6869154E+02  0.7818608E-02  0.1405265E+00
          2   -1    0    0  502    0  0.00000000000E+00  0.00000000000E+00  0.25348179353E+03  0.25348179353E+03  0.00000000000E+00 0. -1.
          1   -1    0    0  501    0 -0.00000000000E+00 -0.00000000000E+00 -0.17428292015E+04  0.17428292015E+04  0.00000000000E+00 0. -1.
         25    2    1    2    0    0  0.46626867408E+02 -0.72725991913E+02 -0.28473152793E+03  0.32273765801E+03  0.12499767292E+03 0.  0.
          2    1    1    2  501    0  0.16805773226E+02  0.46474189058E+02 -0.14336348805E+04  0.14344864080E+04  0.00000000000E+00 0. -1.
          1    1    1    2  502    0 -0.63432640634E+02  0.26251802854E+02  0.22901900045E+03  0.23908692899E+03  0.00000000000E+00 0. -1.
         22    1    3    3    0    0 -0.35163584887E+02 -0.41291310640E+02 -0.16956335120E+03  0.17802578495E+03  0.00000000000E+00 0.  1.
         22    1    3    3    0    0  0.81790452295E+02 -0.31434681272E+02 -0.11516817673E+03  0.14471187306E+03  0.00000000000E+00 0.  1.
</event>
<event>
 7    1  0.6315518E-006  0.1370882E+03  0.7818608E-02  0.1286521E+00
          2   -1    0    0  502    0  0.00000000000E+00  0.00000000000E+00  0.84928613180E+03  0.84928613180E+03  0.00000000000E+00 0. -1.
          1   -1    0    0  501    0 -0.00000000000E+00 -0.00000000000E+00 -0.13129439651E+04  0.13129439651E+04  0.00000000000E+00 0. -1.
         25    2    1    2    0    0 -0.15582845111E+03  0.98465567571E+02 -0.63216040612E+02  0.23151487418E+03  0.12499958003E+03 0.  0.
          2    1    1    2  501    0  0.13081072561E+03 -0.34404870918E+02 -0.11600958826E+04  0.11679544503E+04  0.00000000000E+00 0. -1.
          1    1    1    2  502    0  0.25017725499E+02 -0.64060696653E+02  0.75965408998E+03  0.76276077238E+03  0.00000000000E+00 0. -1.
         22    1    3    3    0    0  0.15988314116E+02 -0.90713866644E+01 -0.13513745572E+02  0.22815292321E+02  0.00000000000E+00 0.  1.
         22    1    3    3    0    0 -0.17181676522E+03  0.10753695424E+03 -0.49702295041E+02  0.20869958186E+03  0.00000000000E+00 0.  1.
</event>
<event>
 7    1  0.6315518E-006  0.1342470E+03  0.7818608E-02  0.1263438E+00
          2   -1    0    0  502    0  0.00000000000E+00  0.00000000000E+00  0.19151279039E+04  0.19151279039E+04  0.00000000000E+00 0. -1.
          1   -1    0    0  501    0 -0.00000000000E+00 -0.00000000000E+00 -0.54571068210E+03  0.54571068210E+03  0.00000000000E+00 0. -1.
         25    2    1    2    0    0  0.18462136711E+03 -0.47346659300E+02  0.68344961570E+03  0.72045523446E+03  0.12500244924E+03 0.  0.
          2    1    1    2  501    0 -0.13183768438E+03 -0.22608898745E+02 -0.51710388404E+03  0.53412429660E+03  0.00000000000E+00 0. -1.
          1    1    1    2  502    0 -0.52783682727E+02  0.69955558046E+02  0.12030714902E+04  0.12062590550E+04  0.00000000000E+00 0. -1.
         22    1    3    3    0    0  0.46739519794E+02 -0.64709177998E+02  0.15909673528E+03  0.17799896518E+03  0.00000000000E+00 0. -1.
         22    1    3    3    0    0  0.13788184731E+03  0.17362518698E+02  0.52435288042E+03  0.54245626928E+03  0.00000000000E+00 0. -1.
</event>
<event>
 7    1  0.6315518E-006  0.8677279E+02  0.7818608E-02  0.1333070E+00
          2   -1    0    0  502    0  0.00000000000E+00  0.00000000000E+00  0.26648027924E+04  0.26648027924E+04  0.00000000000E+00 0. -1.
          1   -1    0    0  501    0 -0.00000000000E+00 -0.00000000000E+00 -0.42778929105E+03  0.42778929105E+03  0.00000000000E+00 0. -1.
         25    2    1    2    0    0 -0.17232472212E+02  0.25561108427E+02  0.21007469571E+03  0.24638701460E+03  0.12499941928E+03 0.  0.
          2    1    1    2  501    0 -0.21039240854E+02 -0.85598125452E+02 -0.40436410521E+03  0.41385990180E+03  0.00000000000E+00 0. -1.
          1    1    1    2  502    0  0.38271713067E+02  0.60037017025E+02  0.24313029108E+04  0.24323451670E+04  0.00000000000E+00 0. -1.
         22    1    3    3    0    0  0.14392170614E+02  0.32006213441E+02  0.21119703979E+03  0.21409278804E+03  0.00000000000E+00 0. -1.
         22    1    3    3    0    0 -0.31624642826E+02 -0.64451050140E+01 -0.11223440812E+01  0.32294226554E+02  0.00000000000E+00 0. -1.
</event>
<event>
 7    1  0.6315518E-006  0.5218744E+02  0.7818608E-02  0.1492927E+00
          2   -1    0    0  502    0  0.00000000000E+00  0.00000000000E+00  0.62011002595E+02  0.62011002595E+02  0.00000000000E+00 0. -1.
          1   -1    0    0  501    0 -0.00000000000E+00 -0.00000000000E+00 -0.39638721808E+03  0.39638721808E+03  0.00000000000E+00 0. -1.
         25    2    1    2    0    0  0.30440458745E+02 -0.37480392370E+02 -0.22239498219E+03  0.25962117673E+03  0.12494889341E+03 0.  0.
          2    1    1    2  501    0 -0.15756479605E+01  0.55544182218E+02 -0.14256275110E+03  0.15300907439E+03  0.00000000000E+00 0. -1.
          1    1    1    2  502    0 -0.28864810784E+02 -0.18063789848E+02  0.30581517807E+02  0.45767969549E+02  0.00000000000E+00 0. -1.
         22    1    3    3    0    0  0.32643563614E+02 -0.39369696193E+02 -0.23816097393E+03  0.24359028045E+03  0.00000000000E+00 0.  1.
         22    1    3    3    0    0 -0.22031048699E+01  0.18893038224E+01  0.15765991744E+02  0.16030896285E+02  0.00000000000E+00 0.  1.
</event>
<event>
 7    1  0.6315518E-006  0.1124207E+03  0.7818608E-02  0.1404612E+00
          2   -1    0    0  502    0  0.00000000000E+00  0.00000000000E+00  0.47914183650E+03  0.47914183650E+03  0.00000000000E+00 0. -1.
          1   -1    0    0  501    0 -0.00000000000E+00 -0.00000000000E+00 -0.25366017384E+04  0.25366017384E+04  0.00000000000E+00 0. -1.
         25    2    1    2    0    0 -0.26480854240E+02  0.79238711159E+02 -0.28341070373E+03  0.32082260762E+03  0.12500203832E+03 0.  0.
          2    1    1    2  501    0 -0.16946973016E+02  0.25179749692E+02 -0.22274360659E+04  0.22276428456E+04  0.00000000000E+00 0. -1.
          1    1    1    2  502    0  0.43427827256E+02 -0.10441846085E+03  0.45338686777E+03  0.46727812169E+03  0.00000000000E+00 0. -1.
         22    1    3    3    0    0  0.24575581645E+02  0.93728897550E+02 -0.19382611210E+03  0.21669708623E+03  0.00000000000E+00 0.  1.
         22    1    3    3    0    0 -0.51056435885E+02 -0.14490186392E+02 -0.89584591625E+02  0.10412552138E+03  0.00000000000E+00 0.  1.
</event>
<event>
 7    1  0.6315518E-006  0.5535312E+02  0.7818608E-02  0.1469013E+00
          2   -1    0    0  502    0  0.00000000000E+00  0.00000000000E+00  0.12933047636E+04  0.12933047636E+04  0.00000000000E+00 0. -1.
          1   -1    0    0  501    0 -0.00000000000E+00 -0.00000000000E+00 -0.27423469534E+02  0.27423469534E+02  0.00000000000E+00 0. -1.
         25    2    1    2    0    0  0.66258196923E+02  0.27583251009E+02  0.29920143580E+03  0.33211133004E+03  0.12500180782E+03 0.  0.
          2    1    1    2  501    0 -0.33987691947E+02  0.17002587455E+02  0.25356629442E+02  0.45685991734E+02  0.00000000000E+00 0. -1.
          1    1    1    2  502    0 -0.32270504976E+02 -0.44585838465E+02  0.94132322878E+03  0.94293091132E+03  0.00000000000E+00 0. -1.
         22    1    3    3    0    0 -0.15894795327E+02 -0.27052636323E+02  0.14994907188E+03  0.15319665077E+03  0.00000000000E+00 0. -1.
         22    1    3    3    0    0  0.82152992251E+02  0.54635887332E+02  0.14925236393E+03  0.17891467927E+03  0.00000000000E+00 0. -1.
</event>
<event>
 7    1  0.6315518E-006  0.1276046E+03  0.7818608E-02  0.1291364E+00
          2   -1    0    0  502    0  0.00000000000E+00  0.00000000000E+00  0.14866186978E+04  0.14866186978E+04  0.00000000000E+00 0. -1.
          1   -1    0    0  501    0 -0.00000000000E+00 -0.00000000000E+00 -0.31098541481E+03  0.31098541481E+03  0.00000000000E+00 0. -1.
         25    2    1    2    0    0  0.15334993486E+03  0.21747802441E+02 -0.67985271518E+02  0.21032337134E+03  0.12499901582E+03 0.  0.
          2    1    1    2  501    0 -0.10127089087E+03 -0.69417679071E+02 -0.14888971102E+03  0.19298381681E+03  0.00000000000E+00 0. -1.
          1    1    1    2  502    0 -0.52079043997E+02  0.47669876630E+02  0.13925082656E+04  0.13942969245E+04  0.00000000000E+00 0. -1.
         22    1    3    3    0    0  0.13747726204E+03 -0.14925115972E+02 -0.89713935610E+02  0.16483733469E+03  0.00000000000E+00 0. -1.
         22    1    3    3    0    0  0.15872672825E+02  0.36672918413E+02  0.21728664092E+02  0.45486036656E+02  0.00000000000E+00 0. -1.
</event>
<event>
 7    1  0.6315518E-006  0.9455117E+02  0.7818608E-02  0.1298994E+00
          2   -1    0    0  502    0  0.00000000000E+00  0.00000000000E+00  0.28121835664E+03  0.28121835664E+03  0.00000000000E+00 0. -1.
          1   -1    0    0  501    0 -0.00000000000E+00 -0.00000000000E+00 -0.55158010615E+03  0.55158010615E+03  0.00000000000E+00 0. -1.
         25    2    1    2    0    0 -0.44149776199E+02  0.25896044758E+02 -0.16589485432E+03  0.21393040326E+03  0.12500122751E+03 0.  0.
          2    1    1    2  501    0  0.10607384872E+01 -0.11005813951E+03 -0.34409059259E+03  0.36126479921E+03  0.00000000000E+00 0. -1.
          1    1    1    2  502    0  0.43089037712E+02  0.84162094754E+02  0.23962369741E+03  0.25760326031E+03  0.00000000000E+00 0. -1.
         22    1    3    3    0    0  0.25599641163E+02  0.23111535745E+02 -0.59305125639E+00  0.34494005595E+02  0.00000000000E+00 0. -1.
         22    1    3    3    0    0 -0.69749417362E+02  0.27845090128E+01 -0.16530180306E+03  0.17943639767E+03  0.00000000000E+00 0. -1.
</event>
<event>
 7    1  0.6315518E-006  0.8174488E+02  0.7818608E-02  0.1371598E+00
          2   -1    0    0  502    0  0.00000000000E+00  0.00000000000E+00  0.13291998821E+04  0.13291998821E+04  0.00000000000E+00 0. -1.
          1   -1    0    0  501    0 -0.00000000000E+00 -0.00000000000E+00 -0.48200482150E+03  0.48200482150E+03  0.00000000000E+00 0. -1.
         25    2    1    2    0    0 -0.47023904800E+02  0.43958817965E+02  0.40972530692E+03  0.43317829195E+03  0.12499992074E+03 0.  0.
          2    1    1    2  501    0 -0.39800153274E+02 -0.37179821135E+02 -0.46660190856E+03  0.46976987171E+03  0.00000000000E+00 0. -1.
          1    1    1    2  502    0  0.86824058074E+02 -0.67789968308E+01  0.90407166224E+03  0.90825653993E+03  0.00000000000E+00 0. -1.
         22    1    3    3    0    0 -0.23934144987E+02  0.33467682231E+02  0.26120687709E+02  0.48736222428E+02  0.00000000000E+00 0.  1.
         22    1    3    3    0    0 -0.23089759814E+02  0.10491135734E+02  0.38360461922E+03  0.38444206952E+03  0.00000000000E+00 0.  1.
</event>
<event>
 7    1  0.6315518E-006  0.2879392E+02  0.7818608E-02  0.1630812E+00
          2   -1    0    0  502    0  0.00000000000E+00  0.00000000000E+00  0.27949571136E+02  0.27949571136E+02  0.00000000000E+00 0. -1.
          1   -1    0    0  501    0 -0.00000000000E+00 -0.00000000000E+00 -0.18318144569E+04  0.18318144569E+04  0.00000000000E+00 0. -1.
         25    2    1    2    0    0  0.17327297880E+02  0.24535344014E+02 -0.15031066516E+04  0.15085959245E+04  0.12501935476E+03 0.  0.
          2    1    1    2  501    0 -0.25574703197E+02  0.31116481951E+01 -0.31700970507E+03  0.31805487090E+03  0.00000000000E+00 0. -1.
          1    1    1    2  502    0  0.82474053167E+01 -0.27646992209E+02  0.16251470845E+02  0.33113232662E+02  0.00000000000E+00 0. -1.
         22    1    3    3    0    0  0.35505822070E+02  0.58791314972E+02 -0.13004332313E+04  0.13022456263E+04  0.00000000000E+00 0. -1.
         22    1    3    3    0    0 -0.18178524190E+02 -0.34255970958E+02 -0.20267342027E+03  0.20635029822E+03  0.00000000000E+00 0. -1.
</event>
<event>
 7    1  0.6315518E-006  0.2701149E+02  0.7818608E-02  0.1684276E+00
          2   -1    0    0  502    0  0.00000000000E+00  0.00000000000E+00  0.11250700732E+03  0.11250700732E+03  0.00000000000E+00 0. -1.
          1   -1    0    0  501    0 -0.00000000000E+00 -0.00000000000E+00 -0.36573833175E+03  0.36573833175E+03  0.00000000000E+00 0. -1.
         25    2    1    2    0    0  0.27366633280E+02  0.13495989975E+01 -0.21546702037E+03  0.25060262792E+03  0.12499954487E+03 0.  0.
          2    1    1    2  501    0 -0.19031851687E+02 -0.19928334399E+02 -0.13015221882E+03  0.13303740059E+03  0.00000000000E+00 0. -1.
          1    1    1    2  502    0 -0.83347815933E+01  0.18578735401E+02  0.92387914761E+02  0.94605310566E+02  0.00000000000E+00 0. -1.
         22    1    3    3    0    0  0.59783811911E+02 -0.20604300634E+02 -0.50134377121E+02  0.80697565890E+02  0.00000000000E+00 0.  1.
         22    1    3    3    0    0 -0.32417178631E+02  0.21953899631E+02 -0.16533264325E+03  0.16990506203E+03  0.00000000000E+00 0.  1.
</event>
<event>
 7    1  0.6315518E-006  0.1038252E+03  0.7818608E-02  0.1345557E+00
          2   -1    0    0  502    0  0.00000000000E+00  0.00000000000E+00  0.15563788883E+03  0.15563788883E+03  0.00000000000E+00 0. -1.
          1   -1    0    0  501    0 -0.00000000000E+00 -0.00000000000E+00 -0.99469993936E+03  0.99469993936E+03  0.00000000000E+00 0. -1.
         25    2    1    2    0    0 -0.21301307437E+02  0.14893984243E+03 -0.10282028497E+03  0.22098213277E+03  0.12499707853E+03 0.  0.
          2    1    1    2  501    0 -0.30656608608E+01 -0.10142591085E+03 -0.82205022258E+03  0.82828931063E+03  0.00000000000E+00 0. -1.
          1    1    1    2  502    0  0.24366968298E+02 -0.47513931572E+02  0.85808457017E+02  0.10106638478E+03  0.00000000000E+00 0. -1.
         22    1    3    3    0    0  0.32403584295E+02  0.59068684965E+02 -0.94363134752E+02  0.11594612119E+03  0.00000000000E+00 0. -1.
         22    1    3    3    0    0 -0.53704891732E+02  0.89871157462E+02 -0.84571502231E+01  0.10503601158E+03  0.00000000000E+00 0. -1.
</event>
<event>
 7    1  0.6315518E-006  0.7209208E+02  0.7818608E-02  0.1475554E+00
          2   -1    0    0  502    0  0.00000000000E+00  0.00000000000E+00  0.98335373201E+03  0.98335373201E+03  0.00000000000E+00 0. -1.
          1   -1    0    0  501    0 -0.00000000000E+00 -0.00000000000E+00 -0.75781674893E+02  0.75781674893E+02  0.00000000000E+00 0. -1.
         25    2    1    2    0    0 -0.91869917030E+02  0.37196632866E+02  0.80122141857E+02  0.17851546121E+03  0.12499816448E+03 0.  0.
          2    1    1    2  501    0  0.25724944945E+02 -0.10664252268E+02 -0.17355809165E+02  0.32813460358E+02  0.00000000000E+00 0. -1.
          1    1    1    2  502    0  0.66144972085E+02 -0.26532380598E+02  0.84480572442E+03  0.84780648533E+03  0.00000000000E+00 0. -1.
         22    1    3    3    0    0 -0.35158517254E+02 -0.46275546137E+02  0.36105017257E+02  0.68418709261E+02  0.00000000000E+00 0. -1.
         22    1    3    3    0    0 -0.56711399776E+02  0.83472179004E+02  0.44017124600E+02  0.11009675195E+03  0.00000000000E+00 0. -1.
</event>
<event>
 7    1  0.6315518E-006  0.1732417E+03  0.7818608E-02  0.1341110E+00
          2   -1    0    0  502    0  0.00000000000E+00  0.00000000000E+00  0.16566200595E+03  0.16566200595E+03  0.00000000000E+00 0. -1.
          1   -1    0    0  501    0 -0.00000000000E+00 -0.00000000000E+00 -0.43893723856E+03  0.43893723856E+03  0.00000000000E+00 0. -1.
         25    2    1    2    0    0  0.18471442676E+03  0.35198974928E+02 -0.71945439502E+02  0.23698056911E+03  0.12500102631E+03 0.  0.
          2    1    1    2  501    0 -0.19095838596E+02 -0.27222096091E+02 -0.19903366270E+03  0.20179220117E+03  0.00000000000E+00 0. -1.
          1    1    1    2  502    0 -0.16561858817E+03 -0.79768788367E+01 -0.22961304106E+01  0.16582647423E+03  0.00000000000E+00 0. -1.
         22    1    3    3    0    0  0.13296630042E+03  0.50120161291E+02  0.60154840493E+01  0.14222606534E+03  0.00000000000E+00 0.  1.
         22    1    3    3    0    0  0.51748126346E+02 -0.14921186363E+02 -0.77960923552E+02  0.94754503765E+02  0.00000000000E+00 0.  1.
</event>
<event>
 7    1  0.6315518E-006  0.1130600E+03  0.7818608E-02  0.1296548E+00
          2   -1    0    0  502    0  0.00000000000E+00  0.00000000000E+00  0.24122569903E+04  0.24122569903E+04  0.00000000000E+00 0. -1.
          1   -1    0    0  501    0 -0.00000000000E+00 -0.00000000000E+00 -0.15294042552E+03  0.15294042552E+03  0.00000000000E+00 0. -1.
         25    2    1    2    0    0 -0.50978671240E+02 -0.41885491473E+02  0.15251471003E+03  0.20793955479E+03  0.12499960941E+03 0.  0.
          2    1    1    2  501    0  0.12171426216E+03  0.14279215958E+02 -0.94434000767E+02  0.15471276005E+03  0.00000000000E+00 0. -1.
          1    1    1    2  502    0 -0.70735590916E+02  0.27606275514E+02  0.22012358555E+04  0.22025451009E+04  0.00000000000E+00 0. -1.
         22    1    3    3    0    0 -0.92525901289E+02 -0.24190276723E+02  0.94828855446E+02  0.13468007916E+03  0.00000000000E+00 0. -1.
         22    1    3    3    0    0  0.41547230049E+02 -0.17695214750E+02  0.57685854585E+02  0.73259475626E+02  0.00000000000E+00 0. -1.
</event>
<event>
 7    1  0.6315518E-006  0.2939625E+02  0.7818608E-02  0.1632091E+00
          2   -1    0    0  502    0  0.00000000000E+00  0.00000000000E+00  0.16678126542E+02  0.16678126542E+02  0.00000000000E+00 0. -1.
          1   -1    0    0  501    0 -0.00000000000E+00 -0.00000000000E+00 -0.11316391274E+04  0.11316391274E+04  0.00000000000E+00 0. -1.
         25    2    1    2    0    0  0.52997231077E+02  0.18296788430E+01 -0.46981612351E+03  0.48905163111E+03  0.12502901166E+03 0.  0.
          2    1    1    2  501    0 -0.25035325225E+02 -0.84100007364E+00 -0.62320959335E+03  0.62371281214E+03  0.00000000000E+00 0. -1.
          1    1    1    2  502    0 -0.27961905852E+02 -0.98867876935E+00 -0.21935284035E+02  0.35552810723E+02  0.00000000000E+00 0. -1.
         22    1    3    3    0    0  0.30860435599E+02 -0.46670063904E+02 -0.38377721396E+03  0.38783425751E+03  0.00000000000E+00 0.  1.
         22    1    3    3    0    0  0.22136795478E+02  0.48499742747E+02 -0.86038909557E+02  0.10121737360E+03  0.00000000000E+00 0.  1.
</event>
<event>
 7    1  0.6315518E-006  0.1134906E+03  0.7818608E-02  0.1280866E+00
          2   -1    0    0  502    0  0.00000000000E+00  0.00000000000E+00  0.83950614665E+02  0.83950614665E+02  0.00000000000E+00 0. -1.
          1   -1    0    0  501    0 -0.00000000000E+00 -0.00000000000E+00 -0.24607060914E+04  0.24607060914E+04  0.00000000000E+00 0. -1.
         25    2    1    2    0    0 -0.11558244883E+03 -0.13270030226E+03 -0.51845001808E+03  0.56159042193E+03  0.12499883224E+03 0.  0.
          2    1    1    2  501    0  0.99515263208E+02  0.46549261852E+02 -0.18875001477E+04  0.18906948270E+04  0.00000000000E+00 0. -1.
          1    1    1    2  502    0  0.16067185622E+02  0.86151040406E+02  0.29194689055E+02  0.92371457095E+02  0.00000000000E+00 0. -1.
         22    1    3    3    0    0 -0.62531020402E+02 -0.14192244267E+03 -0.43920155784E+03  0.46577904274E+03  0.00000000000E+00 0.  1.
         22    1    3    3    0    0 -0.53051428428E+02  0.92221404138E+01 -0.79248460241E+02  0.95811379192E+02  0.00000000000E+00 0.  1.
</event>
<event>
 7    1  0.6315518E-006  0.1069405E+03  0.7818608E-02  0.1358343E+00
          2   -1    0    0  502    0  0.00000000000E+00  0.00000000000E+00  0.64633748733E+03  0.64633748733E+03  0.00000000000E+00 0. -1.
          1   -1    0    0  501    0 -0.00000000000E+00 -0.00000000000E+00 -0.13256563676E+04  0.13256563676E+04  0.00000000000E+00 0. -1.
         25    2    1    2    0    0 -0.11937218874E+03  0.69518465080E+01 -0.10861316125E+03  0.20424512697E+03  0.12498482100E+03 0.  0.
          2    1    1    2  501    0  0.18660593364E+02 -0.42591079531E+02 -0.11639921558E+04  0.11649205796E+04  0.00000000000E+00 0. -1.
          1    1    1    2  502    0  0.10071159538E+03  0.35639233023E+02  0.59328643683E+03  0.60282814840E+03  0.00000000000E+00 0. -1.
         22    1    3    3    0    0 -0.14753203889E+02 -0.26701152113E+01  0.28086180408E+02  0.31837400493E+02  0.00000000000E+00 0.  1.
         22    1    3    3    0    0 -0.10461898485E+03  0.96219617192E+01 -0.13669934166E+03  0.17240772648E+03  0.00000000000E+00 0.  1.
</event>
<event>
 7    1  0.6315518E-006  0.1330477E+03  0.7818608E-02  0.1298633E+00
          2   -1    0    0  502    0  0.00000000000E+00  0.00000000000E+00  0.14459209752E+04  0.14459209752E+04  0.00000000000E+00 0. -1.
          1   -1    0    0  501    0 -0.00000000000E+00 -0.00000000000E+00 -0.13255875913E+03  0.13255875913E+03  0.00000000000E+00 0. -1.
         25    2    1    2    0    0  0.49533596771E+02  0.11713866202E+03  0.15134776326E+03  0.23389306428E+03  0.12499910690E+03 0.  0.
          2    1    1    2  501    0  0.10443366089E+02 -0.13735179199E+03 -0.38008475795E+02  0.14289584630E+03  0.00000000000E+00 0. -1.
          1    1    1    2  502    0 -0.59976962860E+02  0.20213129969E+02  0.12000229286E+04  0.12016908237E+04  0.00000000000E+00 0. -1.
         22    1    3    3    0    0  0.86552138435E+02  0.52880734078E+02  0.10724534131E+03  0.14761167954E+03  0.00000000000E+00 0.  1.
         22    1    3    3    0    0 -0.37018541664E+02  0.64257927945E+02  0.44102421945E+02  0.86281384737E+02  0.00000000000E+00 0.  1.
</event>
<event>
 7    1  0.6315518E-006  0.6184273E+02  0.7818608E-02  0.1397512E+00
          2   -1    0    0  502    0  0.00000000000E+00  0.00000000000E+00  0.62607109270E+02  0.62607109270E+02  0.00000000000E+00 0. -1.
          1   -1    0    0  501    0 -0.00000000000E+00 -0.00000000000E+00 -0.45409683096E+03  0.45409683096E+03  0.00000000000E+00 0. -1.
         25    2    1    2    0    0  0.33349336356E+01 -0.11467485838E+02 -0.67273928564E+02  0.14245621436E+03  0.12500146612E+03 0.  0.
          2    1    1    2  501    0 -0.63047276078E+02 -0.46247160118E+01 -0.30198471988E+03  0.30853057881E+03  0.00000000000E+00 0. -1.
          1    1    1    2  502    0  0.59712342442E+02  0.16092201850E+02 -0.22231073245E+02  0.65717147062E+02  0.00000000000E+00 0. -1.
         22    1    3    3    0    0  0.34729816116E+01  0.50527949574E+01  0.36684447438E+02  0.37193292702E+02  0.00000000000E+00 0.  1.
         22    1    3    3    0    0 -0.13804797597E+00 -0.16520280795E+02 -0.10395837600E+03  0.10526292166E+03  0.00000000000E+00 0.  1.
</event>
<event>
 7    1  0.6315518E-006  0.7561472E+02  0.7818608E-02  0.1452180E+00
          2   -1    0    0  502    0  0.00000000000E+00  0.00000000000E+00  0.27734256686E+03  0.27734256686E+03  0.00000000000E+00 0. -1.
          1   -1    0    0  501    0 -0.00000000000E+00 -0.00000000000E+00 -0.62187767264E+03  0.62187767264E+03  0.00000000000E+00 0. -1.
         25    2    1    2    0    0 -0.39309559247E+02  0.96092885615E+02  0.13769389569E+03  0.21298988430E+03  0.12500399109E+03 0.  0.
          2    1    1    2  501    0  0.17895632541E+02 -0.73079618152E+02 -0.57931583997E+03  0.58418124473E+03  0.00000000000E+00 0. -1.
          1    1    1    2  502    0  0.21413926706E+02 -0.23013267463E+02  0.97086838508E+02  0.10204911047E+03  0.00000000000E+00 0. -1.
         22    1    3    3    0    0 -0.27899723024E+02 -0.25890200493E+02  0.47429525108E+02  0.60813295243E+02  0.00000000000E+00 0.  1.
         22    1    3    3    0    0 -0.11409836224E+02  0.12198308611E+03  0.90264370582E+02  0.15217658905E+03  0.00000000000E+00 0.  1.
</event>
<event>
 7    1  0.6315518E-006  0.6521465E+02  0.7818608E-02  0.1518234E+00
          2   -1    0    0  502    0  0.00000000000E+00  0.00000000000E+00  0.39654147540E+02  0.39654147540E+02  0.00000000000E+00 0. -1.
          1   -1    0    0  501    0 -0.00000000000E+00 -0.00000000000E+00 -0.11719002179E+04  0.11719002179E+04  0.00000000000E+00 0. -1.
         25    2    1    2    0    0  0.41290052622E+02  0.21578284914E+02 -0.19265676000E+03  0.23433306810E+03  0.12499947521E+03 0.  0.
          2    1    1    2  501    0 -0.51023899218E+02 -0.42339510495E+02 -0.94980670247E+03  0.95211808327E+03  0.00000000000E+00 0. -1.
          1    1    1    2  502    0  0.97338465963E+01  0.20761225581E+02  0.10217392084E+02  0.25103214100E+02  0.00000000000E+00 0. -1.
         22    1    3    3    0    0 -0.37740599861E+02 -0.16210808244E+02 -0.92884742337E+02  0.10156140281E+03  0.00000000000E+00 0.  1.
         22    1    3    3    0    0  0.79030652483E+02  0.37789093158E+02 -0.99772017665E+02  0.13277166528E+03  0.00000000000E+00 0.  1.
</event>
<event>
 7    1  0.6315518E-006  0.9791298E+02  0.7818608E-02  0.1288892E+00
          2   -1    0    0  502    0  0.00000000000E+00  0.00000000000E+00  0.24717230555E+04  0.24717230555E+04  0.00000000000E+00 0. -1.
          1   -1    0    0  501    0 -0.00000000000E+00 -0.00000000000E+00 -0.11264852293E+04  0.11264852293E+04  0.00000000000E+00 0. -1.
         25    2    1    2    0    0 -0.78030067867E+02 -0.34244883631E+02  0.65118986244E+02  0.16470350951E+03  0.12500144051E+03 0.  0.
          2    1    1    2  501    0  0.78837139212E+02 -0.59918274434E+02 -0.10734726939E+04  0.10780302031E+04  0.00000000000E+00 0. -1.
          1    1    1    2  502    0 -0.80707134578E+00  0.94163158066E+02  0.23535915339E+04  0.23554745722E+04  0.00000000000E+00 0. -1.
         22    1    3    3    0    0 -0.32460946362E+02  0.10795176140E+02  0.89759426192E+02  0.96057292575E+02  0.00000000000E+00 0.  1.
         22    1    3    3    0    0 -0.45569121504E+02 -0.45040059771E+02 -0.24640439947E+02  0.68646216936E+02  0.00000000000E+00 0.  1.
</event>
<event>
 7    1  0.6315518E-006  0.5095645E+02  0.7818608E-02  0.1489898E+00
          2   -1    0    0  502    0  0.00000000000E+00  0.00000000000E+00  0.46121083605E+02  0.46121083605E+02  0.00000000000E+00 0. -1.
          1   -1    0    0  501    0 -0.00000000000E+00 -0.00000000000E+00 -0.59796258218E+03  0.59796258218E+03  0.00000000000E+00 0. -1.
         25    2    1    2    0    0  0.19115393692E+02  0.40090701735E+02 -0.42522714511E+03  0.44543794951E+03  0.12499671708E+03 0.  0.
          2    1    1    2  501    0  0.12270118701E+02 -0.56926177777E+02 -0.14664448881E+03  0.15778387633E+03  0.00000000000E+00 0. -1.
          1    1    1    2  502    0 -0.31385512393E+02  0.16835476042E+02  0.20030135352E+02  0.40861839948E+02  0.00000000000E+00 0. -1.
         22    1    3    3    0    0 -0.20345786866E+01  0.82429418887E+02 -0.22325444533E+03  0.23799431919E+03  0.00000000000E+00 0. -1.
         22    1    3    3    0    0  0.21149972379E+02 -0.42338717152E+02 -0.20197269978E+03  0.20744363031E+03  0.00000000000E+00 0. -1.
</event>
<event>
 7    1  0.6315518E-006  0.1143213E+03  0.7818608E-02  0.1315520E+00
          2   -1    0    0  502    0  0.00000000000E+00  0.00000000000E+00  0.16446829791E+04  0.16446829791E+04  0.00000000000E+00 0. -1.
          1   -1    0    0  501    0 -0.00000000000E+00 -0.00000000000E+00 -0.33814983008E+02  0.33814983008E+02  0.00000000000E+00 0. -1.
         25    2    1    2    0    0  0.45676339417E+02  0.91944895441E+02  0.58259901030E+03  0.60463823789E+03  0.12500240051E+03 0.  0.
          2    1    1    2  501    0 -0.55638929691E+02  0.29868946573E+02  0.33260616179E+02  0.71373055526E+02  0.00000000000E+00 0. -1.
          1    1    1    2  502    0  0.99625902737E+01 -0.12181384201E+03  0.99500836960E+03  0.10024866687E+04  0.00000000000E+00 0. -1.
         22    1    3    3    0    0  0.18990066955E+02  0.61095587797E+01  0.56561112594E+01  0.20735017387E+02  0.00000000000E+00 0.  1.
         22    1    3    3    0    0  0.26686272462E+02  0.85835336661E+02  0.57694289904E+03  0.58390322050E+03  0.00000000000E+00 0.  1.
</event>
<event>
 7    1  0.6315518E-006  0.6542716E+02  0.7818608E-02  0.1506342E+00
          2   -1    0    0  502    0  0.00000000000E+00  0.00000000000E+00  0.17006793526E+03  0.17006793526E+03  0.00000000000E+00 0. -1.
          1   -1    0    0  501    0 -0.00000000000E+00 -0.00000000000E+00 -0.30864245499E+03  0.30864245499E+03  0.00000000000E+00 0. -1.
         25    2    1    2    0    0  0.38545912473E+02 -0.52578583960E+02 -0.14598125690E+03  0.20294080977E+03  0.12499660013E+03 0.  0.
          2    1    1    2  501    0 -0.16779051466E+02  0.64395511263E+02 -0.12470866039E+03  0.14135263852E+03  0.00000000000E+00 0. -1.
          1    1    1    2  502    0 -0.21766861008E+02 -0.11816927303E+02  0.13211539757E+03  0.13441694195E+03  0.00000000000E+00 0. -1.
         22    1    3    3    0    0  0.78790373418E+02 -0.63658797094E+01 -0.91800082006E+02  0.12114331358E+03  0.00000000000E+00 0.  1.
         22    1    3    3    0    0 -0.40244460944E+02 -0.46212704250E+02 -0.54181174898E+02  0.81797496198E+02  0.00000000000E+00 0.  1.
</event>
<event>
 7    1  0.6315518E-006  0.4694477E+02  0.7818608E-02  0.1525140E+00
          2   -1    0    0  502    0  0.00000000000E+00  0.00000000000E+00  0.51022912087E+01  0.51022912087E+01  0.00000000000E+00 0. -1.
          1   -1    0    0  501    0 -0.00000000000E+00 -0.00000000000E+00 -0.27610054706E+04  0.27610054706E+04  0.00000000000E+00 0. -1.
         25    2    1    2    0    0 -0.48241123603E+02 -0.11242100432E+02 -0.14264255050E+04  0.14327485572E+04  0.12500046345E+03 0.  0.
          2    1    1    2  501    0  0.16853995065E+02 -0.25323565281E+02 -0.99117003420E+03  0.99163671614E+03  0.00000000000E+00 0. -1.
          1    1    1    2  502    0  0.31387128538E+02  0.36565665713E+02 -0.33830764013E+03  0.34172248845E+03  0.00000000000E+00 0. -1.
         22    1    3    3    0    0 -0.65200676531E+02 -0.53892145621E+02 -0.10778490975E+04  0.10811633403E+04  0.00000000000E+00 0. -1.
         22    1    3    3    0    0  0.16959552928E+02  0.42650045189E+02 -0.34857640756E+03  0.35158521684E+03  0.00000000000E+00 0. -1.
</event>
<event>
 7    1  0.6315518E-006  0.6930933E+02  0.7818608E-02  0.1399942E+00
          2   -1    0    0  502    0  0.00000000000E+00  0.00000000000E+00  0.14340625684E+04  0.14340625684E+04  0.00000000000E+00 0. -1.
          1   -1    0    0  501    0 -0.00000000000E+00 -0.00000000000E+00 -0.35652501995E+03  0.35652501995E+03  0.00000000000E+00 0. -1.
         25    2    1    2    0    0 -0.41284145635E+02 -0.28582195759E+02  0.65186943528E+02  0.14964924161E+03  0.12499694121E+03 0.  0.
          2    1    1    2  501    0  0.30853355759E+02 -0.40707699411E+02 -0.31128570963E+03  0.31544863191E+03  0.00000000000E+00 0. -1.
          1    1    1    2  502    0  0.10430789876E+02  0.69289895169E+02  0.13236363146E+04  0.13254897149E+04  0.00000000000E+00 0. -1.
         22    1    3    3    0    0 -0.52119954877E+02 -0.69273721680E+02  0.22231537983E+02  0.89496254072E+02  0.00000000000E+00 0.  1.
         22    1    3    3    0    0  0.10835809242E+02  0.40691525921E+02  0.42955405545E+02  0.60152987534E+02  0.00000000000E+00 0.  1.
</event>
<event>
 7    1  0.6315518E-006  0.1466692E+03  0.7818608E-02  0.1250895E+00
          2   -1    0    0  502    0  0.00000000000E+00  0.00000000000E+00  0.89326831172E+03  0.89326831172E+03  0.00000000000E+00 0. -1.
          1   -1    0    0  501    0 -0.00000000000E+00 -0.00000000000E+00 -0.33373585282E+03  0.33373585282E+03  0.00000000000E+00 0. -1.
         25    2    1    2    0    0 -0.24522246362E+02  0.14277098112E+03  0.43349176816E+03  0.47384051954E+03  0.12499932512E+03 0.  0.
          2    1    1    2  501    0 -0.65670622513E+02 -0.13239756848E+03 -0.29098777168E+03  0.32636732383E+03  0.00000000000E+00 0. -1.
          1    1    1    2  502    0  0.90192868874E+02 -0.10373412648E+02  0.41702846242E+03  0.42679632116E+03  0.00000000000E+00 0. -1.
         22    1    3    3    0    0  0.94198209385E+01  0.11790024877E+03  0.40764663615E+03  0.42445845692E+03  0.00000000000E+00 0.  1.
         22    1    3    3    0    0 -0.33942067300E+02  0.24870732351E+02  0.25845132014E+02  0.49382062625E+02  0.00000000000E+00 0.  1.
</event>
<event>
 7    1  0.6315518E-006  0.5569978E+02  0.7818608E-02  0.1519480E+00
          2   -1    0    0  502    0  0.00000000000E+00  0.00000000000E+00  0.24408196303E+04  0.24408196303E+04  0.00000000000E+00 0. -1.
          1   -1    0    0  501    0 -0.00000000000E+00 -0.00000000000E+00 -0.36584894083E+02  0.36584894083E+02  0.00000000000E+00 0. -1.
         25    2    1    2    0    0 -0.13033225937E+02  0.65535217520E+02  0.57215844881E+03  0.58945181226E+03  0.12499367473E+03 0.  0.
          2    1    1    2  501    0  0.31022125653E+02 -0.45908117597E+02 -0.27540454771E+00  0.55407611291E+02  0.00000000000E+00 0. -1.
          1    1    1    2  502    0 -0.17988899716E+02 -0.19627099923E+02  0.18323516919E+04  0.18325451008E+04  0.00000000000E+00 0. -1.
         22    1    3    3    0    0  0.51721439456E+02  0.54761084935E+02  0.33597464446E+03  0.34431503807E+03  0.00000000000E+00 0. -1.
         22    1    3    3    0    0 -0.64754665394E+02  0.10774132585E+02  0.23618380435E+03  0.24513677419E+03  0.00000000000E+00 0. -1.
</event>
<event>
 7    1  0.6315518E-006  0.8947954E+02  0.7818608E-02  0.1369758E+00
          2   -1    0    0  502    0  0.00000000000E+00  0.00000000000E+00  0.32088416831E+04  0.32088416831E+04  0.00000000000E+00 0. -1.
          1   -1    0    0  501    0 -0.00000000000E+00 -0.00000000000E+00 -0.12089578391E+02  0.12089578391E+02  0.00000000000E+00 0. -1.
         25    2    1    2    0    0  0.61519399572E+02  0.44191009302E+02  0.18438311336E+04  0.18496131428E+04  0.12497218421E+03 0.  0.
          2    1    1    2  501    0 -0.33830795615E+02 -0.86446888940E+02  0.24116147072E+03  0.25841138191E+03  0.00000000000E+00 0. -1.
          1    1    1    2  502    0 -0.27688603957E+02  0.42255879638E+02  0.11117595004E+04  0.11129067368E+04  0.00000000000E+00 0. -1.
         22    1    3    3    0    0 -0.27723215608E+02  0.24984390513E+02  0.21416968518E+03  0.21739698825E+03  0.00000000000E+00 0.  1.
         22    1    3    3    0    0  0.89242615180E+02  0.19206618790E+02  0.16296614484E+04  0.16322161545E+04  0.00000000000E+00 0.  1.
</event>
<event>
 7    1  0.6315518E-006  0.7522236E+02  0.7818608E-02  0.1458518E+00
          2   -1    0    0  502    0  0.00000000000E+00  0.00000000000E+00  0.16731806947E+04  0.16731806947E+04  0.00000000000E+00 0. -1.
          1   -1    0    0  501    0 -0.00000000000E+00 -0.00000000000E+00 -0.64087686874E+02  0.64087686874E+02  0.00000000000E+00 0. -1.
         25    2    1    2    0    0 -0.95260523682E+02 -0.27043679540E+02  0.24202008169E+03  0.28983549410E+03  0.12499986289E+03 0.  0.
          2    1    1    2  501    0  0.21146131033E+02  0.21516448863E+02 -0.33389556976E+02  0.44999766049E+02  0.00000000000E+00 0. -1.
          1    1    1    2  502    0  0.74114392650E+02  0.55272306767E+01  0.14004624831E+04  0.14024331214E+04  0.00000000000E+00 0. -1.
         22    1    3    3    0    0  0.36001903299E+01 -0.45450963686E+02  0.13720649121E+03  0.14458344546E+03  0.00000000000E+00 0. -1.
         22    1    3    3    0    0 -0.98860714012E+02  0.18407284146E+02  0.10481359048E+03  0.14525204864E+03  0.00000000000E+00 0. -1.
</event>
<event>
 7    1  0.6315518E-006  0.1350015E+03  0.7818608E-02  0.1236492E+00
          2   -1    0    0  502    0  0.00000000000E+00  0.00000000000E+00  0.13357226548E+04  0.13357226548E+04  0.00000000000E+00 0. -1.
          1   -1    0    0  501    0 -0.00000000000E+00 -0.00000000000E+00 -0.96769512465E+03  0.96769512465E+03  0.00000000000E+00 0. -1.
         25    2    1    2    0    0  0.14525205609E+02  0.31092263826E+02  0.27489657535E+03  0.30392522269E+03  0.12499881351E+03 0.  0.
          2    1    1    2  501    0 -0.12670460286E+03 -0.51765315581E+02 -0.94512754007E+03  0.95498679115E+03  0.00000000000E+00 0. -1.
          1    1    1    2  502    0  0.11217939725E+03  0.20673051756E+02  0.10382584948E+04  0.10445057656E+04  0.00000000000E+00 0. -1.
         22    1    3    3    0    0 -0.51300486689E+02 -0.71336510266E+01  0.87828853404E+02  0.10196340717E+03  0.00000000000E+00 0.  1.
         22    1    3    3    0    0  0.65825692298E+02  0.38225914852E+02  0.18706772194E+03  0.20196181551E+03  0.00000000000E+00 0.  1.
</event>
<event>
 7    1  0.1154549E-005  0.9992607E+02  0.7818608E-02  0.1450522E+00
          2   -1    0    0  502    0  0.00000000000E+00  0.00000000000E+00  0.22997116900E+04  0.22997116900E+04  0.00000000000E+00 0. -1.
          1   -1    0    0  501    0 -0.00000000000E+00 -0.00000000000E+00 -0.93683446409E+03  0.93683446409E+03  0.00000000000E+00 0. -1.
         25    2    1    2    0    0  0.74274208091E+02  0.29083289716E+02 -0.34523605094E+03  0.37573336702E+03  0.12500054598E+03 0.  0.
          2    1    1    2  501    0  0.12515423806E+02  0.20570811469E+02 -0.57500353507E+03  0.57550747993E+03  0.00000000000E+00 0. -1.
          1    1    1    2  502    0 -0.86789631897E+02 -0.49654101186E+02  0.22831168119E+04  0.22853053071E+04  0.00000000000E+00 0. -1.
         22    1    3    3    0    0 -0.27578136152E+02 -0.92250102675E+01 -0.14452301411E+03  0.14741965953E+03  0.00000000000E+00 0. -1.
         22    1    3    3    0    0  0.10185234424E+03  0.38308299984E+02 -0.20071303683E+03  0.22831370749E+03  0.00000000000E+00 0. -1.
</event>
<event>
 7    1  0.6315518E-006  0.6895443E+02  0.7818608E-02  0.1399471E+00
          2   -1    0    0  502    0  0.00000000000E+00  0.00000000000E+00  0.80125647000E+02  0.80125647000E+02  0.00000000000E+00 0. -1.
          1   -1    0    0  501    0 -0.00000000000E+00 -0.00000000000E+00 -0.39497592757E+03  0.39497592757E+03  0.00000000000E+00 0. -1.
         25    2    1    2    0    0  0.44996092081E+02 -0.12182681623E+02 -0.78930241471E+02  0.15500721456E+03  0.12499675001E+03 0.  0.
          2    1    1    2  501    0 -0.64577809283E+02 -0.35486068205E+02 -0.25477712040E+03  0.26521865615E+03  0.00000000000E+00 0. -1.
          1    1    1    2  502    0  0.19581717202E+02  0.47668749828E+02  0.18857081307E+02  0.54875703860E+02  0.00000000000E+00 0. -1.
         22    1    3    3    0    0  0.37506096761E+02  0.54234614905E+02 -0.31689958646E+02  0.73159785587E+02  0.00000000000E+00 0.  1.
         22    1    3    3    0    0  0.74899953202E+01 -0.66417296528E+02 -0.47240282825E+02  0.81847428972E+02  0.00000000000E+00 0.  1.
</event>
<event>
 7    1  0.6315518E-006  0.5710482E+02  0.7818608E-02  0.1445680E+00
          2   -1    0    0  502    0  0.00000000000E+00  0.00000000000E+00  0.13202161473E+03  0.13202161473E+03  0.00000000000E+00 0. -1.
          1   -1    0    0  501    0 -0.00000000000E+00 -0.00000000000E+00 -0.70197516432E+03  0.70197516432E+03  0.00000000000E+00 0. -1.
         25    2    1    2    0    0 -0.37337522166E+02 -0.59978678681E+02 -0.30358769357E+03  0.33583079678E+03  0.12500121570E+03 0.  0.
          2    1    1    2  501    0 -0.16365659052E+02  0.40486808729E+02 -0.37387654749E+03  0.37641823712E+03  0.00000000000E+00 0. -1.
          1    1    1    2  502    0  0.53703181218E+02  0.19491869952E+02  0.10751069146E+03  0.12174774514E+03  0.00000000000E+00 0. -1.
         22    1    3    3    0    0  0.77262585139E+01 -0.78678396362E+01 -0.24541429371E+03  0.24566190899E+03  0.00000000000E+00 0. -1.
         22    1    3    3    0    0 -0.45063780680E+02 -0.52110839045E+02 -0.58173399856E+02  0.90168887793E+02  0.00000000000E+00 0. -1.
</event>
<event>
 7    1  0.6315518E-006  0.6368047E+02  0.7818608E-02  0.1411158E+00
          2   -1    0    0  502    0  0.00000000000E+00  0.00000000000E+00  0.10289388316E+03  0.10289388316E+03  0.00000000000E+00 0. -1.
          1   -1    0    0  501    0 -0.00000000000E+00 -0.00000000000E+00 -0.29304377403E+04  0.29304377403E+04  0.00000000000E+00 0. -1.
         25    2    1    2    0    0 -0.10867442404E+03 -0.13642492610E+02 -0.13411175693E+03  0.21355967736E+03  0.12500209759E+03 0.  0.
          2    1    1    2  501    0  0.48694480578E+02  0.14842453131E+02 -0.27420688452E+04  0.27425413402E+04  0.00000000000E+00 0. -1.
          1    1    1    2  502    0  0.59979943465E+02 -0.11999605210E+01  0.48636745001E+02  0.77230605899E+02  0.00000000000E+00 0. -1.
         22    1    3    3    0    0 -0.21023394991E+02 -0.35293534026E+02  0.11113384545E+02  0.42557302511E+02  0.00000000000E+00 0. -1.
         22    1    3    3    0    0 -0.87651029051E+02  0.21651041415E+02 -0.14522514147E+03  0.17100237485E+03  0.00000000000E+00 0. -1.
</event>
<event>
 7    1  0.6315518E-006  0.4599214E+02  0.7818608E-02  0.1530012E+00
          2   -1    0    0  502    0  0.00000000000E+00  0.00000000000E+00  0.23554876335E+03  0.23554876335E+03  0.00000000000E+00 0. -1.
          1   -1    0    0  501    0 -0.00000000000E+00 -0.00000000000E+00 -0.14407009804E+03  0.14407009804E+03  0.00000000000E+00 0. -1.
         25    2    1    2    0    0 -0.52440231150E+02  0.18949309140E+01  0.14041632866E+03  0.19516456178E+03  0.12497556647E+03 0.  0.
          2    1    1    2  501    0  0.13568094714E+02 -0.26828439374E+02 -0.10649664785E+03  0.11065890997E+03  0.00000000000E+00 0. -1.
          1    1    1    2  502    0  0.38872136436E+02  0.24933508460E+02  0.57558984489E+02  0.73795389630E+02  0.00000000000E+00 0. -1.
         22    1    3    3    0    0 -0.32008184501E+02  0.63244201959E+02  0.73584144242E+02  0.10217132298E+03  0.00000000000E+00 0. -1.
         22    1    3    3    0    0 -0.20432046649E+02 -0.61349271045E+02  0.66832184422E+02  0.92993238800E+02  0.00000000000E+00 0. -1.
</event>
<event>
 7    1  0.6315518E-006  0.1237656E+03  0.7818608E-02  0.1315957E+00
          2   -1    0    0  502    0  0.00000000000E+00  0.00000000000E+00  0.14471612489E+04  0.14471612489E+04  0.00000000000E+00 0. -1.
          1   -1    0    0  501    0 -0.00000000000E+00 -0.00000000000E+00 -0.19445858094E+03  0.19445858094E+03  0.00000000000E+00 0. -1.
         25    2    1    2    0    0 -0.16069241985E+03 -0.33380356328E+02  0.59675054365E+03  0.63140558504E+03  0.12500199793E+03 0.  0.
          2    1    1    2  501    0  0.45543681356E+02  0.36077322106E+02 -0.16825172097E+03  0.17800124070E+03  0.00000000000E+00 0. -1.
          1    1    1    2  502    0  0.11514873849E+03 -0.26969657784E+01  0.82420384530E+03  0.83221300411E+03  0.00000000000E+00 0. -1.
         22    1    3    3    0    0 -0.23166766013E+02 -0.35850710495E+02  0.31493481270E+03  0.31781426768E+03  0.00000000000E+00 0.  1.
         22    1    3    3    0    0 -0.13752565383E+03  0.24703541675E+01  0.28181573095E+03  0.31359131736E+03  0.00000000000E+00 0.  1.
</event>
<event>
 7    1  0.6315518E-006  0.1025959E+03  0.7818608E-02  0.1357872E+00
          2   -1    0    0  502    0  0.00000000000E+00  0.00000000000E+00  0.11847067603E+04  0.11847067603E+04  0.00000000000E+00 0. -1.
          1   -1    0    0  501    0 -0.00000000000E+00 -0.00000000000E+00 -0.36203881712E+02  0.36203881712E+02  0.00000000000E+00 0. -1.
         25    2    1    2    0    0 -0.73362843405E+02 -0.30087623372E+02  0.48171479063E+03  0.50394646296E+03  0.12500210456E+03 0.  0.
          2    1    1    2  501    0 -0.11204461188E+02 -0.47353864951E+02  0.92879305202E+01  0.49539823674E+02  0.00000000000E+00 0. -1.
          1    1    1    2  502    0  0.84567304593E+02  0.77441488323E+02  0.65750015742E+03  0.66742435536E+03  0.00000000000E+00 0. -1.
         22    1    3    3    0    0 -0.94767055934E+02 -0.58132374248E+02  0.39450017963E+03  0.40986651432E+03  0.00000000000E+00 0.  1.
         22    1    3    3    0    0  0.21404212529E+02  0.28044750876E+02  0.87214611001E+02  0.94079948648E+02  0.00000000000E+00 0.  1.
</event>
<event>
 7    1  0.6315518E-006  0.5841932E+03  0.7818608E-02  0.1069666E+00
          2   -1    0    0  502    0  0.00000000000E+00  0.00000000000E+00  0.46049276180E+03  0.46049276180E+03  0.00000000000E+00 0. -1.
          1   -1    0    0  501    0 -0.00000000000E+00 -0.00000000000E+00 -0.15356608171E+04  0.15356608171E+04  0.00000000000E+00 0. -1.
         25    2    1    2    0    0 -0.18440002135E+03  0.50204149990E+03 -0.55018698558E+03  0.77741894912E+03  0.12500187139E+03 0.  0.
          2    1    1    2  501    0  0.37214093670E+03 -0.53258889899E+03 -0.70367236721E+03  0.95775498561E+03  0.00000000000E+00 0. -1.
          1    1    1    2  502    0 -0.18774091534E+03  0.30547399088E+02  0.17869129747E+03  0.26097964418E+03  0.00000000000E+00 0. -1.
         22    1    3    3    0    0 -0.28839230795E+02  0.38788243824E+02 -0.10686720611E+02  0.49501869553E+02  0.00000000000E+00 0. -1.
         22    1    3    3    0    0 -0.15556079056E+03  0.46325325607E+03 -0.53950026497E+03  0.72791707957E+03  0.00000000000E+00 0. -1.
</event>
<event>
 7    1  0.6315518E-006  0.1823139E+03  0.7818608E-02  0.1221618E+00
          2   -1    0    0  502    0  0.00000000000E+00  0.00000000000E+00  0.16913241391E+04  0.16913241391E+04  0.00000000000E+00 0. -1.
          1   -1    0    0  501    0 -0.00000000000E+00 -0.00000000000E+00 -0.33861870142E+03  0.33861870142E+03  0.00000000000E+00 0. -1.
         25    2    1    2    0    0  0.18945482268E+03  0.12460143429E+02  0.81202869472E+03  0.84324330370E+03  0.12498113129E+03 0.  0.
          2    1    1    2  501    0 -0.15101205436E+03 -0.10315981608E+03 -0.29399405709E+03  0.34623560450E+03  0.00000000000E+00 0. -1.
          1    1    1    2  502    0 -0.38442768317E+02  0.90699672653E+02  0.83467080005E+03  0.84046393231E+03  0.00000000000E+00 0. -1.
         22    1    3    3    0    0  0.14255554965E+03  0.59943319228E+02  0.47076633262E+03  0.49551612101E+03  0.00000000000E+00 0.  1.
         22    1    3    3    0    0  0.46899273033E+02 -0.47483175799E+02  0.34126236210E+03  0.34772718269E+03  0.00000000000E+00 0.  1.
</event>
<event>
 7    1  0.6315518E-006  0.5037367E+02  0.7818608E-02  0.1451090E+00
          2   -1    0    0  502    0  0.00000000000E+00  0.00000000000E+00  0.78508716453E+03  0.78508716453E+03  0.00000000000E+00 0. -1.
          1   -1    0    0  501    0 -0.00000000000E+00 -0.00000000000E+00 -0.60962546187E+03  0.60962546187E+03  0.00000000000E+00 0. -1.
         25    2    1    2    0    0 -0.50961625450E+02 -0.21004294010E+02 -0.24283784034E+03  0.27862579206E+03  0.12499539057E+03 0.  0.
          2    1    1    2  501    0  0.38544372937E+02 -0.27872153414E+02 -0.34643810296E+03  0.34968826804E+03  0.00000000000E+00 0. -1.
          1    1    1    2  502    0  0.12417252513E+02  0.48876447425E+02  0.76473764596E+03  0.76639856630E+03  0.00000000000E+00 0. -1.
         22    1    3    3    0    0 -0.51482167863E+02 -0.45547059922E+02 -0.24454127997E+03  0.25401847548E+03  0.00000000000E+00 0. -1.
         22    1    3    3    0    0  0.52054241318E+00  0.24542765912E+02  0.17034396248E+01  0.24607316586E+02  0.00000000000E+00 0. -1.
</event>
<event>
 7    1  0.6315518E-006  0.8050354E+02  0.7818608E-02  0.1435415E+00
          2   -1    0    0  502    0  0.00000000000E+00  0.00000000000E+00  0.13873550585E+04  0.13873550585E+04  0.00000000000E+00 0. -1.
          1   -1    0    0  501    0 -0.00000000000E+00 -0.00000000000E+00 -0.21065373296E+03  0.21065373296E+03  0.00000000000E+00 0. -1.
         25    2    1    2    0    0  0.76074448409E+02  0.68408638068E+02  0.18822684702E+03  0.24803559762E+03  0.12500099312E+03 0.  0.
          2    1    1    2  501    0 -0.46387470350E+01 -0.33121110183E+02 -0.17783138818E+03  0.18094896666E+03  0.00000000000E+00 0. -1.
          1    1    1    2  502    0 -0.71435701374E+02 -0.35287527885E+02  0.11663058667E+04  0.11690242272E+04  0.00000000000E+00 0. -1.
         22    1    3    3    0    0  0.10761473808E+03  0.46523941755E+02  0.10938784845E+03  0.16034684405E+03  0.00000000000E+00 0. -1.
         22    1    3    3    0    0 -0.31540289674E+02  0.21884696312E+02  0.78838998575E+02  0.87688753565E+02  0.00000000000E+00 0. -1.
</event>
<event>
 7    1  0.6315518E-006  0.3577567E+02  0.7818608E-02  0.1561042E+00
          2   -1    0    0  502    0  0.00000000000E+00  0.00000000000E+00  0.10334946893E+04  0.10334946893E+04  0.00000000000E+00 0. -1.
          1   -1    0    0  501    0 -0.00000000000E+00 -0.00000000000E+00 -0.47718103358E+03  0.47718103358E+03  0.00000000000E+00 0. -1.
         25    2    1    2    0    0 -0.47446605434E+01 -0.23154499619E+02  0.46664183376E+02  0.13550442422E+03  0.12500104127E+03 0.  0.
          2    1    1    2  501    0 -0.26873796362E+02  0.23911669042E+02 -0.43174737863E+03  0.43324331247E+03  0.00000000000E+00 0. -1.
          1    1    1    2  502    0  0.31618456906E+02 -0.75716942293E+00  0.94139685101E+03  0.94192798622E+03  0.00000000000E+00 0. -1.
         22    1    3    3    0    0  0.46079650286E+02 -0.50130032561E+02  0.14615784376E+02  0.69641765400E+02  0.00000000000E+00 0.  1.
         22    1    3    3    0    0 -0.50824310830E+02  0.26975532942E+02  0.32048399000E+02  0.65862658823E+02  0.00000000000E+00 0.  1.
</event>
<event>
 7    1  0.6315518E-006  0.1848392E+03  0.7818608E-02  0.1261207E+00
          2   -1    0    0  502    0  0.00000000000E+00  0.00000000000E+00  0.98749953919E+03  0.98749953919E+03  0.00000000000E+00 0. -1.
          1   -1    0    0  501    0 -0.00000000000E+00 -0.00000000000E+00 -0.20208499551E+04  0.20208499551E+04  0.00000000000E+00 0. -1.
         25    2    1    2    0    0  0.12308694779E+03 -0.22578978535E+02 -0.29037912954E+03  0.33998539570E+03  0.12493927896E+03 0.  0.
          2    1    1    2  501    0  0.63339588651E+02  0.14837235377E+02 -0.16959972757E+04  0.16972444745E+04  0.00000000000E+00 0. -1.
          1    1    1    2  502    0 -0.18642653644E+03  0.77417431586E+01  0.95302598930E+03  0.97111962412E+03  0.00000000000E+00 0. -1.
         22    1    3    3    0    0 -0.16942034048E+02 -0.17302396833E+02 -0.10413081826E+03  0.10690946059E+03  0.00000000000E+00 0. -1.
         22    1    3    3    0    0  0.14002898184E+03 -0.52765817028E+01 -0.18624831128E+03  0.23307593510E+03  0.00000000000E+00 0. -1.
</event>
<event>
 7    1  0.6315518E-006  0.4047802E+02  0.7818608E-02  0.1557488E+00
          2   -1    0    0  502    0  0.00000000000E+00  0.00000000000E+00  0.12279773318E+04  0.12279773318E+04  0.00000000000E+00 0. -1.
          1   -1    0    0  501    0 -0.00000000000E+00 -0.00000000000E+00 -0.19041757437E+03  0.19041757437E+03  0.00000000000E+00 0. -1.
         25    2    1    2    0    0  0.63692713953E+02  0.56889396830E+01  0.60821787898E+03  0.62421273885E+03  0.12499371662E+03 0.  0.
          2    1    1    2  501    0 -0.39326917874E+02  0.92688672771E+01 -0.17984344438E+03  0.18432629453E+03  0.00000000000E+00 0. -1.
          1    1    1    2  502    0 -0.24365796079E+02 -0.14957806960E+02  0.60918532287E+03  0.60985587282E+03  0.00000000000E+00 0. -1.
         22    1    3    3    0    0  0.50767528605E+01  0.23409402588E+02  0.15928307631E+02  0.28766030889E+02  0.00000000000E+00 0. -1.
         22    1    3    3    0    0  0.58615961093E+02 -0.17720462905E+02  0.59228957135E+03  0.59544670796E+03  0.00000000000E+00 0. -1.
</event>
<event>
 7    1  0.6315518E-006  0.8157250E+02  0.7818608E-02  0.1430118E+00
          2   -1    0    0  502    0  0.00000000000E+00  0.00000000000E+00  0.30665708703E+04  0.30665708703E+04  0.00000000000E+00 0. -1.
          1   -1    0    0  501    0 -0.00000000000E+00 -0.00000000000E+00 -0.22430209932E+02  0.22430209932E+02  0.00000000000E+00 0. -1.
         25    2    1    2    0    0  0.97970762987E+02  0.55153793046E+02  0.20000678590E+04  0.20071221280E+04  0.12501033732E+03 0.  0.
          2    1    1    2  501    0 -0.64381620136E+02 -0.47950091087E+02  0.68010543522E+02  0.10521234850E+03  0.00000000000E+00 0. -1.
          1    1    1    2  502    0 -0.33589142851E+02 -0.72037019583E+01  0.97606225783E+03  0.97666660381E+03  0.00000000000E+00 0. -1.
         22    1    3    3    0    0  0.62977731713E+02  0.92232954531E+02  0.11127058878E+04  0.11182966982E+04  0.00000000000E+00 0. -1.
         22    1    3    3    0    0  0.34993031274E+02 -0.37079161485E+02  0.88736197127E+03  0.88882542971E+03  0.00000000000E+00 0. -1.
</event>
<event>
 7    1  0.6315518E-006  0.1650151E+03  0.7818608E-02  0.1355525E+00
          2   -1    0    0  502    0  0.00000000000E+00  0.00000000000E+00  0.25004022127E+04  0.25004022127E+04  0.00000000000E+00 0. -1.
          1   -1    0    0  501    0 -0.00000000000E+00 -0.00000000000E+00 -0.23052181238E+02  0.23052181238E+02  0.00000000000E+00 0. -1.
         25    2    1    2    0    0 -0.15211534867E+03  0.72406313093E+02  0.98536862247E+03  0.10074513248E+04  0.12500038497E+03 0.  0.
          2    1    1    2  501    0  0.13273501222E+03 -0.96422166468E+02  0.56066588723E+03  0.58417639011E+03  0.00000000000E+00 0. -1.
          1    1    1    2  502    0  0.19380336454E+02  0.24015853375E+02  0.93131552179E+03  0.93182667905E+03  0.00000000000E+00 0. -1.
         22    1    3    3    0    0 -0.15895080013E+03  0.46539149246E+02  0.94233024409E+03  0.95677454931E+03  0.00000000000E+00 0.  1.
         22    1    3    3    0    0  0.68354514626E+01  0.25867163847E+02  0.43038378385E+02  0.50676775511E+02  0.00000000000E+00 0.  1.
</event>
<event>
 7    1  0.6315518E-006  0.2835945E+03  0.7818608E-02  0.1249204E+00
          2   -1    0    0  502    0  0.00000000000E+00  0.00000000000E+00  0.15168317356E+04  0.15168317356E+04  0.00000000000E+00 0. -1.
          1   -1    0    0  501    0 -0.00000000000E+00 -0.00000000000E+00 -0.42283294944E+03  0.42283294944E+03  0.00000000000E+00 0. -1.
         25    2    1    2    0    0 -0.85473707053E+02  0.31446748741E+03 -0.75076956411E+02  0.35700808725E+03  0.12499067862E+03 0.  0.
          2    1    1    2  501    0  0.26066437732E+02 -0.40011691946E+02 -0.18946861396E+03  0.19539383394E+03  0.00000000000E+00 0. -1.
          1    1    1    2  502    0  0.59407269321E+02 -0.27445579547E+03  0.13585443566E+04  0.13872627639E+04  0.00000000000E+00 0. -1.
         22    1    3    3    0    0 -0.72594644680E+02  0.13741910801E+03 -0.88741740140E+02  0.17896672910E+03  0.00000000000E+00 0.  1.
         22    1    3    3    0    0 -0.12879062373E+02  0.17704837940E+03  0.13664783729E+02  0.17804135815E+03  0.00000000000E+00 0.  1.
</event>
<event>
 7    1  0.6315518E-006  0.9079097E+02  0.7818608E-02  0.1354527E+00
          2   -1    0    0  502    0  0.00000000000E+00  0.00000000000E+00  0.75994149152E+03  0.75994149152E+03  0.00000000000E+00 0. -1.
          1   -1    0    0  501    0 -0.00000000000E+00 -0.00000000000E+00 -0.53556596010E+03  0.53556596010E+03  0.00000000000E+00 0. -1.
         25    2    1    2    0    0  0.12483688417E+03 -0.37362716258E+01 -0.30398617490E+03  0.35161121146E+03  0.12499856845E+03 0.  0.
          2    1    1    2  501    0 -0.76815069163E+02 -0.26156071414E+02 -0.19870345702E+03  0.21463401118E+03  0.00000000000E+00 0. -1.
          1    1    1    2  502    0 -0.48021815005E+02  0.29892343040E+02  0.72706516334E+03  0.72926222899E+03  0.00000000000E+00 0. -1.
         22    1    3    3    0    0  0.14913748578E+03 -0.65230701270E+01 -0.23488080677E+03  0.27830474933E+03  0.00000000000E+00 0.  1.
         22    1    3    3    0    0 -0.24300601615E+02  0.27867985012E+01 -0.69105368130E+02  0.73306462124E+02  0.00000000000E+00 0.  1.
</event>
<event>
 7    1  0.6315518E-006  0.9469465E+02  0.7818608E-02  0.1311810E+00
          2   -1    0    0  502    0  0.00000000000E+00  0.00000000000E+00  0.99931294475E+03  0.99931294475E+03  0.00000000000E+00 0. -1.
          1   -1    0    0  501    0 -0.00000000000E+00 -0.00000000000E+00 -0.67517142329E+03  0.67517142329E+03  0.00000000000E+00 0. -1.
         25    2    1    2    0    0  0.14448780498E+02  0.47600064415E+02 -0.32761922502E+02  0.13846909524E+03  0.12500325348E+03 0.  0.
          2    1    1    2  501    0  0.56335836879E+02 -0.82301031074E+02 -0.58367708613E+03  0.59213691585E+03  0.00000000000E+00 0. -1.
          1    1    1    2  502    0 -0.70784617377E+02  0.34700966659E+02  0.94058053009E+03  0.94387835695E+03  0.00000000000E+00 0. -1.
         22    1    3    3    0    0 -0.44489514570E+02  0.15751206364E+02 -0.50547437074E+02  0.69155338213E+02  0.00000000000E+00 0. -1.
         22    1    3    3    0    0  0.58938295068E+02  0.31848858051E+02  0.17785514572E+02  0.69313757028E+02  0.00000000000E+00 0. -1.
</event>
<event>
 7    1  0.6315518E-006  0.5215467E+02  0.7818608E-02  0.1439880E+00
          2   -1    0    0  502    0  0.00000000000E+00  0.00000000000E+00  0.70760526042E+03  0.70760526042E+03  0.00000000000E+00 0. -1.
          1   -1    0    0  501    0 -0.00000000000E+00 -0.00000000000E+00 -0.16670331629E+04  0.16670331629E+04  0.00000000000E+00 0. -1.
         25    2    1    2    0    0  0.31798774068E+02 -0.13049373386E+02 -0.10093638007E+03  0.16430210986E+03  0.12500232920E+03 0.  0.
          2    1    1    2  501    0  0.58353969616E+01  0.49581248294E+02 -0.15329894960E+04  0.15338021864E+04  0.00000000000E+00 0. -1.
          1    1    1    2  502    0 -0.37634171030E+02 -0.36531874909E+02  0.67449797360E+03  0.67653412708E+03  0.00000000000E+00 0. -1.
         22    1    3    3    0    0  0.64853381673E+02 -0.48635560221E+02 -0.62205451928E+02  0.10218070797E+03  0.00000000000E+00 0.  1.
         22    1    3    3    0    0 -0.33054607605E+02  0.35586186836E+02 -0.38730928145E+02  0.62121401887E+02  0.00000000000E+00 0.  1.
</event>
<event>
 7    1  0.6315518E-006  0.1997300E+03  0.7818608E-02  0.1350644E+00
          2   -1    0    0  502    0  0.00000000000E+00  0.00000000000E+00  0.37877587269E+02  0.37877587269E+02  0.00000000000E+00 0. -1.
          1   -1    0    0  501    0 -0.00000000000E+00 -0.00000000000E+00 -0.27692290396E+04  0.27692290396E+04  0.00000000000E+00 0. -1.
         25    2    1    2    0    0 -0.92067599762E+02 -0.15887340697E+03 -0.10163573664E+04  0.10403479405E+04  0.12499735446E+03 0.  0.
          2    1    1    2  501    0  0.94998987724E+02  0.18528656962E+03 -0.17256205310E+04  0.17381375485E+04  0.00000000000E+00 0. -1.
          1    1    1    2  502    0 -0.29313879616E+01 -0.26413162649E+02  0.10626445105E+02  0.28621137854E+02  0.00000000000E+00 0. -1.
         22    1    3    3    0    0 -0.99877172822E+02 -0.16632933503E+03 -0.78079345025E+03  0.80453670475E+03  0.00000000000E+00 0. -1.
         22    1    3    3    0    0  0.78095730602E+01  0.74559280563E+01 -0.23556391620E+03  0.23581123576E+03  0.00000000000E+00 0. -1.
</event>
<event>
 7    1  0.6315518E-006  0.9138246E+02  0.7818608E-02  0.1379904E+00
          2   -1    0    0  502    0  0.00000000000E+00  0.00000000000E+00  0.11995697671E+04  0.11995697671E+04  0.00000000000E+00 0. -1.
          1   -1    0    0  501    0 -0.00000000000E+00 -0.00000000000E+00 -0.55751596574E+03  0.55751596574E+03  0.00000000000E+00 0. -1.
         25    2    1    2    0    0 -0.46933772335E+02 -0.10248682277E+03  0.74262355350E+03  0.76146018810E+03  0.12500219206E+03 0.  0.
          2    1    1    2  501    0  0.28261386093E+01  0.91275058344E+02 -0.54311891092E+03  0.55074247588E+03  0.00000000000E+00 0. -1.
          1    1    1    2  502    0  0.44107633726E+02  0.11211764427E+02  0.44254915877E+03  0.44488306884E+03  0.00000000000E+00 0. -1.
         22    1    3    3    0    0 -0.29765916178E+02 -0.56738465164E+01  0.48127702220E+03  0.48223000155E+03  0.00000000000E+00 0. -1.
         22    1    3    3    0    0 -0.17167856158E+02 -0.96812976254E+02  0.26134653131E+03  0.27923018655E+03  0.00000000000E+00 0. -1.
</event>
<event>
 7    1  0.6315518E-006  0.6183989E+02  0.7818608E-02  0.1522195E+00
          2   -1    0    0  502    0  0.00000000000E+00  0.00000000000E+00  0.99988996245E+02  0.99988996245E+02  0.00000000000E+00 0. -1.
          1   -1    0    0  501    0 -0.00000000000E+00 -0.00000000000E+00 -0.24712025731E+04  0.24712025731E+04  0.00000000000E+00 0. -1.
         25    2    1    2    0    0 -0.17476963784E+02 -0.42867340474E+02 -0.13705484678E+04  0.13770151619E+04  0.12499840084E+03 0.  0.
          2    1    1    2  501    0 -0.23231417128E+02 -0.38567534704E+01 -0.10873574659E+04  0.10876124456E+04  0.00000000000E+00 0. -1.
          1    1    1    2  502    0  0.40708380912E+02  0.46724093944E+02  0.86692356841E+02  0.10656396185E+03  0.00000000000E+00 0. -1.
         22    1    3    3    0    0 -0.59084730150E+02 -0.40723984571E+02 -0.46459499536E+03  0.47010419906E+03  0.00000000000E+00 0. -1.
         22    1    3    3    0    0  0.41607766367E+02 -0.21433559030E+01 -0.90595347248E+03  0.90691096282E+03  0.00000000000E+00 0. -1.
</event>
<event>
 7    1  0.6315518E-006  0.2005797E+03  0.7818608E-02  0.1227886E+00
          2   -1    0    0  502    0  0.00000000000E+00  0.00000000000E+00  0.83251447658E+03  0.83251447658E+03  0.00000000000E+00 0. -1.
          1   -1    0    0  501    0 -0.00000000000E+00 -0.00000000000E+00 -0.56299901409E+03  0.56299901409E+03  0.00000000000E+00 0. -1.
         25    2    1    2    0    0 -0.69836272592E+02 -0.24969829763E+03 -0.19708545315E+03  0.34884732323E+03  0.12500173708E+03 0.  0.
          2    1    1    2  501    0  0.27558089626E+02  0.17725122872E+03 -0.25964976436E+03  0.31558746255E+03  0.00000000000E+00 0. -1.
          1    1    1    2  502    0  0.42278182966E+02  0.72447068915E+02  0.72625068000E+03  0.73107870489E+03  0.00000000000E+00 0. -1.
         22    1    3    3    0    0 -0.76142385279E+02 -0.95725512643E+02 -0.13644412938E+03  0.18324310915E+03  0.00000000000E+00 0.  1.
         22    1    3    3    0    0  0.63061126870E+01 -0.15397278499E+03 -0.60641323769E+02  0.16560421409E+03  0.00000000000E+00 0.  1.
</event>
<event>
 7    1  0.6315518E-006  0.1278196E+03  0.7818608E-02  0.1267672E+00
          2   -1    0    0  502    0  0.00000000000E+00  0.00000000000E+00  0.31377693963E+04  0.31377693963E+04  0.00000000000E+00 0. -1.
          1   -1    0    0  501    0 -0.00000000000E+00 -0.00000000000E+00 -0.29361570688E+03  0.29361570688E+03  0.00000000000E+00 0. -1.
         25    2    1    2    0    0  0.59007569349E+01  0.52919640482E+02 -0.11148937413E+03  0.17575997788E+03  0.12500552788E+03 0.  0.
          2    1    1    2  501    0 -0.62232114333E+02  0.62675513470E+02 -0.13553483892E+03  0.16177375747E+03  0.00000000000E+00 0. -1.
          1    1    1    2  502    0  0.56331357398E+02 -0.11559515395E+03  0.30911779025E+04  0.30938513678E+04  0.00000000000E+00 0. -1.
         22    1    3    3    0    0  0.15165945361E+02  0.41650105044E+02  0.16235056698E+02  0.47205023196E+02  0.00000000000E+00 0.  1.
         22    1    3    3    0    0 -0.92651884264E+01  0.11269535438E+02 -0.12772443082E+03  0.12855495469E+03  0.00000000000E+00 0.  1.
</event>
<event>
 7    1  0.6315518E-006  0.6852021E+02  0.7818608E-02  0.1413862E+00
          2   -1    0    0  502    0  0.00000000000E+00  0.00000000000E+00  0.46840142798E+03  0.46840142798E+03  0.00000000000E+00 0. -1.
          1   -1    0    0  501    0 -0.00000000000E+00 -0.00000000000E+00 -0.48893914862E+03  0.48893914862E+03  0.00000000000E+00 0. -1.
         25    2    1    2    0    0  0.23958985596E+02 -0.28579423666E+02 -0.12825073048E+02  0.13107036710E+03  0.12499656869E+03 0.  0.
          2    1    1    2  501    0 -0.20623950848E+02 -0.41482374214E+02 -0.41268068320E+03  0.41527277903E+03  0.00000000000E+00 0. -1.
          1    1    1    2  502    0 -0.33350347474E+01  0.70061797879E+02  0.40496803562E+03  0.41099743047E+03  0.00000000000E+00 0. -1.
         22    1    3    3    0    0  0.19631932054E+02 -0.71232646133E+02 -0.36156765046E+02  0.82260648489E+02  0.00000000000E+00 0.  1.
         22    1    3    3    0    0  0.43270535421E+01  0.42653222467E+02  0.23331691998E+02  0.48809718609E+02  0.00000000000E+00 0.  1.
</event>
<event>
 7    1  0.6315518E-006  0.1012814E+03  0.7818608E-02  0.1409161E+00
          2   -1    0    0  502    0  0.00000000000E+00  0.00000000000E+00  0.12043772708E+04  0.12043772708E+04  0.00000000000E+00 0. -1.
          1   -1    0    0  501    0 -0.00000000000E+00 -0.00000000000E+00 -0.19281741215E+03  0.19281741215E+03  0.00000000000E+00 0. -1.
         25    2    1    2    0    0 -0.75991347765E+02 -0.58236807613E+02  0.60222975564E+02  0.16857334202E+03  0.12499581656E+03 0.  0.
          2    1    1    2  501    0  0.19243555147E+02 -0.26202444309E+02 -0.13432499658E+03  0.13820306512E+03  0.00000000000E+00 0. -1.
          1    1    1    2  502    0  0.56747792618E+02  0.84439251922E+02  0.10856618797E+04  0.10904182758E+04  0.00000000000E+00 0. -1.
         22    1    3    3    0    0 -0.10409123163E+03 -0.65458002276E+02  0.29775096846E+02  0.12651597115E+03  0.00000000000E+00 0. -1.
         22    1    3    3    0    0  0.28099883865E+02  0.72211946631E+01  0.30447878718E+02  0.42057370865E+02  0.00000000000E+00 0. -1.
</event>
<event>
 7    1  0.6315518E-006  0.7869241E+02  0.7818608E-02  0.1402385E+00
          2   -1    0    0  502    0  0.00000000000E+00  0.00000000000E+00  0.21427076571E+04  0.21427076571E+04  0.00000000000E+00 0. -1.
          1   -1    0    0  501    0 -0.00000000000E+00 -0.00000000000E+00 -0.26706705413E+03  0.26706705413E+03  0.00000000000E+00 0. -1.
         25    2    1    2    0    0  0.97211929089E+02  0.74197642140E+02  0.53041972848E+03  0.55850292335E+03  0.12499991110E+03 0.  0.
          2    1    1    2  501    0 -0.61202688360E+02 -0.48690302427E+02 -0.24666901094E+03  0.25877039161E+03  0.00000000000E+00 0. -1.
          1    1    1    2  502    0 -0.36009240729E+02 -0.25507339713E+02  0.15918898855E+04  0.15925013963E+04  0.00000000000E+00 0. -1.
         22    1    3    3    0    0  0.40065647436E+02  0.51373299232E+02  0.46163676125E+03  0.46621129471E+03  0.00000000000E+00 0. -1.
         22    1    3    3    0    0  0.57146281653E+02  0.22824342908E+02  0.68782967229E+02  0.92291628639E+02  0.00000000000E+00 0. -1.
</event>
<event>
 7    1  0.6315518E-006  0.1407067E+03  0.7818608E-02  0.1404387E+00
          2   -1    0    0  502    0  0.00000000000E+00  0.00000000000E+00  0.22623756289E+04  0.22623756289E+04  0.00000000000E+00 0. -1.
          1   -1    0    0  501    0 -0.00000000000E+00 -0.00000000000E+00 -0.43678173165E+02  0.43678173165E+02  0.00000000000E+00 0. -1.
         25    2    1    2    0    0  0.12562543423E+03  0.94461857770E+02  0.11108397932E+04  0.11288464097E+04  0.12499751293E+03 0.  0.
          2    1    1    2  501    0 -0.15777135008E+02 -0.18472695379E+02 -0.25957253921E+02  0.35551898609E+02  0.00000000000E+00 0. -1.
          1    1    1    2  502    0 -0.10984829922E+03 -0.75989162391E+02  0.11338149164E+04  0.11416554937E+04  0.00000000000E+00 0. -1.
         22    1    3    3    0    0  0.23052006118E+02 -0.32595637272E+01  0.54650263650E+03  0.54699831027E+03  0.00000000000E+00 0.  1.
         22    1    3    3    0    0  0.10257342811E+03  0.97721421498E+02  0.56433715675E+03  0.58184809947E+03  0.00000000000E+00 0.  1.
</event>
<event>
 7    1  0.6315518E-006  0.1407864E+03  0.7818608E-02  0.1249827E+00
          2   -1    0    0  502    0  0.00000000000E+00  0.00000000000E+00  0.15125423060E+04  0.15125423060E+04  0.00000000000E+00 0. -1.
          1   -1    0    0  501    0 -0.00000000000E+00 -0.00000000000E+00 -0.26653232446E+04  0.26653232446E+04  0.00000000000E+00 0. -1.
         25    2    1    2    0    0  0.18452036453E+03  0.50543353648E+01  0.22654718048E+03  0.31784083621E+03  0.12500344374E+03 0.  0.
          2    1    1    2  501    0 -0.66610812636E+02  0.68567081108E+02 -0.26149056494E+04  0.26166524416E+04  0.00000000000E+00 0. -1.
          1    1    1    2  502    0 -0.11790955190E+03 -0.73621416473E+02  0.12355775303E+04  0.12433722728E+04  0.00000000000E+00 0. -1.
         22    1    3    3    0    0  0.19064005414E+03  0.30917500374E+02  0.17877320101E+03  0.26317176800E+03  0.00000000000E+00 0. -1.
         22    1    3    3    0    0 -0.61196896048E+01 -0.25863165010E+02  0.47773979465E+02  0.54669068211E+02  0.00000000000E+00 0. -1.
</event>
<event>
 7    1  0.6315518E-006  0.5186621E+02  0.7818608E-02  0.1483022E+00
          2   -1    0    0  502    0  0.00000000000E+00  0.00000000000E+00  0.18122228782E+04  0.18122228782E+04  0.00000000000E+00 0. -1.
          1   -1    0    0  501    0 -0.00000000000E+00 -0.00000000000E+00 -0.82185491823E+03  0.82185491823E+03  0.00000000000E+00 0. -1.
         25    2    1    2    0    0  0.32050004298E+01  0.22549724798E+02  0.59737051541E+03  0.61073338732E+03  0.12499990235E+03 0.  0.
          2    1    1    2  501    0 -0.37346719710E+02 -0.36057460037E+02 -0.81406756410E+03  0.81572110235E+03  0.00000000000E+00 0. -1.
          1    1    1    2  502    0  0.34141719280E+02  0.13507735238E+02  0.12070650087E+04  0.12076233068E+04  0.00000000000E+00 0. -1.
         22    1    3    3    0    0  0.30967654217E+01  0.74701902585E+02  0.36587177780E+03  0.37343288821E+03  0.00000000000E+00 0. -1.
         22    1    3    3    0    0  0.10823500812E+00 -0.52152177786E+02  0.23149873761E+03  0.23730049911E+03  0.00000000000E+00 0. -1.
</event>
<event>
 7    1  0.6315518E-006  0.5708535E+02  0.7818608E-02  0.1523447E+00
          2   -1    0    0  502    0  0.00000000000E+00  0.00000000000E+00  0.68638792927E+02  0.68638792927E+02  0.00000000000E+00 0. -1.
          1   -1    0    0  501    0 -0.00000000000E+00 -0.00000000000E+00 -0.27720194724E+04  0.27720194724E+04  0.00000000000E+00 0. -1.
         25    2    1    2    0    0  0.21733413812E+02  0.51774703971E+02 -0.52637746069E+03  0.54392216857E+03  0.12500053237E+03 0.  0.
          2    1    1    2  501    0 -0.42953114370E+02 -0.37999660614E+02 -0.22338123690E+04  0.22345484206E+04  0.00000000000E+00 0. -1.
          1    1    1    2  502    0  0.21219700558E+02 -0.13775043357E+02  0.56809150227E+02  0.62187676116E+02  0.00000000000E+00 0. -1.
         22    1    3    3    0    0 -0.45661490707E+02 -0.79648553956E+01 -0.15509406125E+03  0.16187210535E+03  0.00000000000E+00 0.  1.
         22    1    3    3    0    0  0.67394904519E+02  0.59739559367E+02 -0.37128339944E+03  0.38205006322E+03  0.00000000000E+00 0.  1.
</event>
<event>
 7    1  0.6315518E-006  0.4578599E+02  0.7818608E-02  0.1543796E+00
          2   -1    0    0  502    0  0.00000000000E+00  0.00000000000E+00  0.19073985813E+04  0.19073985813E+04  0.00000000000E+00 0. -1.
          1   -1    0    0  501    0 -0.00000000000E+00 -0.00000000000E+00 -0.26408871569E+03  0.26408871569E+03  0.00000000000E+00 0. -1.
         25    2    1    2    0    0 -0.37824846778E+02  0.61669672378E+02  0.12082590954E+04  0.12168600808E+04  0.12499818874E+03 0.  0.
          2    1    1    2  501    0  0.28688697973E+02 -0.35628130863E+02 -0.25749769371E+03  0.26152909469E+03  0.00000000000E+00 0. -1.
          1    1    1    2  502    0  0.91361488043E+01 -0.26041541516E+02  0.69254846399E+03  0.69309812154E+03  0.00000000000E+00 0. -1.
         22    1    3    3    0    0 -0.35461532027E+02  0.83598006652E+02  0.11627255316E+04  0.11662661826E+04  0.00000000000E+00 0.  1.
         22    1    3    3    0    0 -0.23633147509E+01 -0.21928334274E+02  0.45533563790E+02  0.50593898171E+02  0.00000000000E+00 0.  1.
</event>
<event>
 7    1  0.6315518E-006  0.3044772E+02  0.7818608E-02  0.1608773E+00
          2   -1    0    0  502    0  0.00000000000E+00  0.00000000000E+00  0.44725796449E+03  0.44725796449E+03  0.00000000000E+00 0. -1.
          1   -1    0    0  501    0 -0.00000000000E+00 -0.00000000000E+00 -0.52032677689E+02  0.52032677689E+02  0.00000000000E+00 0. -1.
         25    2    1    2    0    0  0.64074195829E+00 -0.22408067108E+01  0.29749841775E+03  0.32270120001E+03  0.12500129664E+03 0.  0.
          2    1    1    2  501    0 -0.20312661384E+02 -0.22681699525E+02 -0.31327835494E+02  0.43686347783E+02  0.00000000000E+00 0. -1.
          1    1    1    2  502    0  0.19671919426E+02  0.24922506236E+02  0.12905470455E+03  0.13290309439E+03  0.00000000000E+00 0. -1.
         22    1    3    3    0    0 -0.28874864361E+02 -0.42061373604E+02  0.54318759406E+02  0.74521436948E+02  0.00000000000E+00 0. -1.
         22    1    3    3    0    0  0.29515606319E+02  0.39820566893E+02  0.24317965834E+03  0.24817976307E+03  0.00000000000E+00 0. -1.
</event>
<event>
 7    1  0.6315518E-006  0.1934975E+03  0.7818608E-02  0.1217817E+00
          2   -1    0    0  502    0  0.00000000000E+00  0.00000000000E+00  0.14261749854E+04  0.14261749854E+04  0.00000000000E+00 0. -1.
          1   -1    0    0  501    0 -0.00000000000E+00 -0.00000000000E+00 -0.18947168683E+03  0.18947168683E+03  0.00000000000E+00 0. -1.
         25    2    1    2    0    0  0.98600074649E+02 -0.13375070517E+03  0.19725936001E+03  0.28661308586E+03  0.12499832008E+03 0.  0.
          2    1    1    2  501    0 -0.70095915771E+02 -0.66464532965E+02 -0.11888578266E+03  0.15318224724E+03  0.00000000000E+00 0. -1.
          1    1    1    2  502    0 -0.28504158879E+02  0.20021523814E+03  0.11583297213E+04  0.11758513392E+04  0.00000000000E+00 0. -1.
         22    1    3    3    0    0  0.27606723984E+02  0.22641670373E+02  0.41578409984E+02  0.54804567539E+02  0.00000000000E+00 0. -1.
         22    1    3    3    0    0  0.70993350666E+02 -0.15639237555E+03  0.15568095002E+03  0.23180851832E+03  0.00000000000E+00 0. -1.
</event>
<event>
 7    1  0.6315518E-006  0.5872394E+02  0.7818608E-02  0.1510543E+00
          2   -1    0    0  502    0  0.00000000000E+00  0.00000000000E+00  0.11614746732E+04  0.11614746732E+04  0.00000000000E+00 0. -1.
          1   -1    0    0  501    0 -0.00000000000E+00 -0.00000000000E+00 -0.49593660134E+03  0.49593660134E+03  0.00000000000E+00 0. -1.
         25    2    1    2    0    0 -0.16239261438E+02 -0.31694419429E+02  0.68773315119E+03  0.69990727588E+03  0.12500023101E+03 0.  0.
          2    1    1    2  501    0  0.40905683121E+02  0.42220823253E+02 -0.48769845755E+03  0.49122872302E+03  0.00000000000E+00 0. -1.
          1    1    1    2  502    0 -0.24666421683E+02 -0.10526403824E+02  0.46550337818E+03  0.46627527560E+03  0.00000000000E+00 0. -1.
         22    1    3    3    0    0  0.60359195995E+01  0.18922900126E+02  0.56432728124E+03  0.56467671178E+03  0.00000000000E+00 0. -1.
         22    1    3    3    0    0 -0.22275181037E+02 -0.50617319555E+02  0.12340586995E+03  0.13523056410E+03  0.00000000000E+00 0. -1.
</event>
<event>
 7    1  0.6315518E-006  0.1123628E+03  0.7818608E-02  0.1258961E+00
          2   -1    0    0  502    0  0.00000000000E+00  0.00000000000E+00  0.66747506612E+03  0.66747506612E+03  0.00000000000E+00 0. -1.
          1   -1    0    0  501    0 -0.00000000000E+00 -0.00000000000E+00 -0.38065094889E+03  0.38065094889E+03  0.00000000000E+00 0. -1.
         25    2    1    2    0    0 -0.98870774644E+02 -0.15029734769E+03  0.22119155144E+03  0.31131353691E+03  0.12500277211E+03 0.  0.
          2    1    1    2  501    0  0.10323349464E+03  0.40980342371E+02 -0.31854877100E+03  0.33735717331E+03  0.00000000000E+00 0. -1.
          1    1    1    2  502    0 -0.43627199907E+01  0.10931700532E+03  0.38418133680E+03  0.39945530479E+03  0.00000000000E+00 0. -1.
         22    1    3    3    0    0 -0.46508691212E+00 -0.95889686135E+02  0.54664172596E+02  0.11037762445E+03  0.00000000000E+00 0. -1.
         22    1    3    3    0    0 -0.98405687732E+02 -0.54407661560E+02  0.16652737884E+03  0.20093591246E+03  0.00000000000E+00 0. -1.
</event>
<event>
 7    1  0.7196465E-006  0.7659364E+02  0.7818608E-02  0.1477206E+00
          2   -1    0    0  502    0  0.00000000000E+00  0.00000000000E+00  0.85807057450E+03  0.85807057450E+03  0.00000000000E+00 0. -1.
          1   -1    0    0  501    0 -0.00000000000E+00 -0.00000000000E+00 -0.12617961282E+04  0.12617961282E+04  0.00000000000E+00 0. -1.
         25    2    1    2    0    0  0.69933452658E+02  0.21604427759E+02 -0.72320878518E+03  0.73757208893E+03  0.12499680115E+03 0.  0.
          2    1    1    2  501    0  0.66008136835E+01 -0.25050494568E+02 -0.52936382079E+03  0.52999731393E+03  0.00000000000E+00 0. -1.
          1    1    1    2  502    0 -0.76534266341E+02  0.34460668083E+01  0.84884705223E+03  0.85229729988E+03  0.00000000000E+00 0. -1.
         22    1    3    3    0    0  0.10972132026E+02 -0.10307012155E+02 -0.44564713174E+01  0.15699755328E+02  0.00000000000E+00 0.  1.
         22    1    3    3    0    0  0.58961320632E+02  0.31911439914E+02 -0.71875231386E+03  0.72187233360E+03  0.00000000000E+00 0.  1.
</event>
<event>
 7    1  0.6315518E-006  0.2397218E+03  0.7818608E-02  0.1226731E+00
          2   -1    0    0  502    0  0.00000000000E+00  0.00000000000E+00  0.73800759697E+03  0.73800759697E+03  0.00000000000E+00 0. -1.
          1   -1    0    0  501    0 -0.00000000000E+00 -0.00000000000E+00 -0.11529737796E+04  0.11529737796E+04  0.00000000000E+00 0. -1.
         25    2    1    2    0    0 -0.16290642826E+03 -0.93456756302E+02 -0.87849784184E+02  0.24210686136E+03  0.12500191226E+03 0.  0.
          2    1    1    2  501    0 -0.70228392070E+02  0.10644899655E+02 -0.96348756730E+03  0.96610228924E+03  0.00000000000E+00 0. -1.
          1    1    1    2  502    0  0.23313482033E+03  0.82811856647E+02  0.63637116884E+03  0.68277222599E+03  0.00000000000E+00 0. -1.
         22    1    3    3    0    0 -0.10901232325E+03 -0.17602884653E+02  0.51567053545E+01  0.11054474107E+03  0.00000000000E+00 0. -1.
         22    1    3    3    0    0 -0.53894105019E+02 -0.75853871649E+02 -0.93006489539E+02  0.13156212029E+03  0.00000000000E+00 0. -1.
</event>
<event>
 7    1  0.6315518E-006  0.1036982E+03  0.7818608E-02  0.1387312E+00
          2   -1    0    0  502    0  0.00000000000E+00  0.00000000000E+00  0.17987916769E+04  0.17987916769E+04  0.00000000000E+00 0. -1.
          1   -1    0    0  501    0 -0.00000000000E+00 -0.00000000000E+00 -0.54726146603E+02  0.54726146603E+02  0.00000000000E+00 0. -1.
         25    2    1    2    0    0 -0.11095497145E+03  0.52315261521E+02  0.67071575492E+03  0.69320531807E+03  0.12500438720E+03 0.  0.
          2    1    1    2  501    0  0.11693488078E+02 -0.35910240977E+02 -0.32542817206E+02  0.49852964026E+02  0.00000000000E+00 0. -1.
          1    1    1    2  502    0  0.99261483373E+02 -0.16405020544E+02  0.11058925926E+04  0.11104595414E+04  0.00000000000E+00 0. -1.
         22    1    3    3    0    0  0.99626409837E+00 -0.29360048829E+02  0.21165499565E+03  0.21368397739E+03  0.00000000000E+00 0.  1.
         22    1    3    3    0    0 -0.11195123555E+03  0.81675310350E+02  0.45906075927E+03  0.47952134068E+03  0.00000000000E+00 0.  1.
</event>
<event>
 7    1  0.6315518E-006  0.8220921E+02  0.7818608E-02  0.1436146E+00
          2   -1    0    0  502    0  0.00000000000E+00  0.00000000000E+00  0.71965742638E+03  0.71965742638E+03  0.00000000000E+00 0. -1.
          1   -1    0    0  501    0 -0.00000000000E+00 -0.00000000000E+00 -0.54105058490E+03  0.54105058490E+03  0.00000000000E+00 0. -1.
         25    2    1    2    0    0 -0.67331892621E+01  0.95643438858E+02  0.25871768557E+02  0.15965035599E+03  0.12500353806E+03 0.  0.
          2    1    1    2  501    0  0.28025562635E+02 -0.16596496935E+02 -0.47092376956E+03  0.47204880320E+03  0.00000000000E+00 0. -1.
          1    1    1    2  502    0 -0.21292373373E+02 -0.79046941922E+02  0.62365884248E+03  0.62900885208E+03  0.00000000000E+00 0. -1.
         22    1    3    3    0    0  0.49707651545E+02  0.15937234376E+02  0.32947620207E+02  0.61728370617E+02  0.00000000000E+00 0. -1.
         22    1    3    3    0    0 -0.56440840807E+02  0.79706204482E+02 -0.70758516504E+01  0.97921985378E+02  0.00000000000E+00 0. -1.
</event>
<event>
 7    1  0.6315518E-006  0.7245907E+02  0.7818608E-02  0.1456902E+00
          2   -1    0    0  502    0  0.00000000000E+00  0.00000000000E+00  0.13215082236E+03  0.13215082236E+03  0.00000000000E+00 0. -1.
          1   -1    0    0  501    0 -0.00000000000E+00 -0.00000000000E+00 -0.22182591787E+04  0.22182591787E+04  0.00000000000E+00 0. -1.
         25    2    1    2    0    0 -0.16186552850E+02 -0.83062017754E+02 -0.17817143606E+03  0.23352433538E+03  0.12500900488E+03 0.  0.
          2    1    1    2  501    0  0.29247332365E+02  0.12199609460E+02 -0.19998465605E+04  0.20000976233E+04  0.00000000000E+00 0. -1.
          1    1    1    2  502    0 -0.13060779515E+02  0.70862408293E+02  0.91909640274E+02  0.11678804239E+03  0.00000000000E+00 0. -1.
         22    1    3    3    0    0 -0.44948179811E+02 -0.45937754294E+02 -0.17503057871E+03  0.18645728632E+03  0.00000000000E+00 0. -1.
         22    1    3    3    0    0  0.28761626961E+02 -0.37124263460E+02 -0.31408573528E+01  0.47067049066E+02  0.00000000000E+00 0. -1.
</event>
<event>
 7    1  0.6315518E-006  0.1670352E+03  0.7818608E-02  0.1211760E+00
          2   -1    0    0  502    0  0.00000000000E+00  0.00000000000E+00  0.24051611559E+03  0.24051611559E+03  0.00000000000E+00 0. -1.
          1   -1    0    0  501    0 -0.00000000000E+00 -0.00000000000E+00 -0.13360348441E+04  0.13360348441E+04  0.00000000000E+00 0. -1.
         25    2    1    2    0    0  0.20967821311E+03 -0.13780455181E+03 -0.24086126008E+02  0.28135008364E+03  0.12499072183E+03 0.  0.
          2    1    1    2  501    0 -0.73533043478E+02  0.93961280978E+02 -0.11331562475E+04  0.11394204281E+04  0.00000000000E+00 0. -1.
          1    1    1    2  502    0 -0.13614516963E+03  0.43843270836E+02  0.61723644973E+02  0.15578044794E+03  0.00000000000E+00 0. -1.
         22    1    3    3    0    0  0.75020253291E+02 -0.87195578435E+02  0.42767922533E+02  0.12272001671E+03  0.00000000000E+00 0.  1.
         22    1    3    3    0    0  0.13465795982E+03 -0.50608973379E+02 -0.66854048541E+02  0.15863006693E+03  0.00000000000E+00 0.  1.
</event>
<event>
 7    1  0.6315518E-006  0.5334177E+02  0.7818608E-02  0.1449695E+00
          2   -1    0    0  502    0  0.00000000000E+00  0.00000000000E+00  0.98168798784E+01  0.98168798784E+01  0.00000000000E+00 0. -1.
          1   -1    0    0  501    0 -0.00000000000E+00 -0.00000000000E+00 -0.27429139910E+04  0.27429139910E+04  0.00000000000E+00 0. -1.
         25    2    1    2    0    0  0.26884355900E+02  0.66544314150E+01 -0.97434904713E+03  0.98272440040E+03  0.12499652578E+03 0.  0.
          2    1    1    2  501    0 -0.46069535821E+02  0.34474267219E+02 -0.16635424496E+04  0.16645372807E+04  0.00000000000E+00 0. -1.
          1    1    1    2  502    0  0.19185179920E+02 -0.41128698634E+02 -0.95205614428E+02  0.10546918981E+03  0.00000000000E+00 0. -1.
         22    1    3    3    0    0 -0.45544423524E+02  0.15832769740E+02 -0.55289367215E+03  0.55499223761E+03  0.00000000000E+00 0.  1.
         22    1    3    3    0    0  0.72428779424E+02 -0.91783383247E+01 -0.42145537498E+03  0.42773216279E+03  0.00000000000E+00 0.  1.
</event>
<event>
 7    1  0.6315518E-006  0.1064969E+03  0.7818608E-02  0.1312567E+00
          2   -1    0    0  502    0  0.00000000000E+00  0.00000000000E+00  0.18691498079E+03  0.18691498079E+03  0.00000000000E+00 0. -1.
          1   -1    0    0  501    0 -0.00000000000E+00 -0.00000000000E+00 -0.31974237070E+04  0.31974237070E+04  0.00000000000E+00 0. -1.
         25    2    1    2    0    0 -0.13207840664E+02 -0.55702002299E+02 -0.31229981777E+02  0.14099101764E+03  0.12500398065E+03 0.  0.
          2    1    1    2  501    0  0.15392873051E+02 -0.67895426707E+02 -0.30818997725E+04  0.30826859939E+04  0.00000000000E+00 0. -1.
          1    1    1    2  502    0 -0.21850323874E+01  0.12359742901E+03  0.10262102802E+03  0.16066167625E+03  0.00000000000E+00 0. -1.
         22    1    3    3    0    0 -0.28901080470E+02  0.85331736816E+00 -0.66501905539E+02  0.72515543459E+02  0.00000000000E+00 0.  1.
         22    1    3    3    0    0  0.15693239806E+02 -0.56555319667E+02  0.35271923762E+02  0.68475474180E+02  0.00000000000E+00 0.  1.
</event>
<event>
 7    1  0.6315518E-006  0.6024818E+02  0.7818608E-02  0.1485373E+00
          2   -1    0    0  502    0  0.00000000000E+00  0.00000000000E+00  0.87974837928E+03  0.87974837928E+03  0.00000000000E+00 0. -1.
          1   -1    0    0  501    0 -0.00000000000E+00 -0.00000000000E+00 -0.84710030321E+03  0.84710030321E+03  0.00000000000E+00 0. -1.
         25    2    1    2    0    0 -0.66193937030E+02 -0.40209931634E+02  0.84545533342E+02  0.16962148439E+03  0.12500009942E+03 0.  0.
          2    1    1    2  501    0  0.59326293558E+02  0.98870448252E+01 -0.80311630901E+03  0.80536523923E+03  0.00000000000E+00 0. -1.
          1    1    1    2  502    0  0.68676434729E+01  0.30322886809E+02  0.75121885174E+03  0.75186195887E+03  0.00000000000E+00 0. -1.
         22    1    3    3    0    0  0.32605825364E+02 -0.51913262223E+01  0.48705623050E+02  0.58841545121E+02  0.00000000000E+00 0.  1.
         22    1    3    3    0    0 -0.98799762394E+02 -0.35018605412E+02  0.35839910292E+02  0.11077993927E+03  0.00000000000E+00 0.  1.
</event>
<event>
 7    1  0.6315518E-006  0.4951246E+02  0.7818608E-02  0.1496144E+00
          2   -1    0    0  502    0  0.00000000000E+00  0.00000000000E+00  0.25388715984E+03  0.25388715984E+03  0.00000000000E+00 0. -1.
          1   -1    0    0  501    0 -0.00000000000E+00 -0.00000000000E+00 -0.23257814165E+04  0.23257814165E+04  0.00000000000E+00 0. -1.
         25    2    1    2    0    0  0.72959304916E+02  0.83597955312E+01 -0.14674193226E+03  0.20627909685E+03  0.12499969903E+03 0.  0.
          2    1    1    2  501    0 -0.42289628588E+02 -0.25429994457E+02 -0.21476114378E+04  0.21481782945E+04  0.00000000000E+00 0. -1.
          1    1    1    2  502    0 -0.30669676328E+02  0.17070198926E+02  0.22245911336E+03  0.22521118501E+03  0.00000000000E+00 0. -1.
         22    1    3    3    0    0  0.93076011915E+01 -0.50290294422E+02 -0.25058713652E+02  0.56953351814E+02  0.00000000000E+00 0.  1.
         22    1    3    3    0    0  0.63651703724E+02  0.58650089953E+02 -0.12168321861E+03  0.14932574503E+03  0.00000000000E+00 0.  1.
</event>
<event>
 7    1  0.6315518E-006  0.2546947E+03  0.7818608E-02  0.1260213E+00
          2   -1    0    0  502    0  0.00000000000E+00  0.00000000000E+00  0.26948142384E+03  0.26948142384E+03  0.00000000000E+00 0. -1.
          1   -1    0    0  501    0 -0.00000000000E+00 -0.00000000000E+00 -0.52749681641E+03  0.52749681641E+03  0.00000000000E+00 0. -1.
         25    2    1    2    0    0 -0.40099354440E+02 -0.23174782804E+03 -0.17155277818E+03  0.31681301661E+03  0.12500047105E+03 0.  0.
          2    1    1    2  501    0 -0.44615244316E+02 -0.16802999888E+02 -0.19150034342E+03  0.19734548984E+03  0.00000000000E+00 0. -1.
          1    1    1    2  502    0  0.84714598756E+02  0.24855082793E+03  0.10503772903E+03  0.28281973380E+03  0.00000000000E+00 0. -1.
         22    1    3    3    0    0 -0.98054789877E+01 -0.22387277848E+03 -0.17633681556E+03  0.28514880481E+03  0.00000000000E+00 0.  1.
         22    1    3    3    0    0 -0.30293875452E+02 -0.78750495658E+01  0.47840373775E+01  0.31664211804E+02  0.00000000000E+00 0.  1.
</event>
<event>
 7    1  0.6315518E-006  0.6097853E+02  0.7818608E-02  0.1457178E+00
          2   -1    0    0  502    0  0.00000000000E+00  0.00000000000E+00  0.24194029521E+03  0.24194029521E+03  0.00000000000E+00 0. -1.
          1   -1    0    0  501    0 -0.00000000000E+00 -0.00000000000E+00 -0.94428977004E+03  0.94428977004E+03  0.00000000000E+00 0. -1.
         25    2    1    2    0    0 -0.37438227426E+01  0.25387065449E+02 -0.24409308785E+03  0.27543655287E+03  0.12500135926E+03 0.  0.
          2    1    1    2  501    0  0.11953570170E+02  0.35628353369E+02 -0.67980854396E+03  0.68084647597E+03  0.00000000000E+00 0. -1.
          1    1    1    2  502    0 -0.82097474279E+01 -0.61015418818E+02  0.22155215699E+03  0.22994703641E+03  0.00000000000E+00 0. -1.
         22    1    3    3    0    0 -0.17758009292E+02  0.27027262323E+02 -0.25534801504E+03  0.25738770093E+03  0.00000000000E+00 0. -1.
         22    1    3    3    0    0  0.14014186550E+02 -0.16401968740E+01  0.11254927187E+02  0.18048851942E+02  0.00000000000E+00 0. -1.
</event>
<event>
 7    1  0.6315518E-006  0.1457747E+03  0.7818608E-02  0.1259485E+00
          2   -1    0    0  502    0  0.00000000000E+00  0.00000000000E+00  0.37706763492E+03  0.37706763492E+03  0.00000000000E+00 0. -1.
          1   -1    0    0  501    0 -0.00000000000E+00 -0.00000000000E+00 -0.51883092807E+03  0.51883092807E+03  0.00000000000E+00 0. -1.
         25    2    1    2    0    0 -0.70590189894E+02 -0.10058191590E+03  0.15660267016E+03  0.23505403210E+03  0.12500521985E+03 0.  0.
          2    1    1    2  501    0 -0.83424536748E+02  0.88650786954E+01 -0.43021658483E+03  0.43832014876E+03  0.00000000000E+00 0. -1.
          1    1    1    2  502    0  0.15401472664E+03  0.91716837200E+02  0.13185062152E+03  0.22252438213E+03  0.00000000000E+00 0. -1.
         22    1    3    3    0    0  0.34019645042E+02 -0.45727197191E+02  0.55940109854E+02  0.79859931769E+02  0.00000000000E+00 0. -1.
         22    1    3    3    0    0 -0.10460983494E+03 -0.54854718704E+02  0.10066256030E+03  0.15519410033E+03  0.00000000000E+00 0. -1.
</event>
<event>
 7    1  0.6315518E-006  0.1010974E+03  0.7818608E-02  0.1303504E+00
          2   -1    0    0  502    0  0.00000000000E+00  0.00000000000E+00  0.10387982508E+03  0.10387982508E+03  0.00000000000E+00 0. -1.
          1   -1    0    0  501    0 -0.00000000000E+00 -0.00000000000E+00 -0.16648215879E+04  0.16648215879E+04  0.00000000000E+00 0. -1.
         25    2    1    2    0    0  0.54411686798E+02  0.95968516690E+01 -0.15887953435E+03  0.20957266368E+03  0.12500105483E+03 0.  0.
          2    1    1    2  501    0 -0.84118445033E+02  0.64298035058E+02 -0.14579779572E+04  0.14618173189E+04  0.00000000000E+00 0. -1.
          1    1    1    2  502    0  0.29706758235E+02 -0.73894886727E+02  0.55915728727E+02  0.97311430409E+02  0.00000000000E+00 0. -1.
         22    1    3    3    0    0 -0.51905659910E+01  0.10543506745E+02  0.18794192150E+02  0.22165946142E+02  0.00000000000E+00 0.  1.
         22    1    3    3    0    0  0.59602252789E+02 -0.94665507595E+00 -0.17767372650E+03  0.18740671754E+03  0.00000000000E+00 0.  1.
</event>
<event>
 7    1  0.6315518E-006  0.3710950E+03  0.7818608E-02  0.1176616E+00
          2   -1    0    0  502    0  0.00000000000E+00  0.00000000000E+00  0.48256008303E+04  0.48256008303E+04  0.00000000000E+00 0. -1.
          1   -1    0    0  501    0 -0.00000000000E+00 -0.00000000000E+00 -0.10240567778E+04  0.10240567778E+04  0.00000000000E+00 0. -1.
         25    2    1    2    0    0 -0.34037812957E+03 -0.24769873171E+03  0.83236358700E+03  0.94109891817E+03  0.12500440001E+03 0.  0.
          2    1    1    2  501    0  0.78790754760E+02 -0.53016569078E+01 -0.95965804579E+03  0.96290168525E+03  0.00000000000E+00 0. -1.
          1    1    1    2  502    0  0.26158737481E+03  0.25300038862E+03  0.39288385113E+04  0.39456570047E+04  0.00000000000E+00 0. -1.
         22    1    3    3    0    0 -0.30731171640E+03 -0.24666576011E+03  0.68676837583E+03  0.79179245405E+03  0.00000000000E+00 0. -1.
         22    1    3    3    0    0 -0.33066413169E+02 -0.10329716005E+01  0.14559521118E+03  0.14930646412E+03  0.00000000000E+00 0. -1.
</event>
<event>
 7    1  0.6315518E-006  0.1951441E+03  0.7818608E-02  0.1294490E+00
          2   -1    0    0  502    0  0.00000000000E+00  0.00000000000E+00  0.55730352442E+03  0.55730352442E+03  0.00000000000E+00 0. -1.
          1   -1    0    0  501    0 -0.00000000000E+00 -0.00000000000E+00 -0.20968546237E+04  0.20968546237E+04  0.00000000000E+00 0. -1.
         25    2    1    2    0    0  0.20675828653E+03  0.29966902767E+02 -0.13597958671E+03  0.27885933314E+03  0.12500030147E+03 0.  0.
          2    1    1    2  501    0 -0.24599986175E+02  0.37490478358E+02 -0.18697406218E+04  0.18702782381E+04  0.00000000000E+00 0. -1.
          1    1    1    2  502    0 -0.18215830035E+03 -0.67457381125E+02  0.46616910921E+03  0.50502057685E+03  0.00000000000E+00 0. -1.
         22    1    3    3    0    0  0.10515624219E+03 -0.33555798736E+02 -0.20154471373E+02  0.11220530120E+03  0.00000000000E+00 0.  1.
         22    1    3    3    0    0  0.10160204434E+03  0.63522701504E+02 -0.11582511534E+03  0.16665403194E+03  0.00000000000E+00 0.  1.
</event>
<event>
 7    1  0.6315518E-006  0.9407030E+02  0.7818608E-02  0.1467084E+00
          2   -1    0    0  502    0  0.00000000000E+00  0.00000000000E+00  0.21798356106E+03  0.21798356106E+03  0.00000000000E+00 0. -1.
          1   -1    0    0  501    0 -0.00000000000E+00 -0.00000000000E+00 -0.16833765535E+04  0.16833765535E+04  0.00000000000E+00 0. -1.
         25    2    1    2    0    0  0.23319616164E+02  0.94981860061E+02 -0.27732415318E+02  0.16112227671E+03  0.12500377175E+03 0.  0.
          2    1    1    2  501    0 -0.66508225742E+00 -0.94044361905E+02 -0.15866994094E+04  0.15894841302E+04  0.00000000000E+00 0. -1.
          1    1    1    2  502    0 -0.22654533906E+02 -0.93749815656E+00  0.14903883235E+03  0.15075370760E+03  0.00000000000E+00 0. -1.
         22    1    3    3    0    0  0.54388200256E+02  0.10200174102E+03 -0.45990243759E+02  0.12440873771E+03  0.00000000000E+00 0.  1.
         22    1    3    3    0    0 -0.31068584093E+02 -0.70198809566E+01  0.18257828441E+02  0.36713538995E+02  0.00000000000E+00 0.  1.
</event>
<event>
 7    1  0.6315518E-006  0.1132860E+03  0.7818608E-02  0.1400410E+00
          2   -1    0    0  502    0  0.00000000000E+00  0.00000000000E+00  0.24625652749E+03  0.24625652749E+03  0.00000000000E+00 0. -1.
          1   -1    0    0  501    0 -0.00000000000E+00 -0.00000000000E+00 -0.47645177357E+03  0.47645177357E+03  0.00000000000E+00 0. -1.
         25    2    1    2    0    0 -0.83827362918E+02 -0.98930174766E+01 -0.21991345854E+03  0.26666440751E+03  0.12499231343E+03 0.  0.
          2    1    1    2  501    0 -0.31014796913E+02  0.27340541265E+01 -0.21712705828E+03  0.21934801598E+03  0.00000000000E+00 0. -1.
          1    1    1    2  502    0  0.11484215983E+03  0.71589633501E+01  0.20684527073E+03  0.23669587756E+03  0.00000000000E+00 0. -1.
         22    1    3    3    0    0 -0.43199960189E+02  0.50829579919E+02 -0.15572909294E+03  0.16941497320E+03  0.00000000000E+00 0. -1.
         22    1    3    3    0    0 -0.40627402729E+02 -0.60722597395E+02 -0.64184365597E+02  0.97249434312E+02  0.00000000000E+00 0. -1.
</event>
<event>
 7    1  0.6315518E-006  0.9805007E+02  0.7818608E-02  0.1313664E+00
          2   -1    0    0  502    0  0.00000000000E+00  0.00000000000E+00  0.21327875160E+03  0.21327875160E+03  0.00000000000E+00 0. -1.
          1   -1    0    0  501    0 -0.00000000000E+00 -0.00000000000E+00 -0.65551779227E+03  0.65551779227E+03  0.00000000000E+00 0. -1.
         25    2    1    2    0    0 -0.11228624269E+02 -0.11087154607E+03 -0.99958322178E+02  0.19502479182E+03  0.12499768606E+03 0.  0.
          2    1    1    2  501    0 -0.57406380137E+02  0.80958285273E+02 -0.49438020812E+03  0.50424351916E+03  0.00000000000E+00 0. -1.
          1    1    1    2  502    0  0.68635004407E+02  0.29913260792E+02  0.15209948963E+03  0.16952823289E+03  0.00000000000E+00 0. -1.
         22    1    3    3    0    0  0.37649087423E+02 -0.59523597189E+02 -0.10217577472E+03  0.12409835352E+03  0.00000000000E+00 0. -1.
         22    1    3    3    0    0 -0.48877711692E+02 -0.51347948876E+02  0.22174525440E+01  0.70926438299E+02  0.00000000000E+00 0. -1.
</event>
<event>
 7    1  0.6315518E-006  0.5032289E+02  0.7818608E-02  0.1478614E+00
          2   -1    0    0  502    0  0.00000000000E+00  0.00000000000E+00  0.23692219690E+04  0.23692219690E+04  0.00000000000E+00 0. -1.
          1   -1    0    0  501    0 -0.00000000000E+00 -0.00000000000E+00 -0.26001920289E+03  0.26001920289E+03  0.00000000000E+00 0. -1.
         25    2    1    2    0    0 -0.13562520818E+02  0.46406909118E+01  0.62298061506E+03  0.63556012398E+03  0.12500538575E+03 0.  0.
          2    1    1    2  501    0  0.31946455909E+02 -0.39079000690E+02 -0.25099769739E+03  0.25602263266E+03  0.00000000000E+00 0. -1.
          1    1    1    2  502    0 -0.18383935091E+02  0.34438309779E+02  0.17372198484E+04  0.17376584152E+04  0.00000000000E+00 0. -1.
         22    1    3    3    0    0  0.53304948155E+02 -0.16010241545E+02  0.29311939502E+03  0.29835670777E+03  0.00000000000E+00 0. -1.
         22    1    3    3    0    0 -0.66867468973E+02  0.20650932457E+02  0.32986122004E+03  0.33720341621E+03  0.00000000000E+00 0. -1.
</event>
<event>
 7    1  0.6315518E-006  0.5009204E+02  0.7818608E-02  0.1544831E+00
          2   -1    0    0  502    0  0.00000000000E+00  0.00000000000E+00  0.43186832980E+03  0.43186832980E+03  0.00000000000E+00 0. -1.
          1   -1    0    0  501    0 -0.00000000000E+00 -0.00000000000E+00 -0.26721678894E+03  0.26721678894E+03  0.00000000000E+00 0. -1.
         25    2    1    2    0    0  0.39458134260E+02 -0.62514545471E+02 -0.30201094890E+01  0.14525350900E+03  0.12499779222E+03 0.  0.
          2    1    1    2  501    0 -0.28216154364E+02  0.40121054238E+02 -0.18951888952E+03  0.19576327501E+03  0.00000000000E+00 0. -1.
          1    1    1    2  502    0 -0.11241979896E+02  0.22393491233E+02  0.35719053987E+03  0.35806833472E+03  0.00000000000E+00 0. -1.
         22    1    3    3    0    0  0.60517666958E+02 -0.75176398447E+02 -0.36967044505E+02  0.10334622043E+03  0.00000000000E+00 0. -1.
         22    1    3    3    0    0 -0.21059532698E+02  0.12661852976E+02  0.33946935016E+02  0.41907288569E+02  0.00000000000E+00 0. -1.
</event>
<event>
 7    1  0.6315518E-006  0.1023742E+03  0.7818608E-02  0.1351929E+00
          2   -1    0    0  502    0  0.00000000000E+00  0.00000000000E+00  0.16253491428E+03  0.16253491428E+03  0.00000000000E+00 0. -1.
          1   -1    0    0  501    0 -0.00000000000E+00 -0.00000000000E+00 -0.13182257242E+04  0.13182257242E+04  0.00000000000E+00 0. -1.
         25    2    1    2    0    0  0.87166660863E+02  0.41659062371E+00 -0.74455872016E+03  0.75999372481E+03  0.12499829471E+03 0.  0.
          2    1    1    2  501    0 -0.10890336945E+03  0.46032729804E+02 -0.55530098464E+03  0.56774830659E+03  0.00000000000E+00 0. -1.
          1    1    1    2  502    0  0.21736708589E+02 -0.46449320427E+02  0.14416889487E+03  0.15301860709E+03  0.00000000000E+00 0. -1.
         22    1    3    3    0    0  0.27825473553E+02  0.37990664867E+02 -0.89065223285E+02  0.10074801037E+03  0.00000000000E+00 0.  1.
         22    1    3    3    0    0  0.59341187310E+02 -0.37574074243E+02 -0.65549349687E+03  0.65924571444E+03  0.00000000000E+00 0.  1.
</event>
<event>
 7    1  0.6315518E-006  0.1165638E+03  0.7818608E-02  0.1447244E+00
          2   -1    0    0  502    0  0.00000000000E+00  0.00000000000E+00  0.21489998406E+04  0.21489998406E+04  0.00000000000E+00 0. -1.
          1   -1    0    0  501    0 -0.00000000000E+00 -0.00000000000E+00 -0.11947413062E+03  0.11947413062E+03  0.00000000000E+00 0. -1.
         25    2    1    2    0    0  0.29032576817E+02  0.13057184021E+03  0.15535821526E+03  0.24011353488E+03  0.12500575431E+03 0.  0.
          2    1    1    2  501    0 -0.14241333714E+02 -0.15633279618E+02 -0.73891217117E+02  0.76857836195E+02  0.00000000000E+00 0. -1.
          1    1    1    2  502    0 -0.14791243103E+02 -0.11493856059E+03  0.19480587118E+04  0.19515026001E+04  0.00000000000E+00 0. -1.
         22    1    3    3    0    0  0.68161665192E+02  0.12649461567E+03  0.11966182690E+03  0.18699158594E+03  0.00000000000E+00 0.  1.
         22    1    3    3    0    0 -0.39129088375E+02  0.40772245370E+01  0.35696388356E+02  0.53121948935E+02  0.00000000000E+00 0.  1.
</event>
<event>
 7    1  0.6315518E-006  0.5823701E+02  0.7818608E-02  0.1409492E+00
          2   -1    0    0  502    0  0.00000000000E+00  0.00000000000E+00  0.16938050090E+04  0.16938050090E+04  0.00000000000E+00 0. -1.
          1   -1    0    0  501    0 -0.00000000000E+00 -0.00000000000E+00 -0.24905025310E+02  0.24905025310E+02  0.00000000000E+00 0. -1.
         25    2    1    2    0    0 -0.11893123185E+02  0.17350934415E+01  0.37581186960E+03  0.39623680096E+03  0.12499833669E+03 0.  0.
          2    1    1    2  501    0  0.68150267950E+02  0.21683592261E+01  0.68719600036E+02  0.96806736504E+02  0.00000000000E+00 0. -1.
          1    1    1    2  502    0 -0.56257144765E+02 -0.39034526676E+01  0.12243685141E+04  0.12256664969E+04  0.00000000000E+00 0. -1.
         22    1    3    3    0    0  0.40304586589E+02 -0.33080481726E+02  0.93690312195E+02  0.10722244434E+03  0.00000000000E+00 0.  1.
         22    1    3    3    0    0 -0.52197709774E+02  0.34815575168E+02  0.28212155741E+03  0.28901435662E+03  0.00000000000E+00 0.  1.
</event>
<event>
 7    1  0.6315518E-006  0.8781716E+02  0.7818608E-02  0.1403648E+00
          2   -1    0    0  502    0  0.00000000000E+00  0.00000000000E+00  0.94577636275E+03  0.94577636275E+03  0.00000000000E+00 0. -1.
          1   -1    0    0  501    0 -0.00000000000E+00 -0.00000000000E+00 -0.12894931244E+04  0.12894931244E+04  0.00000000000E+00 0. -1.
         25    2    1    2    0    0  0.27983973139E+02 -0.91280002124E+02 -0.11281124692E+03  0.19356281197E+03  0.12500017283E+03 0.  0.
          2    1    1    2  501    0 -0.57911365686E+02  0.66037667956E+02 -0.11341841014E+04  0.11375800085E+04  0.00000000000E+00 0. -1.
          1    1    1    2  502    0  0.29927392548E+02  0.25242334167E+02  0.90327858667E+03  0.90412666668E+03  0.00000000000E+00 0. -1.
         22    1    3    3    0    0 -0.12378457328E+02 -0.11041119837E+02  0.24438338388E+02  0.29535824286E+02  0.00000000000E+00 0.  1.
         22    1    3    3    0    0  0.40362430467E+02 -0.80238882287E+02 -0.13724958530E+03  0.16402698769E+03  0.00000000000E+00 0.  1.
</event>
<event>
 7    1  0.6315518E-006  0.8591389E+02  0.7818608E-02  0.1346386E+00
          2   -1    0    0  502    0  0.00000000000E+00  0.00000000000E+00  0.32857391036E+03  0.32857391036E+03  0.00000000000E+00 0. -1.
          1   -1    0    0  501    0 -0.00000000000E+00 -0.00000000000E+00 -0.44802208552E+03  0.44802208552E+03  0.00000000000E+00 0. -1.
         25    2    1    2    0    0 -0.21592199629E+02  0.13857210687E+03 -0.29929579592E+03  0.35336850863E+03  0.12499150991E+03 0.  0.
          2    1    1    2  501    0 -0.15604484123E+02 -0.62142963686E+02 -0.10663350671E+03  0.12440238186E+03  0.00000000000E+00 0. -1.
          1    1    1    2  502    0  0.37196683752E+02 -0.76429143184E+02  0.28648112748E+03  0.29882510539E+03  0.00000000000E+00 0. -1.
         22    1    3    3    0    0 -0.40391675112E+01  0.10234512820E+03 -0.78803771861E+02  0.12923186372E+03  0.00000000000E+00 0.  1.
         22    1    3    3    0    0 -0.17553032118E+02  0.36226978673E+02 -0.22049202406E+03  0.22413664492E+03  0.00000000000E+00 0.  1.
</event>
<event>
 7    1  0.6344430E-006  0.5495746E+02  0.7818608E-02  0.1518066E+00
          2   -1    0    0  502    0  0.00000000000E+00  0.00000000000E+00  0.16992383714E+04  0.16992383714E+04  0.00000000000E+00 0. -1.
          1   -1    0    0  501    0 -0.00000000000E+00 -0.00000000000E+00 -0.72080212076E+03  0.72080212076E+03  0.00000000000E+00 0. -1.
         25    2    1    2    0    0 -0.39296371320E+02 -0.27727257024E+02 -0.44508785606E+03  0.46480351977E+03  0.12500442711E+03 0.  0.
          2    1    1    2  501    0  0.15986154060E+02 -0.22056075699E+02 -0.26471013287E+03  0.26610802701E+03  0.00000000000E+00 0. -1.
          1    1    1    2  502    0  0.23310217260E+02  0.49783332723E+02  0.16882342395E+04  0.16891289453E+04  0.00000000000E+00 0. -1.
         22    1    3    3    0    0 -0.75655902626E+02 -0.24686906621E+02 -0.17478956496E+03  0.19205377106E+03  0.00000000000E+00 0.  1.
         22    1    3    3    0    0  0.36359531306E+02 -0.30403504028E+01 -0.27029829110E+03  0.27274974871E+03  0.00000000000E+00 0.  1.
</event>
<event>
 7    1  0.6315518E-006  0.4072212E+02  0.7818608E-02  0.1504246E+00
          2   -1    0    0  502    0  0.00000000000E+00  0.00000000000E+00  0.59613863984E+03  0.59613863984E+03  0.00000000000E+00 0. -1.
          1   -1    0    0  501    0 -0.00000000000E+00 -0.00000000000E+00 -0.93236508426E+03  0.93236508426E+03  0.00000000000E+00 0. -1.
         25    2    1    2    0    0  0.17717594135E+02  0.29993004493E+02  0.11836666360E+03  0.17563890881E+03  0.12499946310E+03 0.  0.
          2    1    1    2  501    0 -0.40050577565E+02  0.50415358617E+01 -0.90231591868E+03  0.90321840269E+03  0.00000000000E+00 0. -1.
          1    1    1    2  502    0  0.22332983430E+02 -0.35034540354E+02  0.44772281066E+03  0.44964641259E+03  0.00000000000E+00 0. -1.
         22    1    3    3    0    0  0.77222288442E+01 -0.13285690054E+02 -0.22886328351E+02  0.27566762666E+02  0.00000000000E+00 0. -1.
         22    1    3    3    0    0  0.99953652905E+01  0.43278694546E+02  0.14125299195E+03  0.14807214615E+03  0.00000000000E+00 0. -1.
</event>
<event>
 7    1  0.6315518E-006  0.9383818E+02  0.7818608E-02  0.1386108E+00
          2   -1    0    0  502    0  0.00000000000E+00  0.00000000000E+00  0.26260326961E+04  0.26260326961E+04  0.00000000000E+00 0. -1.
          1   -1    0    0  501    0 -0.00000000000E+00 -0.00000000000E+00 -0.81167153782E+03  0.81167153782E+03  0.00000000000E+00 0. -1.
         25    2    1    2    0    0 -0.84499475989E+02  0.10234372579E+03  0.43611840493E+03  0.47269598329E+03  0.12501131887E+03 0.  0.
          2    1    1    2  501    0  0.19831778004E+02 -0.37184202789E+02 -0.79185199163E+03  0.79297259789E+03  0.00000000000E+00 0. -1.
          1    1    1    2  502    0  0.64667697985E+02 -0.65159523006E+02  0.21700947450E+04  0.21720356528E+04  0.00000000000E+00 0. -1.
         22    1    3    3    0    0  0.28887808431E+02  0.34775105407E+02  0.68255824567E+02  0.81869841940E+02  0.00000000000E+00 0.  1.
         22    1    3    3    0    0 -0.11338728442E+03  0.67568620388E+02  0.36786258036E+03  0.39082614135E+03  0.00000000000E+00 0.  1.
</event>
<event>
 7    1  0.6315518E-006  0.4352896E+02  0.7818608E-02  0.1493528E+00
          2   -1    0    0  502    0  0.00000000000E+00  0.00000000000E+00  0.16437473817E+03  0.16437473817E+03  0.00000000000E+00 0. -1.
          1   -1    0    0  501    0 -0.00000000000E+00 -0.00000000000E+00 -0.72391882868E+03  0.72391882868E+03  0.00000000000E+00 0. -1.
         25    2    1    2    0    0 -0.25940691450E+02 -0.10351492324E+02 -0.54031922400E+03  0.55529245352E+03  0.12499908899E+03 0.  0.
          2    1    1    2  501    0  0.23351075173E+02 -0.33279096040E+02 -0.17063373864E+03  0.17540993047E+03  0.00000000000E+00 0. -1.
          1    1    1    2  502    0  0.25896162772E+01  0.43630588364E+02  0.15140887213E+03  0.15759118285E+03  0.00000000000E+00 0. -1.
         22    1    3    3    0    0  0.38315841272E+02 -0.20549188914E+02 -0.86282611877E+02  0.96618124437E+02  0.00000000000E+00 0. -1.
         22    1    3    3    0    0 -0.64256532722E+02  0.10197696590E+02 -0.45403661212E+03  0.45867432908E+03  0.00000000000E+00 0. -1.
</event>
<event>
 7    1  0.6315518E-006  0.1314306E+03  0.7818608E-02  0.1302807E+00
          2   -1    0    0  502    0  0.00000000000E+00  0.00000000000E+00  0.21992589135E+04  0.21992589135E+04  0.00000000000E+00 0. -1.
          1   -1    0    0  501    0 -0.00000000000E+00 -0.00000000000E+00 -0.85516411820E+03  0.85516411820E+03  0.00000000000E+00 0. -1.
         25    2    1    2    0    0  0.15236989150E+03  0.24342246544E+02  0.66672410152E+03  0.69566899918E+03  0.12500080024E+03 0.  0.
          2    1    1    2  501    0 -0.11106930288E+03 -0.70119907963E+02 -0.83492903746E+03  0.84519801771E+03  0.00000000000E+00 0. -1.
          1    1    1    2  502    0 -0.41300588619E+02  0.45777661419E+02  0.15122997312E+04  0.15135560148E+04  0.00000000000E+00 0. -1.
         22    1    3    3    0    0  0.23199574615E+02  0.60066920652E+02  0.20310458063E+03  0.21306742100E+03  0.00000000000E+00 0.  1.
         22    1    3    3    0    0  0.12917031689E+03 -0.35724674109E+02  0.46361952090E+03  0.48260157818E+03  0.00000000000E+00 0.  1.
</event>
<event>
 7    1  0.6315518E-006  0.5464736E+02  0.7818608E-02  0.1556502E+00
          2   -1    0    0  502    0  0.00000000000E+00  0.00000000000E+00  0.13512652503E+04  0.13512652503E+04  0.00000000000E+00 0. -1.
          1   -1    0    0  501    0 -0.00000000000E+00 -0.00000000000E+00 -0.10533882884E+03  0.10533882884E+03  0.00000000000E+00 0. -1.
         25    2    1    2    0    0  0.21231295407E+02  0.64777915574E+02  0.28856859896E+01  0.14241055649E+03  0.12500197265E+03 0.  0.
          2    1    1    2  501    0  0.89571263136E+01 -0.19337048190E+02 -0.31748403644E+02  0.38237582016E+02  0.00000000000E+00 0. -1.
          1    1    1    2  502    0 -0.30188421720E+02 -0.45440867384E+02  0.12747891391E+04  0.12759559406E+04  0.00000000000E+00 0. -1.
         22    1    3    3    0    0 -0.50179469623E+02  0.10504530755E+02 -0.86006387816E+01  0.51983606314E+02  0.00000000000E+00 0.  1.
         22    1    3    3    0    0  0.71410765029E+02  0.54273384819E+02  0.11486324771E+02  0.90426950178E+02  0.00000000000E+00 0.  1.
</event>
<event>
 7    1  0.6315518E-006  0.6704961E+02  0.7818608E-02  0.1422324E+00
          2   -1    0    0  502    0  0.00000000000E+00  0.00000000000E+00  0.12235696607E+04  0.12235696607E+04  0.00000000000E+00 0. -1.
          1   -1    0    0  501    0 -0.00000000000E+00 -0.00000000000E+00 -0.14021971196E+03  0.14021971196E+03  0.00000000000E+00 0. -1.
         25    2    1    2    0    0  0.37751454593E+02  0.47118501921E+02 -0.34386855286E+02  0.14301575576E+03  0.12500290009E+03 0.  0.
          2    1    1    2  501    0 -0.39516619020E+02  0.20136959123E+02 -0.40812750851E+02  0.60272223565E+02  0.00000000000E+00 0. -1.
          1    1    1    2  502    0  0.17651644265E+01 -0.67255461044E+02  0.11585495549E+04  0.11605013933E+04  0.00000000000E+00 0. -1.
         22    1    3    3    0    0 -0.29664315559E+01  0.51503004942E+02 -0.71216073063E+02  0.87937979831E+02  0.00000000000E+00 0.  1.
         22    1    3    3    0    0  0.40717886149E+02 -0.43845030212E+01  0.36829217777E+02  0.55077775929E+02  0.00000000000E+00 0.  1.
</event>
<event>
 7    1  0.6315518E-006  0.1250309E+03  0.7818608E-02  0.1388742E+00
          2   -1    0    0  502    0  0.00000000000E+00  0.00000000000E+00  0.79113340601E+03  0.79113340601E+03  0.00000000000E+00 0. -1.
          1   -1    0    0  501    0 -0.00000000000E+00 -0.00000000000E+00 -0.13146180555E+04  0.13146180555E+04  0.00000000000E+00 0. -1.
         25    2    1    2    0    0 -0.90526610583E+02 -0.82537878536E+02 -0.61446342923E+03  0.63890332816E+03  0.12499835301E+03 0.  0.
          2    1    1    2  501    0 -0.19875028960E+02  0.23742987041E+02 -0.68255990137E+03  0.68326185695E+03  0.00000000000E+00 0. -1.
          1    1    1    2  502    0  0.11040163954E+03  0.58794891495E+02  0.77353868114E+03  0.78358627636E+03  0.00000000000E+00 0. -1.
         22    1    3    3    0    0  0.19895633979E+02 -0.37168775147E+02 -0.29245673026E+03  0.29547976778E+03  0.00000000000E+00 0.  1.
         22    1    3    3    0    0 -0.11042224456E+03 -0.45369103389E+02 -0.32200669897E+03  0.34342356037E+03  0.00000000000E+00 0.  1.
</event>
<event>
 7    1  0.6315518E-006  0.9987303E+02  0.7818608E-02  0.1353796E+00
          2   -1    0    0  502    0  0.00000000000E+00  0.00000000000E+00  0.15513310838E+04  0.15513310838E+04  0.00000000000E+00 0. -1.
          1   -1    0    0  501    0 -0.00000000000E+00 -0.00000000000E+00 -0.12267628095E+04  0.12267628095E+04  0.00000000000E+00 0. -1.
         25    2    1    2    0    0  0.72939571249E+02 -0.57246207990E+01  0.14183034064E+03  0.20271603906E+03  0.12499997851E+03 0.  0.
          2    1    1    2  501    0 -0.90692135614E+02 -0.42875388748E+02 -0.11937300651E+04  0.11979377408E+04  0.00000000000E+00 0. -1.
          1    1    1    2  502    0  0.17752564366E+02  0.48600009547E+02  0.13764679988E+04  0.13774401134E+04  0.00000000000E+00 0. -1.
         22    1    3    3    0    0  0.10158615126E+03  0.13280115954E+02  0.73062491009E+02  0.12583415752E+03  0.00000000000E+00 0. -1.
         22    1    3    3    0    0 -0.28646580011E+02 -0.19004736753E+02  0.68767849634E+02  0.76881881537E+02  0.00000000000E+00 0. -1.
</event>
<event>
 7    1  0.6315518E-006  0.3002133E+03  0.7818608E-02  0.1148694E+00
          2   -1    0    0  502    0  0.00000000000E+00  0.00000000000E+00  0.12867689254E+04  0.12867689254E+04  0.00000000000E+00 0. -1.
          1   -1    0    0  501    0 -0.00000000000E+00 -0.00000000000E+00 -0.71385897917E+03  0.71385897917E+03  0.00000000000E+00 0. -1.
         25    2    1    2    0    0 -0.20717917479E+03 -0.97424724557E+02 -0.12880119566E+03  0.29091175937E+03  0.12500046527E+03 0.  0.
          2    1    1    2  501    0  0.29897043092E+03  0.19628143510E+03 -0.43606522269E+03  0.56397038820E+03  0.00000000000E+00 0. -1.
          1    1    1    2  502    0 -0.91791256132E+02 -0.98856710546E+02  0.11377763646E+04  0.11457457571E+04  0.00000000000E+00 0. -1.
         22    1    3    3    0    0 -0.56570113248E+02 -0.88104787838E+02 -0.24661509978E+02  0.10756775273E+03  0.00000000000E+00 0.  1.
         22    1    3    3    0    0 -0.15060906154E+03 -0.93199367187E+01 -0.10413968568E+03  0.18334400664E+03  0.00000000000E+00 0.  1.
</event>
<event>
 7    1  0.6315518E-006  0.5826196E+02  0.7818608E-02  0.1421023E+00
          2   -1    0    0  502    0  0.00000000000E+00  0.00000000000E+00  0.10923278318E+04  0.10923278318E+04  0.00000000000E+00 0. -1.
          1   -1    0    0  501    0 -0.00000000000E+00 -0.00000000000E+00 -0.25752483309E+03  0.25752483309E+03  0.00000000000E+00 0. -1.
         25    2    1    2    0    0 -0.11657659619E+02 -0.48408588894E+01  0.97283121756E+02  0.15889669241E+03  0.12499927255E+03 0.  0.
          2    1    1    2  501    0  0.23258606497E+02  0.55071717205E+02 -0.22207321406E+03  0.22997906256E+03  0.00000000000E+00 0. -1.
          1    1    1    2  502    0 -0.11600946878E+02 -0.50230858315E+02  0.95959309105E+03  0.96097690996E+03  0.00000000000E+00 0. -1.
         22    1    3    3    0    0 -0.30524715396E+02 -0.60005056292E+02  0.53170523760E+02  0.85787351209E+02  0.00000000000E+00 0.  1.
         22    1    3    3    0    0  0.18867055778E+02  0.55164197403E+02  0.44112597996E+02  0.73109341200E+02  0.00000000000E+00 0.  1.
</event>
<event>
 7    1  0.6315518E-006  0.1796353E+03  0.7818608E-02  0.1211673E+00
          2   -1    0    0  502    0  0.00000000000E+00  0.00000000000E+00  0.27644894267E+04  0.27644894267E+04  0.00000000000E+00 0. -1.
          1   -1    0    0  501    0 -0.00000000000E+00 -0.00000000000E+00 -0.13217630376E+04  0.13217630376E+04  0.00000000000E+00 0. -1.
         25    2    1    2    0    0  0.22541631097E+03  0.40521002069E+02  0.18354734899E+04  0.18539260938E+04  0.12499825752E+03 0.  0.
          2    1    1    2  501    0 -0.10039478737E+03  0.47461027411E+02 -0.13038077910E+04  0.13085283406E+04  0.00000000000E+00 0. -1.
          1    1    1    2  502    0 -0.12502152360E+03 -0.87982029480E+02  0.91106069007E+03  0.92379802980E+03  0.00000000000E+00 0. -1.
         22    1    3    3    0    0  0.21277061589E+03  0.54989148935E+01  0.13141456681E+04  0.13312702243E+04  0.00000000000E+00 0. -1.
         22    1    3    3    0    0  0.12645695071E+02  0.35022087175E+02  0.52132782180E+03  0.52265586956E+03  0.00000000000E+00 0. -1.
</event>
<event>
 7    1  0.6315518E-006  0.1170372E+03  0.7818608E-02  0.1367565E+00
          2   -1    0    0  502    0  0.00000000000E+00  0.00000000000E+00  0.22203344704E+04  0.22203344704E+04  0.00000000000E+00 0. -1.
          1   -1    0    0  501    0 -0.00000000000E+00 -0.00000000000E+00 -0.68824535966E+03  0.68824535966E+03  0.00000000000E+00 0. -1.
         25    2    1    2    0    0 -0.46273354854E+01  0.15082633317E+03  0.72118498528E+03  0.74733106249E+03  0.12500375581E+03 0.  0.
          2    1    1    2  501    0  0.28340906499E+01 -0.39231210403E+02 -0.67250129868E+03  0.67365058945E+03  0.00000000000E+00 0. -1.
          1    1    1    2  502    0  0.17932448356E+01 -0.11159512277E+03  0.14834054242E+04  0.14875981782E+04  0.00000000000E+00 0. -1.
         22    1    3    3    0    0  0.54004427075E+01 -0.18679450203E+02  0.15549489548E+03  0.15670593212E+03  0.00000000000E+00 0.  1.
         22    1    3    3    0    0 -0.10027778193E+02  0.16950578338E+03  0.56569008980E+03  0.59062513038E+03  0.00000000000E+00 0.  1.
</event>
<event>
 7    1  0.6315518E-006  0.6288274E+02  0.7818608E-02  0.1389776E+00
          2   -1    0    0  502    0  0.00000000000E+00  0.00000000000E+00  0.11387538722E+04  0.11387538722E+04  0.00000000000E+00 0. -1.
          1   -1    0    0  501    0 -0.00000000000E+00 -0.00000000000E+00 -0.21156214060E+03  0.21156214060E+03  0.00000000000E+00 0. -1.
         25    2    1    2    0    0 -0.55457626900E+02  0.72989483254E+02  0.17459474271E+03  0.23347630320E+03  0.12499938771E+03 0.  0.
          2    1    1    2  501    0  0.60141784870E+02 -0.10524837309E+02 -0.17591907173E+03  0.18621312060E+03  0.00000000000E+00 0. -1.
          1    1    1    2  502    0 -0.46841579701E+01 -0.62464645945E+02  0.92851606064E+03  0.93062658902E+03  0.00000000000E+00 0. -1.
         22    1    3    3    0    0 -0.20899445929E+01  0.56281365318E+02  0.16797320343E+03  0.17716364475E+03  0.00000000000E+00 0.  1.
         22    1    3    3    0    0 -0.53367682307E+02  0.16708117936E+02  0.66215392823E+01  0.56312658455E+02  0.00000000000E+00 0.  1.
</event>
<event>
 7    1  0.6315518E-006  0.6591573E+02  0.7818608E-02  0.1462988E+00
          2   -1    0    0  502    0  0.00000000000E+00  0.00000000000E+00  0.49460695514E+02  0.49460695514E+02  0.00000000000E+00 0. -1.
          1   -1    0    0  501    0 -0.00000000000E+00 -0.00000000000E+00 -0.31445249265E+04  0.31445249265E+04  0.00000000000E+00 0. -1.
         25    2    1    2    0    0  0.30664674529E+02 -0.88097576556E+02 -0.15070885235E+04  0.15151376568E+04  0.12499918452E+03 0.  0.
          2    1    1    2  501    0 -0.11268076874E+02  0.60994375915E+02 -0.16266282556E+04  0.16278104206E+04  0.00000000000E+00 0. -1.
          1    1    1    2  502    0 -0.19396597655E+02  0.27103200641E+02  0.38652548116E+02  0.51037544626E+02  0.00000000000E+00 0. -1.
         22    1    3    3    0    0 -0.31599408617E+02 -0.79935386674E+02 -0.63498823431E+03  0.64077940540E+03  0.00000000000E+00 0. -1.
         22    1    3    3    0    0  0.62264083146E+02 -0.81621898815E+01 -0.87210028916E+03  0.87435825138E+03  0.00000000000E+00 0. -1.
</event>
<event>
 7    1  0.6315518E-006  0.6584724E+02  0.7818608E-02  0.1381358E+00
          2   -1    0    0  502    0  0.00000000000E+00  0.00000000000E+00  0.37524389459E+03  0.37524389459E+03  0.00000000000E+00 0. -1.
          1   -1    0    0  501    0 -0.00000000000E+00 -0.00000000000E+00 -0.11972249466E+03  0.11972249466E+03  0.00000000000E+00 0. -1.
         25    2    1    2    0    0 -0.14219850278E+02  0.56148320231E+01  0.10476229312E+03  0.16380750757E+03  0.12499612392E+03 0.  0.
          2    1    1    2  501    0  0.27484532312E+02 -0.66604259243E+02 -0.70776224069E+02  0.10099901365E+03  0.00000000000E+00 0. -1.
          1    1    1    2  502    0 -0.13264682035E+02  0.60989427220E+02  0.22153533088E+03  0.23015986803E+03  0.00000000000E+00 0. -1.
         22    1    3    3    0    0 -0.27973836941E+02 -0.46789628145E+02  0.11143530189E+02  0.55641559290E+02  0.00000000000E+00 0.  1.
         22    1    3    3    0    0  0.13753986663E+02  0.52404460168E+02  0.93618762930E+02  0.10816594828E+03  0.00000000000E+00 0.  1.
</event>
<event>
 7    1  0.6315518E-006  0.5271718E+02  0.7818608E-02  0.1528666E+00
          2   -1    0    0  502    0  0.00000000000E+00  0.00000000000E+00  0.23816000157E+02  0.23816000157E+02  0.00000000000E+00 0. -1.
          1   -1    0    0  501    0 -0.00000000000E+00 -0.00000000000E+00 -0.94909904483E+03  0.94909904483E+03  0.00000000000E+00 0. -1.
         25    2    1    2    0    0  0.17885164587E+02 -0.69744625038E+02 -0.72563700084E+03  0.73983846052E+03  0.12501079492E+03 0.  0.
          2    1    1    2  501    0 -0.14072841926E+02  0.43557553653E+02 -0.20141829188E+03  0.20655419063E+03  0.00000000000E+00 0. -1.
          1    1    1    2  502    0 -0.38123226610E+01  0.26187071384E+02  0.17722480509E+01  0.26522393838E+02  0.00000000000E+00 0. -1.
         22    1    3    3    0    0  0.32641562538E+02 -0.10280226043E+03 -0.52581628575E+03  0.53676488589E+03  0.00000000000E+00 0.  1.
         22    1    3    3    0    0 -0.14756397951E+02  0.33057635396E+02 -0.19982071508E+03  0.20307357463E+03  0.00000000000E+00 0.  1.
</event>
<event>
 7    1  0.6315518E-006  0.4473580E+02  0.7818608E-02  0.1581709E+00
          2   -1    0    0  502    0  0.00000000000E+00  0.00000000000E+00  0.10707810657E+04  0.10707810657E+04  0.00000000000E+00 0. -1.
          1   -1    0    0  501    0 -0.00000000000E+00 -0.00000000000E+00 -0.29710813973E+02  0.29710813973E+02  0.00000000000E+00 0. -1.
         25    2    1    2    0    0 -0.37009766049E+02  0.54804565601E+02  0.28234546701E+03  0.31577991512E+03  0.12499891543E+03 0.  0.
          2    1    1    2  501    0  0.13151894410E+02 -0.17922605533E+02 -0.23647999709E+01  0.22355858171E+02  0.00000000000E+00 0. -1.
          1    1    1    2  502    0  0.23857871639E+02 -0.36881960068E+02  0.76108958466E+03  0.76235610636E+03  0.00000000000E+00 0. -1.
         22    1    3    3    0    0 -0.44212718637E+02 -0.17054652103E+02  0.20313344856E+03  0.20858768796E+03  0.00000000000E+00 0.  1.
         22    1    3    3    0    0  0.72029525876E+01  0.71859217704E+02  0.79212018452E+02  0.10719222715E+03  0.00000000000E+00 0.  1.
</event>
<event>
 7    1  0.6315518E-006  0.1162317E+03  0.7818608E-02  0.1452880E+00
          2   -1    0    0  502    0  0.00000000000E+00  0.00000000000E+00  0.87245754107E+03  0.87245754107E+03  0.00000000000E+00 0. -1.
          1   -1    0    0  501    0 -0.00000000000E+00 -0.00000000000E+00 -0.14598235096E+04  0.14598235096E+04  0.00000000000E+00 0. -1.
         25    2    1    2    0    0  0.13035639988E+03 -0.38324075453E+02 -0.37859370718E+02  0.18846808505E+03  0.12500144552E+03 0.  0.
          2    1    1    2  501    0 -0.11128071903E+03  0.31249261807E+02 -0.13440491252E+04  0.13490099947E+04  0.00000000000E+00 0. -1.
          1    1    1    2  502    0 -0.19075680854E+02  0.70748136457E+01  0.79454252745E+03  0.79480297087E+03  0.00000000000E+00 0. -1.
         22    1    3    3    0    0  0.19681554114E+02 -0.67115519939E+02 -0.19817003226E+02  0.72695049391E+02  0.00000000000E+00 0.  1.
         22    1    3    3    0    0  0.11067484577E+03  0.28791444487E+02 -0.18042367492E+02  0.11577303566E+03  0.00000000000E+00 0.  1.
</event>
<event>
 7    1  0.6315518E-006  0.3536881E+02  0.7818608E-02  0.1623926E+00
          2   -1    0    0  502    0  0.00000000000E+00  0.00000000000E+00  0.62600803372E+03  0.62600803372E+03  0.00000000000E+00 0. -1.
          1   -1    0    0  501    0 -0.00000000000E+00 -0.00000000000E+00 -0.11978616298E+03  0.11978616298E+03  0.00000000000E+00 0. -1.
         25    2    1    2    0    0 -0.41345838411E+02  0.27060289961E+02 -0.20240690833E+02  0.13592968648E+03  0.12500182581E+03 0.  0.
          2    1    1    2  501    0  0.21711537160E+02  0.22720070189E+01 -0.38254736625E+02  0.44045178351E+02  0.00000000000E+00 0. -1.
          1    1    1    2  502    0  0.19634301251E+02 -0.29332296980E+02  0.56471729820E+03  0.56581933187E+03  0.00000000000E+00 0. -1.
         22    1    3    3    0    0 -0.68167174556E+02  0.39460678193E+02  0.24344644390E+02  0.82441315619E+02  0.00000000000E+00 0.  1.
         22    1    3    3    0    0  0.26821336145E+02 -0.12400388232E+02 -0.44585335223E+02  0.53488370866E+02  0.00000000000E+00 0.  1.
</event>
<event>
 7    1  0.6315518E-006  0.1413087E+03  0.7818608E-02  0.1216856E+00
          2   -1    0    0  502    0  0.00000000000E+00  0.00000000000E+00  0.21964690664E+04  0.21964690664E+04  0.00000000000E+00 0. -1.
          1   -1    0    0  501    0 -0.00000000000E+00 -0.00000000000E+00 -0.44680440402E+03  0.44680440402E+03  0.00000000000E+00 0. -1.
         25    2    1    2    0    0  0.47322598432E+02 -0.55855898785E+02  0.19896921263E+03  0.24611642975E+03  0.12500095866E+03 0.  0.
          2    1    1    2  501    0  0.60605199303E+02  0.13463514574E+03 -0.40800802802E+03  0.43390109885E+03  0.00000000000E+00 0. -1.
          1    1    1    2  502    0 -0.10792779774E+03 -0.78779246957E+02  0.19587034778E+04  0.19632559418E+04  0.00000000000E+00 0. -1.
         22    1    3    3    0    0  0.76916362087E+02 -0.70030614140E-01  0.13988225109E+03  0.15963450702E+03  0.00000000000E+00 0. -1.
         22    1    3    3    0    0 -0.29593763654E+02 -0.55785868171E+02  0.59086961545E+02  0.86481922732E+02  0.00000000000E+00 0. -1.
</event>
<event>
 7    1  0.6315518E-006  0.1939711E+03  0.7818608E-02  0.1193569E+00
          2   -1    0    0  502    0  0.00000000000E+00  0.00000000000E+00  0.40781413370E+03  0.40781413370E+03  0.00000000000E+00 0. -1.
          1   -1    0    0  501    0 -0.00000000000E+00 -0.00000000000E+00 -0.53729189881E+03  0.53729189881E+03  0.00000000000E+00 0. -1.
         25    2    1    2    0    0  0.15211401037E+03 -0.16048945086E+03 -0.14908678486E+03  0.29452944253E+03  0.12500074843E+03 0.  0.
          2    1    1    2  501    0  0.38272985673E+02  0.11907581399E+03 -0.27227960215E+03  0.29963319686E+03  0.00000000000E+00 0. -1.
          1    1    1    2  502    0 -0.19038699604E+03  0.41413636870E+02  0.29188862191E+03  0.35094339313E+03  0.00000000000E+00 0. -1.
         22    1    3    3    0    0  0.11430333329E+03 -0.15593284039E+03 -0.68008886714E+02  0.20495246129E+03  0.00000000000E+00 0. -1.
         22    1    3    3    0    0  0.37810677075E+02 -0.45566104615E+01 -0.81077898148E+02  0.89576981239E+02  0.00000000000E+00 0. -1.
</event>
<event>
 7    1  0.6315518E-006  0.1549188E+03  0.7818608E-02  0.1368771E+00
          2   -1    0    0  502    0  0.00000000000E+00  0.00000000000E+00  0.77984681544E+03  0.77984681544E+03  0.00000000000E+00 0. -1.
          1   -1    0    0  501    0 -0.00000000000E+00 -0.00000000000E+00 -0.13368486738E+04  0.13368486738E+04  0.00000000000E+00 0. -1.
         25    2    1    2    0    0 -0.15898336134E+03  0.88213782514E+02 -0.64676956776E+00  0.22064507988E+03  0.12500580930E+03 0.  0.
          2    1    1    2  501    0  0.13032142069E+03 -0.81581507839E+02 -0.12210565118E+04  0.12306982653E+04  0.00000000000E+00 0. -1.
          1    1    1    2  502    0  0.28661940649E+02 -0.66322746750E+01  0.66470142301E+03  0.66535214410E+03  0.00000000000E+00 0. -1.
         22    1    3    3    0    0 -0.10486813797E+03  0.30893934004E+02  0.56709971960E+02  0.12315755129E+03  0.00000000000E+00 0.  1.
         22    1    3    3    0    0 -0.54115223372E+02  0.57319848510E+02 -0.57356741527E+02  0.97487528599E+02  0.00000000000E+00 0.  1.
</event>
<event>
 7    1  0.6315518E-006  0.8136909E+02  0.7818608E-02  0.1333499E+00
          2   -1    0    0  502    0  0.00000000000E+00  0.00000000000E+00  0.57487981664E+03  0.57487981664E+03  0.00000000000E+00 0. -1.
          1   -1    0    0  501    0 -0.00000000000E+00 -0.00000000000E+00 -0.10038696368E+04  0.10038696368E+04  0.00000000000E+00 0. -1.
         25    2    1    2    0    0  0.63943469452E+02 -0.86387168954E+02  0.65180660910E+02  0.17727294551E+03  0.12500267360E+03 0.  0.
          2    1    1    2  501    0  0.11478149173E+02  0.80619176203E+02 -0.94290320868E+03  0.94641304959E+03  0.00000000000E+00 0. -1.
          1    1    1    2  502    0 -0.75421618624E+02  0.57679927514E+01  0.44873272761E+03  0.45506345835E+03  0.00000000000E+00 0. -1.
         22    1    3    3    0    0  0.83919605338E+02 -0.57944447219E+02  0.88821622241E+02  0.13523808525E+03  0.00000000000E+00 0.  1.
         22    1    3    3    0    0 -0.19976135886E+02 -0.28442721735E+02 -0.23640961330E+02  0.42034860262E+02  0.00000000000E+00 0.  1.
</event>
<event>
 7    1  0.7591167E-006  0.6393867E+02  0.7818608E-02  0.1422422E+00
          2   -1    0    0  502    0  0.00000000000E+00  0.00000000000E+00  0.64024396041E+03  0.64024396041E+03  0.00000000000E+00 0. -1.
          1   -1    0    0  501    0 -0.00000000000E+00 -0.00000000000E+00 -0.10305252553E+04  0.10305252553E+04  0.00000000000E+00 0. -1.
         25    2    1    2    0    0 -0.10045688500E+02  0.18831364032E+02 -0.32422837802E+03  0.34814402041E+03  0.12499872682E+03 0.  0.
          2    1    1    2  501    0 -0.43362864942E+02  0.16719810356E+02 -0.69191956985E+03  0.69347860909E+03  0.00000000000E+00 0. -1.
          1    1    1    2  502    0  0.53408553442E+02 -0.35551174388E+02  0.62586665300E+03  0.62914658619E+03  0.00000000000E+00 0. -1.
         22    1    3    3    0    0  0.24394306569E+02 -0.13878892534E+02 -0.28545019249E+03  0.28682663448E+03  0.00000000000E+00 0. -1.
         22    1    3    3    0    0 -0.34439995069E+02  0.32710256566E+02 -0.38778185526E+02  0.61317385933E+02  0.00000000000E+00 0. -1.
</event>
<event>
 7    1  0.6315518E-006  0.9038055E+02  0.7818608E-02  0.1452524E+00
          2   -1    0    0  502    0  0.00000000000E+00  0.00000000000E+00  0.96118473878E+03  0.96118473878E+03  0.00000000000E+00 0. -1.
          1   -1    0    0  501    0 -0.00000000000E+00 -0.00000000000E+00 -0.10459236097E+04  0.10459236097E+04  0.00000000000E+00 0. -1.
         25    2    1    2    0    0  0.80990619562E+02 -0.13051514638E+02  0.18023028646E+02  0.15059246387E+03  0.12499375233E+03 0.  0.
          2    1    1    2  501    0 -0.89923790436E+02 -0.11613804937E+02 -0.97734378837E+03  0.98154065083E+03  0.00000000000E+00 0. -1.
          1    1    1    2  502    0  0.89331708738E+01  0.24665319575E+02  0.87458188880E+03  0.87497523379E+03  0.00000000000E+00 0. -1.
         22    1    3    3    0    0  0.65760448178E+01 -0.44964261467E+02  0.46255301690E+02  0.64842749087E+02  0.00000000000E+00 0.  1.
         22    1    3    3    0    0  0.74414574744E+02  0.31912746829E+02 -0.28232273043E+02  0.85749714785E+02  0.00000000000E+00 0.  1.
</event>
<event>
 7    1  0.6315518E-006  0.1802052E+03  0.7818608E-02  0.1210029E+00
          2   -1    0    0  502    0  0.00000000000E+00  0.00000000000E+00  0.69226408611E+03  0.69226408611E+03  0.00000000000E+00 0. -1.
          1   -1    0    0  501    0 -0.00000000000E+00 -0.00000000000E+00 -0.77773289698E+03  0.77773289698E+03  0.00000000000E+00 0. -1.
         25    2    1    2    0    0 -0.15527464949E+03 -0.45971315200E+02  0.10429367766E+03  0.22962084597E+03  0.12499993243E+03 0.  0.
          2    1    1    2  501    0 -0.26431837830E+02  0.10950920513E+03 -0.69273048188E+03  0.70183076919E+03  0.00000000000E+00 0. -1.
          1    1    1    2  502    0  0.18170648732E+03 -0.63537889932E+02  0.50296799335E+03  0.53854536793E+03  0.00000000000E+00 0. -1.
         22    1    3    3    0    0 -0.44033968332E+02  0.40428713494E+02  0.11294719506E+02  0.60836189316E+02  0.00000000000E+00 0. -1.
         22    1    3    3    0    0 -0.11124068116E+03 -0.86400028694E+02  0.92998958157E+02  0.16878465665E+03  0.00000000000E+00 0. -1.
</event>
<event>
 7    1  0.6315518E-006  0.6418711E+02  0.7818608E-02  0.1408433E+00
          2   -1    0    0  502    0  0.00000000000E+00  0.00000000000E+00  0.21352660564E+04  0.21352660564E+04  0.00000000000E+00 0. -1.
          1   -1    0    0  501    0 -0.00000000000E+00 -0.00000000000E+00 -0.29670867089E+03  0.29670867089E+03  0.00000000000E+00 0. -1.
         25    2    1    2    0    0  0.60912358541E+02 -0.64349284561E+02  0.75348851787E+03  0.76891005590E+03  0.12500632647E+03 0.  0.
          2    1    1    2  501    0 -0.62858438403E+02  0.12795852620E+02 -0.28494676348E+03  0.29207802920E+03  0.00000000000E+00 0. -1.
          1    1    1    2  502    0  0.19460798613E+01  0.51553431942E+02  0.13700156311E+04  0.13709866422E+04  0.00000000000E+00 0. -1.
         22    1    3    3    0    0 -0.23538151379E+02  0.39212101236E+01  0.35620116063E+02  0.42874387780E+02  0.00000000000E+00 0. -1.
         22    1    3    3    0    0  0.84450509920E+02 -0.68270494685E+02  0.71786840181E+03  0.72603566812E+03  0.00000000000E+00 0. -1.
</event>
<event>
 7    1  0.6315518E-006  0.5303082E+02  0.7818608E-02  0.1476417E+00
          2   -1    0    0  502    0  0.00000000000E+00  0.00000000000E+00  0.52386790635E+03  0.52386790635E+03  0.00000000000E+00 0. -1.
          1   -1    0    0  501    0 -0.00000000000E+00 -0.00000000000E+00 -0.44263522051E+02  0.44263522051E+02  0.00000000000E+00 0. -1.
         25    2    1    2    0    0  0.14534074931E+02  0.14167075958E+02  0.86035320039E+02  0.15310028400E+03  0.12500270114E+03 0.  0.
          2    1    1    2  501    0  0.56349444731E+01  0.37201848509E+02  0.32351059858E+02  0.49621781564E+02  0.00000000000E+00 0. -1.
          1    1    1    2  502    0 -0.20169019404E+02 -0.51368924467E+02  0.36121800440E+03  0.36540936284E+03  0.00000000000E+00 0. -1.
         22    1    3    3    0    0 -0.51980841071E+02  0.27351412019E+02  0.37011151435E+02  0.69425736643E+02  0.00000000000E+00 0. -1.
         22    1    3    3    0    0  0.66514916002E+02 -0.13184336060E+02  0.49024168604E+02  0.83674547357E+02  0.00000000000E+00 0. -1.
</event>
<event>
 7    1  0.6315518E-006  0.1032868E+03  0.7818608E-02  0.1401438E+00
          2   -1    0    0  502    0  0.00000000000E+00  0.00000000000E+00  0.77447386262E+03  0.77447386262E+03  0.00000000000E+00 0. -1.
          1   -1    0    0  501    0 -0.00000000000E+00 -0.00000000000E+00 -0.41105835478E+03  0.41105835478E+03  0.00000000000E+00 0. -1.
         25    2    1    2    0    0 -0.12341002590E+03 -0.15212854857E+02  0.22137408986E+03  0.28300678833E+03  0.12499955654E+03 0.  0.
          2    1    1    2  501    0  0.28699722914E+02 -0.17991245696E+02 -0.37464947622E+03  0.37617760306E+03  0.00000000000E+00 0. -1.
          1    1    1    2  502    0  0.94710302988E+02  0.33204100554E+02  0.51669089420E+03  0.52634782600E+03  0.00000000000E+00 0. -1.
         22    1    3    3    0    0 -0.21356649318E+02 -0.41775783214E+02  0.14608548533E+03  0.15343497501E+03  0.00000000000E+00 0.  1.
         22    1    3    3    0    0 -0.10205337658E+03  0.26562928357E+02  0.75288604530E+02  0.12957181332E+03  0.00000000000E+00 0.  1.
</event>
<event>
 7    1  0.6315518E-006  0.1348895E+03  0.7818608E-02  0.1314315E+00
          2   -1    0    0  502    0  0.00000000000E+00  0.00000000000E+00  0.10361552107E+04  0.10361552107E+04  0.00000000000E+00 0. -1.
          1   -1    0    0  501    0 -0.00000000000E+00 -0.00000000000E+00 -0.51115676266E+03  0.51115676266E+03  0.00000000000E+00 0. -1.
         25    2    1    2    0    0 -0.95464337299E+02 -0.84639368982E+02 -0.29408288858E+03  0.34407387012E+03  0.12499928107E+03 0.  0.
          2    1    1    2  501    0 -0.33050018539E+02  0.42836364867E+02 -0.18364335908E+03  0.19144748944E+03  0.00000000000E+00 0. -1.
          1    1    1    2  502    0  0.12851435584E+03  0.41803004115E+02  0.10027246957E+04  0.10117906138E+04  0.00000000000E+00 0. -1.
         22    1    3    3    0    0 -0.34459174247E+01  0.49198345980E+01 -0.15371968132E+03  0.15383699017E+03  0.00000000000E+00 0. -1.
         22    1    3    3    0    0 -0.92018419874E+02 -0.89559203580E+02 -0.14036320726E+03  0.19023687995E+03  0.00000000000E+00 0. -1.
</event>
<event>
 7    1  0.6315518E-006  0.2564781E+03  0.7818608E-02  0.1182394E+00
          2   -1    0    0  502    0  0.00000000000E+00  0.00000000000E+00  0.38439742717E+04  0.38439742717E+04  0.00000000000E+00 0. -1.
          1   -1    0    0  501    0 -0.00000000000E+00 -0.00000000000E+00 -0.14346983050E+04  0.14346983050E+04  0.00000000000E+00 0. -1.
         25    2    1    2    0    0 -0.34633533635E+03  0.59412237350E+02  0.14975593693E+04  0.15433037978E+04  0.12499827396E+03 0.  0.
          2    1    1    2  501    0  0.25577824830E+03 -0.22887295152E+01 -0.13989906355E+04  0.14221823192E+04  0.00000000000E+00 0. -1.
          1    1    1    2  502    0  0.90557088049E+02 -0.57123507834E+02  0.23107072329E+04  0.23131864597E+04  0.00000000000E+00 0. -1.
         22    1    3    3    0    0 -0.32025496908E+03  0.81627809536E+02  0.12325863582E+04  0.12761251799E+04  0.00000000000E+00 0.  1.
         22    1    3    3    0    0 -0.26080367276E+02 -0.22215572187E+02  0.26497301117E+03  0.26717861788E+03  0.00000000000E+00 0.  1.
</event>
<event>
 7    1  0.1204347E-005  0.9705083E+02  0.7818608E-02  0.1351625E+00
          2   -1    0    0  502    0  0.00000000000E+00  0.00000000000E+00  0.19296601365E+04  0.19296601365E+04  0.00000000000E+00 0. -1.
          1   -1    0    0  501    0 -0.00000000000E+00 -0.00000000000E+00 -0.83621132095E+03  0.83621132095E+03  0.00000000000E+00 0. -1.
         25    2    1    2    0    0 -0.83064395883E+02 -0.65709555026E+02 -0.88575315986E+02  0.18624675410E+03  0.12499930929E+03 0.  0.
          2    1    1    2  501    0  0.96497628483E+02  0.13162358293E+02 -0.69501333888E+03  0.70180380535E+03  0.00000000000E+00 0. -1.
          1    1    1    2  502    0 -0.13433232600E+02  0.52547196732E+02  0.18770374704E+04  0.18778208980E+04  0.00000000000E+00 0. -1.
         22    1    3    3    0    0 -0.41218312590E+02 -0.17484686896E+02  0.28371193900E+02  0.53005548879E+02  0.00000000000E+00 0. -1.
         22    1    3    3    0    0 -0.41846083292E+02 -0.48224868129E+02 -0.11694650989E+03  0.13324120522E+03  0.00000000000E+00 0. -1.
</event>
<event>
 7    1  0.6315518E-006  0.1813475E+03  0.7818608E-02  0.1228416E+00
          2   -1    0    0  502    0  0.00000000000E+00  0.00000000000E+00  0.22520525793E+03  0.22520525793E+03  0.00000000000E+00 0. -1.
          1   -1    0    0  501    0 -0.00000000000E+00 -0.00000000000E+00 -0.15710646584E+04  0.15710646584E+04  0.00000000000E+00 0. -1.
         25    2    1    2    0    0 -0.17606468110E+03 -0.14689466418E+03  0.30183436731E+02  0.26289895871E+03  0.12501203279E+03 0.  0.
          2    1    1    2  501    0  0.17159514271E+03  0.54733807854E+02 -0.14198515032E+04  0.14312298815E+04  0.00000000000E+00 0. -1.
          1    1    1    2  502    0  0.44695383861E+01  0.92160856329E+02  0.43808665958E+02  0.10214107609E+03  0.00000000000E+00 0. -1.
         22    1    3    3    0    0 -0.14288588883E+03 -0.53713570330E+02  0.52640267055E+02  0.16146988134E+03  0.00000000000E+00 0.  1.
         22    1    3    3    0    0 -0.33178792266E+02 -0.93181093853E+02 -0.22456830324E+02  0.10142907737E+03  0.00000000000E+00 0.  1.
</event>
<event>
 7    1  0.6315518E-006  0.1041556E+03  0.7818608E-02  0.1307670E+00
          2   -1    0    0  502    0  0.00000000000E+00  0.00000000000E+00  0.14804019827E+04  0.14804019827E+04  0.00000000000E+00 0. -1.
          1   -1    0    0  501    0 -0.00000000000E+00 -0.00000000000E+00 -0.78497423506E+03  0.78497423506E+03  0.00000000000E+00 0. -1.
         25    2    1    2    0    0  0.31916476880E+02 -0.10518458111E+02  0.59549308205E+03  0.60939856508E+03  0.12500120355E+03 0.  0.
          2    1    1    2  501    0  0.16278568400E+02  0.10287562719E+03 -0.77141897413E+03  0.77841866634E+03  0.00000000000E+00 0. -1.
          1    1    1    2  502    0 -0.48195045280E+02 -0.92357169077E+02  0.87135363971E+03  0.87755898634E+03  0.00000000000E+00 0. -1.
         22    1    3    3    0    0  0.77910678986E+02 -0.25158539481E+01  0.28720051583E+03  0.29759122923E+03  0.00000000000E+00 0.  1.
         22    1    3    3    0    0 -0.45994202106E+02 -0.80026041627E+01  0.30829256622E+03  0.31180733585E+03  0.00000000000E+00 0.  1.
</event>
<event>
 7    1  0.6315518E-006  0.1069600E+03  0.7818608E-02  0.1321194E+00
          2   -1    0    0  502    0  0.00000000000E+00  0.00000000000E+00  0.50051979310E+02  0.50051979310E+02  0.00000000000E+00 0. -1.
          1   -1    0    0  501    0 -0.00000000000E+00 -0.00000000000E+00 -0.10634945424E+04  0.10634945424E+04  0.00000000000E+00 0. -1.
         25    2    1    2    0    0 -0.21041851576E+02  0.13548223333E+03 -0.39691745684E+03  0.43813963140E+03  0.12499869597E+03 0.  0.
          2    1    1    2  501    0  0.51935970434E+02 -0.37655998424E+02 -0.54867097936E+03  0.55240851082E+03  0.00000000000E+00 0. -1.
          1    1    1    2  502    0 -0.30894118858E+02 -0.97826234904E+02 -0.67854126854E+02  0.12299837945E+03  0.00000000000E+00 0. -1.
         22    1    3    3    0    0 -0.33692133629E+02  0.15635086003E+03 -0.35942804381E+03  0.39340725715E+03  0.00000000000E+00 0. -1.
         22    1    3    3    0    0  0.12650282053E+02 -0.20868626706E+02 -0.37489413029E+02  0.44732374248E+02  0.00000000000E+00 0. -1.
</event>
<event>
 7    1  0.6315518E-006  0.1049011E+03  0.7818608E-02  0.1284705E+00
          2   -1    0    0  502    0  0.00000000000E+00  0.00000000000E+00  0.35905385135E+03  0.35905385135E+03  0.00000000000E+00 0. -1.
          1   -1    0    0  501    0 -0.00000000000E+00 -0.00000000000E+00 -0.52487393121E+03  0.52487393121E+03  0.00000000000E+00 0. -1.
         25    2    1    2    0    0  0.67357106101E+02 -0.10888897656E+03 -0.25473657163E+03  0.31129994035E+03  0.12499257167E+03 0.  0.
          2    1    1    2  501    0  0.23888959732E+02  0.10315413484E+03 -0.22339030486E+03  0.24721384718E+03  0.00000000000E+00 0. -1.
          1    1    1    2  502    0 -0.91246065832E+02  0.57348417260E+01  0.31230679663E+03  0.32541399503E+03  0.00000000000E+00 0. -1.
         22    1    3    3    0    0  0.67736619434E+02  0.37696589196E+00 -0.75957479515E+02  0.10177391812E+03  0.00000000000E+00 0. -1.
         22    1    3    3    0    0 -0.37951333379E+00 -0.10926594245E+03 -0.17877909212E+03  0.20952602223E+03  0.00000000000E+00 0. -1.
</event>
<event>
 7    1  0.6315518E-006  0.4028911E+02  0.7818608E-02  0.1536725E+00
          2   -1    0    0  502    0  0.00000000000E+00  0.00000000000E+00  0.19175979513E+03  0.19175979513E+03  0.00000000000E+00 0. -1.
          1   -1    0    0  501    0 -0.00000000000E+00 -0.00000000000E+00 -0.17517776401E+03  0.17517776401E+03  0.00000000000E+00 0. -1.
         25    2    1    2    0    0 -0.32565832946E+02  0.35832404666E+02 -0.14909742525E+02  0.13488035376E+03  0.12500365879E+03 0.  0.
          2    1    1    2  501    0  0.32513097083E+02  0.46210103557E+01 -0.94334853290E+02  0.99887535578E+02  0.00000000000E+00 0. -1.
          1    1    1    2  502    0  0.52735862933E-01 -0.40453415021E+02  0.12582662694E+03  0.13216966980E+03  0.00000000000E+00 0. -1.
         22    1    3    3    0    0 -0.83200864841E+01  0.65088581892E+02 -0.50513492649E+02  0.82809179874E+02  0.00000000000E+00 0. -1.
         22    1    3    3    0    0 -0.24245746462E+02 -0.29256177227E+02  0.35603750124E+02  0.52071173890E+02  0.00000000000E+00 0. -1.
</event>
<event>
 7    1  0.6315518E-006  0.6259359E+02  0.7818608E-02  0.1415788E+00
          2   -1    0    0  502    0  0.00000000000E+00  0.00000000000E+00  0.10862214387E+04  0.10862214387E+04  0.00000000000E+00 0. -1.
          1   -1    0    0  501    0 -0.00000000000E+00 -0.00000000000E+00 -0.37912036075E+02  0.37912036075E+02  0.00000000000E+00 0. -1.
         25    2    1    2    0    0  0.10410396556E+02  0.70835693963E+01  0.16847443721E+03  0.21016239102E+03  0.12500416510E+03 0.  0.
          2    1    1    2  501    0  0.13402046889E+02 -0.64970742868E+02  0.53377712833E+02  0.85146887888E+02  0.00000000000E+00 0. -1.
          1    1    1    2  502    0 -0.23812443444E+02  0.57887173472E+02  0.82645725259E+03  0.82882419587E+03  0.00000000000E+00 0. -1.
         22    1    3    3    0    0  0.58128173579E+02  0.21478502404E+02  0.43775692580E+02  0.75871746322E+02  0.00000000000E+00 0. -1.
         22    1    3    3    0    0 -0.47717777023E+02 -0.14394933008E+02  0.12469874463E+03  0.13429064470E+03  0.00000000000E+00 0. -1.
</event>
<event>
 7    1  0.6315518E-006  0.1175837E+03  0.7818608E-02  0.1375666E+00
          2   -1    0    0  502    0  0.00000000000E+00  0.00000000000E+00  0.67599146227E+03  0.67599146227E+03  0.00000000000E+00 0. -1.
          1   -1    0    0  501    0 -0.00000000000E+00 -0.00000000000E+00 -0.79183370818E+02  0.79183370818E+02  0.00000000000E+00 0. -1.
         25    2    1    2    0    0  0.91614878525E+02 -0.11875233020E+03  0.13182444048E+03  0.23557765399E+03  0.12499498414E+03 0.  0.
          2    1    1    2  501    0 -0.22432120047E+02  0.28941706864E+02 -0.42498210570E+01  0.36863035483E+02  0.00000000000E+00 0. -1.
          1    1    1    2  502    0 -0.69182758478E+02  0.89810623333E+02  0.46923347203E+03  0.48273414361E+03  0.00000000000E+00 0. -1.
         22    1    3    3    0    0 -0.94948306130E+01  0.12090760138E+02 -0.94865640235E+01  0.18064694464E+02  0.00000000000E+00 0. -1.
         22    1    3    3    0    0  0.10110970914E+03 -0.13084309033E+03  0.14131100450E+03  0.21751295953E+03  0.00000000000E+00 0. -1.
</event>
<event>
 7    1  0.6315518E-006  0.4762205E+02  0.7818608E-02  0.1496547E+00
          2   -1    0    0  502    0  0.00000000000E+00  0.00000000000E+00  0.64946048069E+02  0.64946048069E+02  0.00000000000E+00 0. -1.
          1   -1    0    0  501    0 -0.00000000000E+00 -0.00000000000E+00 -0.10978433045E+04  0.10978433045E+04  0.00000000000E+00 0. -1.
         25    2    1    2    0    0  0.65369279339E+02 -0.11576346884E+01 -0.13599500030E+03  0.19594405906E+03  0.12499980551E+03 0.  0.
          2    1    1    2  501    0 -0.26501987666E+02 -0.24940497081E+02 -0.91568039135E+03  0.91640327523E+03  0.00000000000E+00 0. -1.
          1    1    1    2  502    0 -0.38867291673E+02  0.26098131769E+02  0.18778135229E+02  0.50442018264E+02  0.00000000000E+00 0. -1.
         22    1    3    3    0    0  0.93897470408E+02  0.22440018826E+02 -0.12373996929E+03  0.15694543445E+03  0.00000000000E+00 0. -1.
         22    1    3    3    0    0 -0.28528191069E+02 -0.23597653515E+02 -0.12255031008E+02  0.38998624617E+02  0.00000000000E+00 0. -1.
</event>
<event>
 7    1  0.6315518E-006  0.1258760E+03  0.7818608E-02  0.1334182E+00
          2   -1    0    0  502    0  0.00000000000E+00  0.00000000000E+00  0.29770242977E+04  0.29770242977E+04  0.00000000000E+00 0. -1.
          1   -1    0    0  501    0 -0.00000000000E+00 -0.00000000000E+00 -0.34445589918E+03  0.34445589918E+03  0.00000000000E+00 0. -1.
         25    2    1    2    0    0  0.26104808766E+02  0.84018825907E+02  0.50554921385E+03  0.52814842799E+03  0.12498051934E+03 0.  0.
          2    1    1    2  501    0 -0.30390970705E+01 -0.12680274582E+03 -0.32083374381E+03  0.34499632408E+03  0.00000000000E+00 0. -1.
          1    1    1    2  502    0 -0.23065711695E+02  0.42783919912E+02  0.24478529284E+04  0.24483354448E+04  0.00000000000E+00 0. -1.
         22    1    3    3    0    0  0.56324868334E+01 -0.33075170725E+02  0.95814429768E+02  0.10151894788E+03  0.00000000000E+00 0.  1.
         22    1    3    3    0    0  0.20472321932E+02  0.11709399663E+03  0.40973478409E+03  0.42662948011E+03  0.00000000000E+00 0.  1.
</event>
<event>
 7    1  0.6315518E-006  0.5193065E+02  0.7818608E-02  0.1469542E+00
          2   -1    0    0  502    0  0.00000000000E+00  0.00000000000E+00  0.10840132126E+04  0.10840132126E+04  0.00000000000E+00 0. -1.
          1   -1    0    0  501    0 -0.00000000000E+00 -0.00000000000E+00 -0.14037333157E+03  0.14037333157E+03  0.00000000000E+00 0. -1.
         25    2    1    2    0    0 -0.67450191755E+01  0.17197982363E+02  0.24489519021E+03  0.27557313536E+03  0.12500253142E+03 0.  0.
          2    1    1    2  501    0  0.19469348581E+02  0.35347334305E+02 -0.12086432495E+03  0.12742321069E+03  0.00000000000E+00 0. -1.
          1    1    1    2  502    0 -0.12724329406E+02 -0.52545316668E+02  0.81960901576E+03  0.82139019813E+03  0.00000000000E+00 0. -1.
         22    1    3    3    0    0  0.23832224102E+02  0.65174597056E+02  0.13920751046E+03  0.15554560095E+03  0.00000000000E+00 0.  1.
         22    1    3    3    0    0 -0.30577243277E+02 -0.47976614694E+02  0.10568767976E+03  0.12002753441E+03  0.00000000000E+00 0.  1.
</event>
<event>
 7    1  0.6315518E-006  0.7365969E+02  0.7818608E-02  0.1454845E+00
          2   -1    0    0  502    0  0.00000000000E+00  0.00000000000E+00  0.15979525946E+03  0.15979525946E+03  0.00000000000E+00 0. -1.
          1   -1    0    0  501    0 -0.00000000000E+00 -0.00000000000E+00 -0.13713484954E+04  0.13713484954E+04  0.00000000000E+00 0. -1.
         25    2    1    2    0    0 -0.41945457701E+02 -0.12519091524E+02 -0.49595426821E+03  0.51333422630E+03  0.12500097064E+03 0.  0.
          2    1    1    2  501    0 -0.31559906467E+02  0.23214098328E+01 -0.85728342990E+03  0.85786729499E+03  0.00000000000E+00 0. -1.
          1    1    1    2  502    0  0.73505364168E+02  0.10197681691E+02  0.14168446214E+03  0.15994223359E+03  0.00000000000E+00 0. -1.
         22    1    3    3    0    0 -0.37879092780E+02 -0.67127928998E+02 -0.26539538120E+03  0.27636152569E+03  0.00000000000E+00 0.  1.
         22    1    3    3    0    0 -0.40663649205E+01  0.54608837474E+02 -0.23055888701E+03  0.23697270061E+03  0.00000000000E+00 0.  1.
</event>
<event>
 7    1  0.6315518E-006  0.5733032E+02  0.7818608E-02  0.1508874E+00
          2   -1    0    0  502    0  0.00000000000E+00  0.00000000000E+00  0.52348715034E+03  0.52348715034E+03  0.00000000000E+00 0. -1.
          1   -1    0    0  501    0 -0.00000000000E+00 -0.00000000000E+00 -0.24999253782E+03  0.24999253782E+03  0.00000000000E+00 0. -1.
         25    2    1    2    0    0  0.20242974238E+02 -0.22506853947E+02  0.22862804542E+03  0.26231933004E+03  0.12499724509E+03 0.  0.
          2    1    1    2  501    0 -0.34049701775E+02  0.46616546004E+02 -0.22885952163E+03  0.23602789071E+03  0.00000000000E+00 0. -1.
          1    1    1    2  502    0  0.13806727537E+02 -0.24109692057E+02  0.27372608873E+03  0.27513246742E+03  0.00000000000E+00 0. -1.
         22    1    3    3    0    0 -0.14366413362E+02  0.12234757447E+01  0.21872941353E+03  0.21920412192E+03  0.00000000000E+00 0.  1.
         22    1    3    3    0    0  0.34609387600E+02 -0.23730329692E+02  0.98986318854E+01  0.43115208112E+02  0.00000000000E+00 0.  1.
</event>
<event>
 7    1  0.6315518E-006  0.7896770E+02  0.7818608E-02  0.1463338E+00
          2   -1    0    0  502    0  0.00000000000E+00  0.00000000000E+00  0.20302272211E+03  0.20302272211E+03  0.00000000000E+00 0. -1.
          1   -1    0    0  501    0 -0.00000000000E+00 -0.00000000000E+00 -0.25406716636E+03  0.25406716636E+03  0.00000000000E+00 0. -1.
         25    2    1    2    0    0 -0.58228313430E+02  0.72249005539E+02  0.64892871117E+02  0.16865938895E+03  0.12499779787E+03 0.  0.
          2    1    1    2  501    0  0.63978643225E+02 -0.45101395283E+02 -0.19206443991E+03  0.20740335514E+03  0.00000000000E+00 0. -1.
          1    1    1    2  502    0 -0.57503297956E+01 -0.27147610256E+02  0.76127124545E+02  0.81027144383E+02  0.00000000000E+00 0. -1.
         22    1    3    3    0    0  0.15337933323E+02  0.14791583427E+01  0.64771450721E+02  0.66579132891E+02  0.00000000000E+00 0. -1.
         22    1    3    3    0    0 -0.73566246752E+02  0.70769847196E+02  0.12142039566E+00  0.10208025606E+03  0.00000000000E+00 0. -1.
</event>
<event>
 7    1  0.6315518E-006  0.2633191E+03  0.7818608E-02  0.1265369E+00
          2   -1    0    0  502    0  0.00000000000E+00  0.00000000000E+00  0.31206695933E+04  0.31206695933E+04  0.00000000000E+00 0. -1.
          1   -1    0    0  501    0 -0.00000000000E+00 -0.00000000000E+00 -0.11096610417E+04  0.11096610417E+04  0.00000000000E+00 0. -1.
         25    2    1    2    0    0  0.14425047292E+03 -0.17269428521E+03 -0.14811485196E+03  0.29697744329E+03  0.12500430941E+03 0.  0.
          2    1    1    2  501    0  0.85224279640E+01 -0.43008490715E+02 -0.88083470167E+03  0.88192524270E+03  0.00000000000E+00 0. -1.
          1    1    1    2  502    0 -0.15277290088E+03  0.21570277593E+03  0.30399581052E+04  0.30514279490E+04  0.00000000000E+00 0. -1.
         22    1    3    3    0    0  0.73816934046E+02 -0.56389170238E+01 -0.60559021413E+02  0.95645868764E+02  0.00000000000E+00 0.  1.
         22    1    3    3    0    0  0.70433538871E+02 -0.16705536819E+03 -0.87555830543E+02  0.20133157452E+03  0.00000000000E+00 0.  1.
</event>
<event>
 7    1  0.6315518E-006  0.1791799E+03  0.7818608E-02  0.1295291E+00
          2   -1    0    0  502    0  0.00000000000E+00  0.00000000000E+00  0.10467402741E+04  0.10467402741E+04  0.00000000000E+00 0. -1.
          1   -1    0    0  501    0 -0.00000000000E+00 -0.00000000000E+00 -0.12151336864E+04  0.12151336864E+04  0.00000000000E+00 0. -1.
         25    2    1    2    0    0 -0.10184508916E+03  0.11582634726E+03 -0.81469437141E+02  0.21459272797E+03  0.12499841921E+03 0.  0.
          2    1    1    2  501    0  0.14915512409E+03 -0.10526741419E+03 -0.10586858825E+04  0.10743110710E+04  0.00000000000E+00 0. -1.
          1    1    1    2  502    0 -0.47310034929E+02 -0.10558933066E+02  0.97176190736E+03  0.97297016145E+03  0.00000000000E+00 0. -1.
         22    1    3    3    0    0 -0.70418122741E+01 -0.26021274299E+02 -0.41367953132E+01  0.27272823684E+02  0.00000000000E+00 0. -1.
         22    1    3    3    0    0 -0.94803276890E+02  0.14184762155E+03 -0.77332641828E+02  0.18731990429E+03  0.00000000000E+00 0. -1.
</event>
<event>
 7    1  0.6315518E-006  0.4503180E+02  0.7818608E-02  0.1525779E+00
          2   -1    0    0  502    0  0.00000000000E+00  0.00000000000E+00  0.70796481682E+03  0.70796481682E+03  0.00000000000E+00 0. -1.
          1   -1    0    0  501    0 -0.00000000000E+00 -0.00000000000E+00 -0.27552519401E+03  0.27552519401E+03  0.00000000000E+00 0. -1.
         25    2    1    2    0    0  0.36011227179E+02 -0.42109249670E+02  0.11340903729E+03  0.17763520286E+03  0.12499063231E+03 0.  0.
          2    1    1    2  501    0 -0.43543819218E+02  0.11443437248E+02 -0.24088155762E+03  0.24505293561E+03  0.00000000000E+00 0. -1.
          1    1    1    2  502    0  0.75325920397E+01  0.30665812421E+02  0.55991214315E+03  0.56080187235E+03  0.00000000000E+00 0. -1.
         22    1    3    3    0    0 -0.98152472894E+01  0.26907008523E+02 -0.88265492356E+01  0.29970554857E+02  0.00000000000E+00 0. -1.
         22    1    3    3    0    0  0.45826474468E+02 -0.69016258192E+02  0.12223558652E+03  0.14766464800E+03  0.00000000000E+00 0. -1.
</event>
<event>
 7    1  0.6315518E-006  0.5323435E+02  0.7818608E-02  0.1471334E+00
          2   -1    0    0  502    0  0.00000000000E+00  0.00000000000E+00  0.28614641569E+03  0.28614641569E+03  0.00000000000E+00 0. -1.
          1   -1    0    0  501    0 -0.00000000000E+00 -0.00000000000E+00 -0.14529272063E+04  0.14529272063E+04  0.00000000000E+00 0. -1.
         25    2    1    2    0    0 -0.44702494867E+01  0.14098448650E+02 -0.22958743062E+03  0.26182803579E+03  0.12499913057E+03 0.  0.
          2    1    1    2  501    0 -0.12589872488E+02  0.36768750637E+02 -0.12042378499E+04  0.12048648244E+04  0.00000000000E+00 0. -1.
          1    1    1    2  502    0  0.17060121974E+02 -0.50867199287E+02  0.26704448999E+03  0.27238076173E+03  0.00000000000E+00 0. -1.
         22    1    3    3    0    0 -0.67017517069E+01  0.18258988787E+02  0.10221709919E+02  0.21972425928E+02  0.00000000000E+00 0. -1.
         22    1    3    3    0    0  0.22315022202E+01 -0.41605401375E+01 -0.23980914054E+03  0.23985560986E+03  0.00000000000E+00 0. -1.
</event>
<event>
 7    1  0.6315518E-006  0.6891887E+02  0.7818608E-02  0.1444469E+00
          2   -1    0    0  502    0  0.00000000000E+00  0.00000000000E+00  0.18765202321E+04  0.18765202321E+04  0.00000000000E+00 0. -1.
          1   -1    0    0  501    0 -0.00000000000E+00 -0.00000000000E+00 -0.11579563445E+04  0.11579563445E+04  0.00000000000E+00 0. -1.
         25    2    1    2    0    0 -0.36183324699E+02  0.92832170345E+02  0.59820786797E+03  0.61919605667E+03  0.12499623376E+03 0.  0.
          2    1    1    2  501    0  0.84830868459E+00 -0.36500443734E+02 -0.11462994691E+04  0.11468807588E+04  0.00000000000E+00 0. -1.
          1    1    1    2  502    0  0.35335016015E+02 -0.56331726612E+02  0.12666554887E+04  0.12683997611E+04  0.00000000000E+00 0. -1.
         22    1    3    3    0    0 -0.41827907677E+02  0.15144092856E+02  0.56471335321E+02  0.71888310051E+02  0.00000000000E+00 0.  1.
         22    1    3    3    0    0  0.56445829775E+01  0.77688077489E+02  0.54173653265E+03  0.54730774662E+03  0.00000000000E+00 0.  1.
</event>
<event>
 7    1  0.6315518E-006  0.1540344E+03  0.7818608E-02  0.1307767E+00
          2   -1    0    0  502    0  0.00000000000E+00  0.00000000000E+00  0.12267109308E+04  0.12267109308E+04  0.00000000000E+00 0. -1.
          1   -1    0    0  501    0 -0.00000000000E+00 -0.00000000000E+00 -0.26431102929E+03  0.26431102929E+03  0.00000000000E+00 0. -1.
         25    2    1    2    0    0  0.92138624293E+02  0.82510268334E+02  0.58405816602E+01  0.17594439937E+03  0.12499939523E+03 0.  0.
          2    1    1    2  501    0 -0.10448123268E+03 -0.13124681048E+03 -0.13930848858E+03  0.21805712149E+03  0.00000000000E+00 0. -1.
          1    1    1    2  502    0  0.12342608384E+02  0.48736542146E+02  0.10958678084E+04  0.10970204392E+04  0.00000000000E+00 0. -1.
         22    1    3    3    0    0  0.12140659261E+02 -0.33100892356E+02  0.12347134575E+01  0.35278735797E+02  0.00000000000E+00 0. -1.
         22    1    3    3    0    0  0.79997965032E+02  0.11561116069E+03  0.46058682026E+01  0.14066566357E+03  0.00000000000E+00 0. -1.
</event>
<event>
 7    1  0.6315518E-006  0.1058633E+03  0.7818608E-02  0.1346461E+00
          2   -1    0    0  502    0  0.00000000000E+00  0.00000000000E+00  0.80404854516E+03  0.80404854516E+03  0.00000000000E+00 0. -1.
          1   -1    0    0  501    0 -0.00000000000E+00 -0.00000000000E+00 -0.21193424593E+03  0.21193424593E+03  0.00000000000E+00 0. -1.
         25    2    1    2    0    0  0.86939362545E+02  0.62866058011E+02  0.52669001618E+02  0.17294536041E+03  0.12500191977E+03 0.  0.
          2    1    1    2  501    0 -0.40203869637E+02  0.32923855117E+02 -0.14308832511E+03  0.15223206020E+03  0.00000000000E+00 0. -1.
          1    1    1    2  502    0 -0.46735492908E+02 -0.95789913128E+02  0.68253362272E+03  0.69080537049E+03  0.00000000000E+00 0. -1.
         22    1    3    3    0    0  0.11713200440E+03  0.65160024947E+02  0.47640388482E+02  0.14225098215E+03  0.00000000000E+00 0. -1.
         22    1    3    3    0    0 -0.30192641860E+02 -0.22939669361E+01  0.50286131360E+01  0.30694378262E+02  0.00000000000E+00 0. -1.
</event>
<event>
 7    1  0.6315518E-006  0.2434834E+02  0.7818608E-02  0.1671951E+00
          2   -1    0    0  502    0  0.00000000000E+00  0.00000000000E+00  0.79140252405E+03  0.79140252405E+03  0.00000000000E+00 0. -1.
          1   -1    0    0  501    0 -0.00000000000E+00 -0.00000000000E+00 -0.71439127145E+02  0.71439127145E+02  0.00000000000E+00 0. -1.
         25    2    1    2    0    0  0.41691823457E+01  0.28296077610E+02  0.30607878802E+03  0.33185007389E+03  0.12498878738E+03 0.  0.
          2    1    1    2  501    0 -0.21525630096E+02 -0.10971361991E+02 -0.55727589654E+02  0.60739507601E+02  0.00000000000E+00 0. -1.
          1    1    1    2  502    0  0.17356447751E+02 -0.17324715618E+02  0.46961219854E+03  0.47025206971E+03  0.00000000000E+00 0. -1.
         22    1    3    3    0    0  0.56116954383E+02  0.44414998698E+02  0.20392555818E+03  0.21611903655E+03  0.00000000000E+00 0. -1.
         22    1    3    3    0    0 -0.51947772037E+02 -0.16118921089E+02  0.10215322984E+03  0.11573103734E+03  0.00000000000E+00 0. -1.
</event>
<event>
 7    1  0.6315518E-006  0.1517995E+03  0.7818608E-02  0.1200543E+00
          2   -1    0    0  502    0  0.00000000000E+00  0.00000000000E+00  0.43399087368E+03  0.43399087368E+03  0.00000000000E+00 0. -1.
          1   -1    0    0  501    0 -0.00000000000E+00 -0.00000000000E+00 -0.19132140338E+04  0.19132140338E+04  0.00000000000E+00 0. -1.
         25    2    1    2    0    0 -0.27837001168E+02  0.23178735253E+02  0.23586771143E+02  0.13226258069E+03  0.12499960830E+03 0.  0.
          2    1    1    2  501    0 -0.76066078444E+02 -0.13384602994E+03 -0.18393339733E+04  0.18457654980E+04  0.00000000000E+00 0. -1.
          1    1    1    2  502    0  0.10390307961E+03  0.11066729469E+03  0.33652404206E+03  0.36917682884E+03  0.00000000000E+00 0. -1.
         22    1    3    3    0    0  0.44520699901E+01  0.33146083274E+02  0.68398818797E+02  0.76137258792E+02  0.00000000000E+00 0. -1.
         22    1    3    3    0    0 -0.32289071158E+02 -0.99673480207E+01 -0.44812047654E+02  0.56125321895E+02  0.00000000000E+00 0. -1.
</event>
<event>
 7    1  0.6315518E-006  0.1078385E+03  0.7818608E-02  0.1444201E+00
          2   -1    0    0  502    0  0.00000000000E+00  0.00000000000E+00  0.93328708077E+03  0.93328708077E+03  0.00000000000E+00 0. -1.
          1   -1    0    0  501    0 -0.00000000000E+00 -0.00000000000E+00 -0.56069806696E+03  0.56069806696E+03  0.00000000000E+00 0. -1.
         25    2    1    2    0    0 -0.73182041289E+02  0.10121820372E+03  0.69072753946E+02  0.18972778056E+03  0.12499939779E+03 0.  0.
          2    1    1    2  501    0  0.50852675369E+02 -0.94288433830E+02 -0.49446347354E+03  0.50593520337E+03  0.00000000000E+00 0. -1.
          1    1    1    2  502    0  0.22329365920E+02 -0.69297698932E+01  0.79797973340E+03  0.79832216380E+03  0.00000000000E+00 0. -1.
         22    1    3    3    0    0 -0.44424634838E+02  0.12042545294E+03  0.82550866302E+02  0.15261219946E+03  0.00000000000E+00 0. -1.
         22    1    3    3    0    0 -0.28757406452E+02 -0.19207249213E+02 -0.13478112357E+02  0.37115581106E+02  0.00000000000E+00 0. -1.
</event>
<event>
 7    1  0.6315518E-006  0.1038094E+03  0.7818608E-02  0.1301961E+00
          2   -1    0    0  502    0  0.00000000000E+00  0.00000000000E+00  0.40835899095E+03  0.40835899095E+03  0.00000000000E+00 0. -1.
          1   -1    0    0  501    0 -0.00000000000E+00 -0.00000000000E+00 -0.51401110145E+03  0.51401110145E+03  0.00000000000E+00 0. -1.
         25    2    1    2    0    0  0.31205940942E+02  0.23885472251E+02 -0.10844832986E+03  0.17008818668E+03  0.12499849785E+03 0.  0.
          2    1    1    2  501    0  0.20818499418E+01  0.78640687756E+02 -0.36274541129E+03  0.37117775429E+03  0.00000000000E+00 0. -1.
          1    1    1    2  502    0 -0.33287790884E+02 -0.10252616001E+03  0.36554163065E+03  0.38110415144E+03  0.00000000000E+00 0. -1.
         22    1    3    3    0    0 -0.39185134476E+01 -0.24951216579E+01  0.27153829998E+02  0.27548336851E+02  0.00000000000E+00 0.  1.
         22    1    3    3    0    0  0.35124454389E+02  0.26380593908E+02 -0.13560215986E+03  0.14253984983E+03  0.00000000000E+00 0.  1.
</event>
<event>
 7    1  0.6315518E-006  0.1183477E+03  0.7818608E-02  0.1335576E+00
          2   -1    0    0  502    0  0.00000000000E+00  0.00000000000E+00  0.48632683455E+03  0.48632683455E+03  0.00000000000E+00 0. -1.
          1   -1    0    0  501    0 -0.00000000000E+00 -0.00000000000E+00 -0.14624241873E+04  0.14624241873E+04  0.00000000000E+00 0. -1.
         25    2    1    2    0    0 -0.69275101027E+02 -0.23561597973E+02 -0.45469749232E+03  0.47720938960E+03  0.12499921391E+03 0.  0.
          2    1    1    2  501    0 -0.31155759217E+02 -0.40468158839E+02 -0.98833573683E+03  0.98965442550E+03  0.00000000000E+00 0. -1.
          1    1    1    2  502    0  0.10043086024E+03  0.64029756812E+02  0.46693587635E+03  0.48188720679E+03  0.00000000000E+00 0. -1.
         22    1    3    3    0    0 -0.69753973698E+02  0.39923420834E+02 -0.28123943783E+03  0.29249806455E+03  0.00000000000E+00 0. -1.
         22    1    3    3    0    0  0.47887267086E+00 -0.63485018807E+02 -0.17345805449E+03  0.18471132505E+03  0.00000000000E+00 0. -1.
</event>
<event>
 7    1  0.6315518E-006  0.1544854E+03  0.7818608E-02  0.1248557E+00
          2   -1    0    0  502    0  0.00000000000E+00  0.00000000000E+00  0.25844286480E+03  0.25844286480E+03  0.00000000000E+00 0. -1.
          1   -1    0    0  501    0 -0.00000000000E+00 -0.00000000000E+00 -0.71881241448E+03  0.71881241448E+03  0.00000000000E+00 0. -1.
         25    2    1    2    0    0 -0.55655568555E+02  0.14166757451E+03  0.16061517094E+02  0.19760844988E+03  0.12499553253E+03 0.  0.
          2    1    1    2  501    0 -0.76149022451E+02 -0.44567242255E+02 -0.57951000267E+03  0.58618832801E+03  0.00000000000E+00 0. -1.
          1    1    1    2  502    0  0.13180459101E+03 -0.97100332257E+02  0.10307893589E+03  0.19345850139E+03  0.00000000000E+00 0. -1.
         22    1    3    3    0    0  0.28511061218E+02  0.48243629493E+02  0.40971413601E+02  0.69418910470E+02  0.00000000000E+00 0. -1.
         22    1    3    3    0    0 -0.84166629773E+02  0.93423945019E+02 -0.24909896507E+02  0.12818953941E+03  0.00000000000E+00 0. -1.
</event>
<event>
 7    1  0.6315518E-006  0.1131882E+03  0.7818608E-02  0.1366848E+00
          2   -1    0    0  502    0  0.00000000000E+00  0.00000000000E+00  0.79835447061E+03  0.79835447061E+03  0.00000000000E+00 0. -1.
          1   -1    0    0  501    0 -0.00000000000E+00 -0.00000000000E+00 -0.98096218724E+02  0.98096218724E+02  0.00000000000E+00 0. -1.
         25    2    1    2    0    0 -0.97226226399E+02  0.56477262990E+02  0.23487443676E+03  0.28884935279E+03  0.12500130891E+03 0.  0.
          2    1    1    2  501    0  0.72158495354E+02 -0.88812518636E+02 -0.23657828288E+02  0.11685120777E+03  0.00000000000E+00 0. -1.
          1    1    1    2  502    0  0.25067731045E+02  0.32335255647E+02  0.48904164341E+03  0.49075012877E+03  0.00000000000E+00 0. -1.
         22    1    3    3    0    0 -0.27773838122E+02  0.77738299078E+02  0.17930885342E+03  0.19739882002E+03  0.00000000000E+00 0. -1.
         22    1    3    3    0    0 -0.69452388276E+02 -0.21261036089E+02  0.55565583335E+02  0.91450532771E+02  0.00000000000E+00 0. -1.
</event>
<event>
 7    1  0.6315518E-006  0.8170241E+02  0.7818608E-02  0.1367789E+00
          2   -1    0    0  502    0  0.00000000000E+00  0.00000000000E+00  0.16383385100E+03  0.16383385100E+03  0.00000000000E+00 0. -1.
          1   -1    0    0  501    0 -0.00000000000E+00 -0.00000000000E+00 -0.81924115527E+03  0.81924115527E+03  0.00000000000E+00 0. -1.
         25    2    1    2    0    0 -0.74950574176E+02 -0.11340299743E+03 -0.32026158014E+03  0.36969128555E+03  0.12500535387E+03 0.  0.
          2    1    1    2  501    0  0.33883860612E+02  0.44885918506E+02 -0.46094609841E+03  0.46436426147E+03  0.00000000000E+00 0. -1.
          1    1    1    2  502    0  0.41066713564E+02  0.68517078920E+02  0.12580037428E+03  0.14901945925E+03  0.00000000000E+00 0. -1.
         22    1    3    3    0    0 -0.83533075620E+02 -0.13528392016E+03 -0.29544810288E+03  0.33551318196E+03  0.00000000000E+00 0.  1.
         22    1    3    3    0    0  0.85825014442E+01  0.21880922731E+02 -0.24813477265E+02  0.34178103584E+02  0.00000000000E+00 0.  1.
</event>
<event>
 7    1  0.6315518E-006  0.5704747E+02  0.7818608E-02  0.1430497E+00
          2   -1    0    0  502    0  0.00000000000E+00  0.00000000000E+00  0.10662189354E+04  0.10662189354E+04  0.00000000000E+00 0. -1.
          1   -1    0    0  501    0 -0.00000000000E+00 -0.00000000000E+00 -0.36505695357E+02  0.36505695357E+02  0.00000000000E+00 0. -1.
         25    2    1    2    0    0 -0.15553020403E+01  0.27393677679E+02  0.54885747731E+03  0.56358043996E+03  0.12500219745E+03 0.  0.
          2    1    1    2  501    0 -0.42126251169E+02  0.24989708727E+02 -0.43448805014E+01  0.49173006481E+02  0.00000000000E+00 0. -1.
          1    1    1    2  502    0  0.43681553209E+02 -0.52383386406E+02  0.48520064321E+03  0.48997118429E+03  0.00000000000E+00 0. -1.
         22    1    3    3    0    0 -0.68539105653E+01 -0.74308630233E+01  0.51374358843E+03  0.51384303874E+03  0.00000000000E+00 0.  1.
         22    1    3    3    0    0  0.52986085251E+01  0.34824540702E+02  0.35113888880E+02  0.49737401216E+02  0.00000000000E+00 0.  1.
</event>
<event>
 7    1  0.6315518E-006  0.1051843E+03  0.7818608E-02  0.1338686E+00
          2   -1    0    0  502    0  0.00000000000E+00  0.00000000000E+00  0.14506821253E+04  0.14506821253E+04  0.00000000000E+00 0. -1.
          1   -1    0    0  501    0 -0.00000000000E+00 -0.00000000000E+00 -0.95039325458E+03  0.95039325458E+03  0.00000000000E+00 0. -1.
         25    2    1    2    0    0  0.53847300920E+02  0.10465253749E+03  0.75675366835E+03  0.77598534688E+03  0.12500183434E+03 0.  0.
          2    1    1    2  501    0 -0.86781164766E+02 -0.59447744939E+02 -0.93668570369E+03  0.94257366419E+03  0.00000000000E+00 0. -1.
          1    1    1    2  502    0  0.32933863846E+02 -0.45204792551E+02  0.68022090602E+03  0.68251636878E+03  0.00000000000E+00 0. -1.
         22    1    3    3    0    0 -0.81519275595E+01  0.10739377652E+03  0.42196272261E+03  0.43549100615E+03  0.00000000000E+00 0.  1.
         22    1    3    3    0    0  0.61999228479E+02 -0.27412390281E+01  0.33479094574E+03  0.34049434073E+03  0.00000000000E+00 0.  1.
</event>
<event>
 7    1  0.6315518E-006  0.7888465E+02  0.7818608E-02  0.1442877E+00
          2   -1    0    0  502    0  0.00000000000E+00  0.00000000000E+00  0.67398513079E+03  0.67398513079E+03  0.00000000000E+00 0. -1.
          1   -1    0    0  501    0 -0.00000000000E+00 -0.00000000000E+00 -0.13594705455E+03  0.13594705455E+03  0.00000000000E+00 0. -1.
         25    2    1    2    0    0  0.48077080620E+02  0.84944575162E+02  0.43775105810E+03  0.46559415124E+03  0.12499975309E+03 0.  0.
          2    1    1    2  501    0 -0.57008409929E+02 -0.53927517123E+02 -0.10803635597E+03  0.13352898606E+03  0.00000000000E+00 0. -1.
          1    1    1    2  502    0  0.89313293089E+01 -0.31017058039E+02  0.20832337412E+03  0.21080904804E+03  0.00000000000E+00 0. -1.
         22    1    3    3    0    0  0.14890143377E+02  0.75887042976E+02  0.41966088043E+03  0.42672686138E+03  0.00000000000E+00 0. -1.
         22    1    3    3    0    0  0.33186937243E+02  0.90575321857E+01  0.18090177667E+02  0.38867289858E+02  0.00000000000E+00 0. -1.
</event>
<event>
 7    1  0.6315518E-006  0.1377462E+03  0.7818608E-02  0.1267769E+00
          2   -1    0    0  502    0  0.00000000000E+00  0.00000000000E+00  0.12090202705E+03  0.12090202705E+03  0.00000000000E+00 0. -1.
          1   -1    0    0  501    0 -0.00000000000E+00 -0.00000000000E+00 -0.25943854487E+04  0.25943854487E+04  0.00000000000E+00 0. -1.
         25    2    1    2    0    0  0.17792436776E+03  0.28257270308E+02 -0.20825004941E+04  0.20940126656E+04  0.12500072777E+03 0.  0.
          2    1    1    2  501    0 -0.10046121404E+03 -0.17237678313E+01 -0.48575047971E+03  0.49603322010E+03  0.00000000000E+00 0. -1.
          1    1    1    2  502    0 -0.77463153721E+02 -0.26533502476E+02  0.94767552131E+02  0.12524159004E+03  0.00000000000E+00 0. -1.
         22    1    3    3    0    0  0.14022423627E+03  0.95150755384E+00 -0.92425233519E+03  0.93482946087E+03  0.00000000000E+00 0. -1.
         22    1    3    3    0    0  0.37700131491E+02  0.27305762754E+02 -0.11582481589E+04  0.11591832047E+04  0.00000000000E+00 0. -1.
</event>
<event>
 7    1  0.6315518E-006  0.8371402E+02  0.7818608E-02  0.1367103E+00
          2   -1    0    0  502    0  0.00000000000E+00  0.00000000000E+00  0.59304655344E+03  0.59304655344E+03  0.00000000000E+00 0. -1.
          1   -1    0    0  501    0 -0.00000000000E+00 -0.00000000000E+00 -0.92190712510E+03  0.92190712510E+03  0.00000000000E+00 0. -1.
         25    2    1    2    0    0  0.48019909414E+02  0.18174833179E+02 -0.15618363928E+02  0.13603420847E+03  0.12500054528E+03 0.  0.
          2    1    1    2  501    0  0.33770413349E+02 -0.43667018732E+02 -0.84172731009E+03  0.84353548467E+03  0.00000000000E+00 0. -1.
          1    1    1    2  502    0 -0.81790322763E+02  0.25492185553E+02  0.52848510235E+03  0.53538398541E+03  0.00000000000E+00 0. -1.
         22    1    3    3    0    0  0.49787439345E+02  0.49287044449E+02 -0.52649811155E+02  0.87635634771E+02  0.00000000000E+00 0. -1.
         22    1    3    3    0    0 -0.17675299302E+01 -0.31112211270E+02  0.37031447227E+02  0.48398573697E+02  0.00000000000E+00 0. -1.
</event>
<event>
 7    1  0.6315518E-006  0.1000903E+03  0.7818608E-02  0.1462746E+00
          2   -1    0    0  502    0  0.00000000000E+00  0.00000000000E+00  0.57116623116E+03  0.57116623116E+03  0.00000000000E+00 0. -1.
          1   -1    0    0  501    0 -0.00000000000E+00 -0.00000000000E+00 -0.73969749628E+02  0.73969749628E+02  0.00000000000E+00 0. -1.
         25    2    1    2    0    0  0.55034848619E+02 -0.61212292959E+02  0.31201649291E+03  0.34605471342E+03  0.12499517375E+03 0.  0.
          2    1    1    2  501    0 -0.61437304747E+02  0.82247105075E+02 -0.95595422722E+01  0.10310438185E+03  0.00000000000E+00 0. -1.
          1    1    1    2  502    0  0.64024561282E+01 -0.21034812117E+02  0.19473953089E+03  0.19597688552E+03  0.00000000000E+00 0. -1.
         22    1    3    3    0    0 -0.13532861845E+02 -0.77356629276E+02  0.14782050265E+03  0.16738604317E+03  0.00000000000E+00 0. -1.
         22    1    3    3    0    0  0.68567710464E+02  0.16144336317E+02  0.16419599026E+03  0.17866867025E+03  0.00000000000E+00 0. -1.
</event>
<event>
 7    1  0.6315518E-006  0.1564545E+03  0.7818608E-02  0.1227950E+00
          2   -1    0    0  502    0  0.00000000000E+00  0.00000000000E+00  0.63284135862E+03  0.63284135862E+03  0.00000000000E+00 0. -1.
          1   -1    0    0  501    0 -0.00000000000E+00 -0.00000000000E+00 -0.13983489080E+04  0.13983489080E+04  0.00000000000E+00 0. -1.
         25    2    1    2    0    0  0.19350238706E+03 -0.93653000654E+01 -0.60713368986E+03  0.64943580197E+03  0.12499864348E+03 0.  0.
          2    1    1    2  501    0 -0.13000148784E+03 -0.77333672247E+02 -0.75781099956E+03  0.77276024403E+03  0.00000000000E+00 0. -1.
          1    1    1    2  502    0 -0.63500899225E+02  0.86698972313E+02  0.59943713999E+03  0.60899422066E+03  0.00000000000E+00 0. -1.
         22    1    3    3    0    0  0.49935770338E+02 -0.20675248858E+02 -0.35485186700E+03  0.35894413853E+03  0.00000000000E+00 0.  1.
         22    1    3    3    0    0  0.14356661673E+03  0.11309948793E+02 -0.25228182286E+03  0.29049166343E+03  0.00000000000E+00 0.  1.
</event>
<event>
 7    1  0.6315518E-006  0.6735978E+02  0.7818608E-02  0.1497582E+00
          2   -1    0    0  502    0  0.00000000000E+00  0.00000000000E+00  0.78962862100E+03  0.78962862100E+03  0.00000000000E+00 0. -1.
          1   -1    0    0  501    0 -0.00000000000E+00 -0.00000000000E+00 -0.23895270173E+02  0.23895270173E+02  0.00000000000E+00 0. -1.
         25    2    1    2    0    0 -0.40960258441E+02  0.50078882202E+02  0.31262793302E+03  0.34285099239E+03  0.12499976505E+03 0.  0.
          2    1    1    2  501    0  0.61031066981E+02 -0.34275987069E+02  0.13996551044E+03  0.15649274277E+03  0.00000000000E+00 0. -1.
          1    1    1    2  502    0 -0.20070808539E+02 -0.15802895133E+02  0.31313990737E+03  0.31418015602E+03  0.00000000000E+00 0. -1.
         22    1    3    3    0    0 -0.17894999464E+02  0.90856684429E+02  0.22863003895E+03  0.24667156873E+03  0.00000000000E+00 0.  1.
         22    1    3    3    0    0 -0.23065258978E+02 -0.40777802227E+02  0.83997894070E+02  0.96179423654E+02  0.00000000000E+00 0.  1.
</event>
<event>
 7    1  0.6315518E-006  0.9155607E+02  0.7818608E-02  0.1429352E+00
          2   -1    0    0  502    0  0.00000000000E+00  0.00000000000E+00  0.88031534981E+03  0.88031534981E+03  0.00000000000E+00 0. -1.
          1   -1    0    0  501    0 -0.00000000000E+00 -0.00000000000E+00 -0.31178109334E+02  0.31178109334E+02  0.00000000000E+00 0. -1.
         25    2    1    2    0    0  0.13086548345E+02  0.10267462923E+03  0.54725753706E+03  0.57081453252E+03  0.12500032575E+03 0.  0.
          2    1    1    2  501    0  0.20528437369E+02 -0.22941623290E+02  0.46800319832E+01  0.31139003185E+02  0.00000000000E+00 0. -1.
          1    1    1    2  502    0 -0.33614985714E+02 -0.79733005935E+02  0.29719967144E+03  0.30953992344E+03  0.00000000000E+00 0. -1.
         22    1    3    3    0    0  0.68309838318E+02  0.55504466030E+02  0.25893226324E+03  0.27348290021E+03  0.00000000000E+00 0.  1.
         22    1    3    3    0    0 -0.55223289973E+02  0.47170163196E+02  0.28832527382E+03  0.29733163231E+03  0.00000000000E+00 0.  1.
</event>
<event>
 7    1  0.6315518E-006  0.8208153E+02  0.7818608E-02  0.1342274E+00
          2   -1    0    0  502    0  0.00000000000E+00  0.00000000000E+00  0.25340624999E+03  0.25340624999E+03  0.00000000000E+00 0. -1.
          1   -1    0    0  501    0 -0.00000000000E+00 -0.00000000000E+00 -0.54048218722E+03  0.54048218722E+03  0.00000000000E+00 0. -1.
         25    2    1    2    0    0  0.29952966731E+02 -0.14542465074E+03 -0.21172201562E+03  0.28722360434E+03  0.12500271090E+03 0.  0.
          2    1    1    2  501    0 -0.50859893017E+01  0.69293223744E+02 -0.27916557969E+03  0.28768183646E+03  0.00000000000E+00 0. -1.
          1    1    1    2  502    0 -0.24866977429E+02  0.76131426998E+02  0.20381165808E+03  0.21898299640E+03  0.00000000000E+00 0. -1.
         22    1    3    3    0    0  0.60834283647E+02 -0.49786391775E+02 -0.39871145359E+02  0.88143083137E+02  0.00000000000E+00 0.  1.
         22    1    3    3    0    0 -0.30881316916E+02 -0.95638258967E+02 -0.17185087026E+03  0.19908052120E+03  0.00000000000E+00 0.  1.
</event>
<event>
 7    1  0.6315518E-006  0.1264023E+03  0.7818608E-02  0.1313094E+00
          2   -1    0    0  502    0  0.00000000000E+00  0.00000000000E+00  0.22435214058E+04  0.22435214058E+04  0.00000000000E+00 0. -1.
          1   -1    0    0  501    0 -0.00000000000E+00 -0.00000000000E+00 -0.74944386859E+02  0.74944386859E+02  0.00000000000E+00 0. -1.
         25    2    1    2    0    0 -0.75353337786E+02  0.11694952197E+03  0.54017568233E+03  0.57163743074E+03  0.12499707288E+03 0.  0.
          2    1    1    2  501    0  0.17536474927E+02 -0.12501361439E+03  0.91971349452E+01  0.12657218900E+03  0.00000000000E+00 0. -1.
          1    1    1    2  502    0  0.57816862859E+02  0.80640924200E+01  0.16192042016E+04  0.16202561729E+04  0.00000000000E+00 0. -1.
         22    1    3    3    0    0 -0.10419242142E+03  0.58736275978E+02  0.39210884332E+03  0.40994555225E+03  0.00000000000E+00 0. -1.
         22    1    3    3    0    0  0.28839083634E+02  0.58213245995E+02  0.14806683901E+03  0.16169187849E+03  0.00000000000E+00 0. -1.
</event>
<event>
 7    1  0.6315518E-006  0.1166952E+03  0.7818608E-02  0.1350895E+00
          2   -1    0    0  502    0  0.00000000000E+00  0.00000000000E+00  0.55599639283E+03  0.55599639283E+03  0.00000000000E+00 0. -1.
          1   -1    0    0  501    0 -0.00000000000E+00 -0.00000000000E+00 -0.54982386657E+03  0.54982386657E+03  0.00000000000E+00 0. -1.
         25    2    1    2    0    0  0.11479700302E+03 -0.10694773259E+03  0.18519568641E+03  0.27301624685E+03  0.12499703744E+03 0.  0.
          2    1    1    2  501    0 -0.94703128516E+02  0.66250141208E+02 -0.49768365502E+03  0.51092737667E+03  0.00000000000E+00 0. -1.
          1    1    1    2  502    0 -0.20093874506E+02  0.40697591383E+02  0.31866049486E+03  0.32187663588E+03  0.00000000000E+00 0. -1.
         22    1    3    3    0    0  0.12197715677E+03 -0.54698483165E+02  0.17344472949E+03  0.21898270484E+03  0.00000000000E+00 0.  1.
         22    1    3    3    0    0 -0.71801537433E+01 -0.52249249426E+02  0.11750956926E+02  0.54033542008E+02  0.00000000000E+00 0.  1.
</event>
<event>
 7    1  0.6315518E-006  0.6704634E+02  0.7818608E-02  0.1509794E+00
          2   -1    0    0  502    0  0.00000000000E+00  0.00000000000E+00  0.15164383435E+03  0.15164383435E+03  0.00000000000E+00 0. -1.
          1   -1    0    0  501    0 -0.00000000000E+00 -0.00000000000E+00 -0.79098079862E+03  0.79098079862E+03  0.00000000000E+00 0. -1.
         25    2    1    2    0    0  0.30158949368E+01 -0.82869743178E+02 -0.13455972475E+03  0.20150873954E+03  0.12499185026E+03 0.  0.
          2    1    1    2  501    0 -0.15526814889E+02  0.17785140589E+02 -0.61340871796E+03  0.61386289062E+03  0.00000000000E+00 0. -1.
          1    1    1    2  502    0  0.12510919952E+02  0.65084602589E+02  0.10863147845E+03  0.12725300280E+03  0.00000000000E+00 0. -1.
         22    1    3    3    0    0 -0.45241325328E+02  0.90844743564E+01 -0.42238620027E+02  0.62557223512E+02  0.00000000000E+00 0. -1.
         22    1    3    3    0    0  0.48257220264E+02 -0.91954217534E+02 -0.92321104726E+02  0.13895151603E+03  0.00000000000E+00 0. -1.
</event>
<event>
 7    1  0.6315518E-006  0.1070395E+03  0.7818608E-02  0.1307952E+00
          2   -1    0    0  502    0  0.00000000000E+00  0.00000000000E+00  0.98625208792E+03  0.98625208792E+03  0.00000000000E+00 0. -1.
          1   -1    0    0  501    0 -0.00000000000E+00 -0.00000000000E+00 -0.19131284841E+03  0.19131284841E+03  0.00000000000E+00 0. -1.
         25    2    1    2    0    0  0.66414695526E+01  0.89895139190E+02  0.58837316141E+02  0.16496079210E+03  0.12499995197E+03 0.  0.
          2    1    1    2  501    0  0.65478209571E+02 -0.93819136065E+02 -0.11278239703E+03  0.16065271644E+03  0.00000000000E+00 0. -1.
          1    1    1    2  502    0 -0.72119679124E+02  0.39239968746E+01  0.84888432041E+03  0.85195142778E+03  0.00000000000E+00 0. -1.
         22    1    3    3    0    0 -0.10694782074E+02  0.91075723125E+02 -0.11581330548E+02  0.92429935214E+02  0.00000000000E+00 0.  1.
         22    1    3    3    0    0  0.17336251627E+02 -0.11805839351E+01  0.70418646690E+02  0.72530856885E+02  0.00000000000E+00 0.  1.
</event>
<event>
 7    1  0.6315518E-006  0.3879674E+03  0.7818608E-02  0.1233027E+00
          2   -1    0    0  502    0  0.00000000000E+00  0.00000000000E+00  0.88869748311E+02  0.88869748311E+02  0.00000000000E+00 0. -1.
          1   -1    0    0  501    0 -0.00000000000E+00 -0.00000000000E+00 -0.34963240412E+04  0.34963240412E+04  0.00000000000E+00 0. -1.
         25    2    1    2    0    0 -0.40232286391E+03 -0.23096857853E+01 -0.17664478818E+04  0.18159930473E+04  0.12499442930E+03 0.  0.
          2    1    1    2  501    0  0.20039285705E+02  0.35914056180E+02 -0.11269460251E+04  0.11276962072E+04  0.00000000000E+00 0. -1.
          1    1    1    2  502    0  0.38228357821E+03 -0.33604370395E+02 -0.51406038602E+03  0.64150453494E+03  0.00000000000E+00 0. -1.
         22    1    3    3    0    0 -0.40665783805E+03  0.75734882043E+01 -0.16643706007E+04  0.17133468567E+04  0.00000000000E+00 0.  1.
         22    1    3    3    0    0  0.43349741406E+01 -0.98831739897E+01 -0.10207728109E+03  0.10264619059E+03  0.00000000000E+00 0.  1.
</event>
<event>
 7    1  0.6315518E-006  0.6785950E+02  0.7818608E-02  0.1439885E+00
          2   -1    0    0  502    0  0.00000000000E+00  0.00000000000E+00  0.31084838516E+04  0.31084838516E+04  0.00000000000E+00 0. -1.
          1   -1    0    0  501    0 -0.00000000000E+00 -0.00000000000E+00 -0.13989801910E+03  0.13989801910E+03  0.00000000000E+00 0. -1.
         25    2    1    2    0    0 -0.17742739851E+02 -0.10322676958E+03  0.46618080866E+03  0.49388444548E+03  0.12500691321E+03 0.  0.
          2    1    1    2  501    0  0.17502265593E+02  0.64859289948E+02 -0.11694451959E+03  0.13486688791E+03  0.00000000000E+00 0. -1.
          1    1    1    2  502    0  0.24047425840E+00  0.38367479637E+02  0.26193495434E+04  0.26196305373E+04  0.00000000000E+00 0. -1.
         22    1    3    3    0    0 -0.10633317780E+02 -0.92545334380E+02  0.47104089451E+03  0.48016375400E+03  0.00000000000E+00 0.  1.
         22    1    3    3    0    0 -0.71094220707E+01 -0.10681435204E+02 -0.48600858465E+01  0.13720691478E+02  0.00000000000E+00 0.  1.
</event>
<event>
 7    1  0.6315518E-006  0.5621555E+02  0.7818608E-02  0.1512634E+00
          2   -1    0    0  502    0  0.00000000000E+00  0.00000000000E+00  0.10270405979E+04  0.10270405979E+04  0.00000000000E+00 0. -1.
          1   -1    0    0  501    0 -0.00000000000E+00 -0.00000000000E+00 -0.16361382951E+03  0.16361382951E+03  0.00000000000E+00 0. -1.
         25    2    1    2    0    0 -0.19014649487E+01 -0.52016512548E+02 -0.11272987094E+03  0.17619394114E+03  0.12500779155E+03 0.  0.
          2    1    1    2  501    0 -0.23513098166E+02  0.62836397636E+02  0.40441390599E+02  0.78337632890E+02  0.00000000000E+00 0. -1.
          1    1    1    2  502    0  0.25414563115E+02 -0.10819885088E+02  0.93571524868E+03  0.93612285334E+03  0.00000000000E+00 0. -1.
         22    1    3    3    0    0 -0.58012642412E+02 -0.28475201648E+02 -0.24707413442E+02  0.69186415340E+02  0.00000000000E+00 0. -1.
         22    1    3    3    0    0  0.56111177464E+02 -0.23541310900E+02 -0.88022457494E+02  0.10700752580E+03  0.00000000000E+00 0. -1.
</event>
<event>
 7    1  0.6315518E-006  0.5857908E+02  0.7818608E-02  0.1482178E+00
          2   -1    0    0  502    0  0.00000000000E+00  0.00000000000E+00  0.22336922609E+04  0.22336922609E+04  0.00000000000E+00 0. -1.
          1   -1    0    0  501    0 -0.00000000000E+00 -0.00000000000E+00 -0.51715809121E+03  0.51715809121E+03  0.00000000000E+00 0. -1.
         25    2    1    2    0    0 -0.63775957215E+02  0.64295492746E+02  0.12467958291E+02  0.15486290819E+03  0.12500314893E+03 0.  0.
          2    1    1    2  501    0  0.41015301607E+02 -0.40812951980E+02 -0.44395880692E+03  0.44771349573E+03  0.00000000000E+00 0. -1.
          1    1    1    2  502    0  0.22760655608E+02 -0.23482540766E+02  0.21480250184E+04  0.21482739482E+04  0.00000000000E+00 0. -1.
         22    1    3    3    0    0 -0.37157200211E+02 -0.20418741439E+01 -0.48349384171E+02  0.61012209657E+02  0.00000000000E+00 0.  1.
         22    1    3    3    0    0 -0.26618757004E+02  0.66337366890E+02  0.60817342461E+02  0.93850698529E+02  0.00000000000E+00 0.  1.
</event>
<event>
 7    1  0.6315518E-006  0.9241750E+02  0.7818608E-02  0.1353140E+00
          2   -1    0    0  502    0  0.00000000000E+00  0.00000000000E+00  0.31423406568E+03  0.31423406568E+03  0.00000000000E+00 0. -1.
          1   -1    0    0  501    0 -0.00000000000E+00 -0.00000000000E+00 -0.18368684842E+04  0.18368684842E+04  0.00000000000E+00 0. -1.
         25    2    1    2    0    0 -0.12393374067E+03  0.34432944015E+02 -0.13236398946E+04  0.13357356149E+04  0.12498744951E+03 0.  0.
          2    1    1    2  501    0  0.32377600012E+02 -0.45969531246E+02 -0.49865727550E+03  0.50181728268E+03  0.00000000000E+00 0. -1.
          1    1    1    2  502    0  0.91556140661E+02  0.11536587231E+02  0.29966275163E+03  0.31354965229E+03  0.00000000000E+00 0. -1.
         22    1    3    3    0    0 -0.91721393447E+01  0.57128054753E+02 -0.30865055836E+03  0.31402692552E+03  0.00000000000E+00 0. -1.
         22    1    3    3    0    0 -0.11476160133E+03 -0.22695110737E+02 -0.10149893363E+04  0.10217086894E+04  0.00000000000E+00 0. -1.
</event>
<event>
 7    1  0.6315518E-006  0.4084564E+02  0.7818608E-02  0.1503073E+00
          2   -1    0    0  502    0  0.00000000000E+00  0.00000000000E+00  0.75529346852E+03  0.75529346852E+03  0.00000000000E+00 0. -1.
          1   -1    0    0  501    0 -0.00000000000E+00 -0.00000000000E+00 -0.17473636439E+04  0.17473636439E+04  0.00000000000E+00 0. -1.
         25    2    1    2    0    0  0.70406978998E+02  0.15613233735E+02 -0.12172904170E+03  0.18879350903E+03  0.12499645475E+03 0.  0.
          2    1    1    2  501    0 -0.31028775827E+02 -0.26134895814E+02 -0.15912681848E+04  0.15917852411E+04  0.00000000000E+00 0. -1.
          1    1    1    2  502    0 -0.39378203170E+02  0.10521662078E+02  0.72092705114E+03  0.72207836232E+03  0.00000000000E+00 0. -1.
         22    1    3    3    0    0  0.50177036437E+02  0.64269648147E+02 -0.38223291319E+02  0.90051888696E+02  0.00000000000E+00 0. -1.
         22    1    3    3    0    0  0.20229942561E+02 -0.48656414411E+02 -0.83505750385E+02  0.98741620337E+02  0.00000000000E+00 0. -1.
</event>
<event>
 7    1  0.6315518E-006  0.1347101E+03  0.7818608E-02  0.1390581E+00
          2   -1    0    0  502    0  0.00000000000E+00  0.00000000000E+00  0.20626205525E+02  0.20626205525E+02  0.00000000000E+00 0. -1.
          1   -1    0    0  501    0 -0.00000000000E+00 -0.00000000000E+00 -0.28103036257E+04  0.28103036257E+04  0.00000000000E+00 0. -1.
         25    2    1    2    0    0  0.10999198962E+03  0.66575541611E+02 -0.17774163519E+04  0.17864393620E+04  0.12500466172E+03 0.  0.
          2    1    1    2  501    0 -0.10679932837E+03 -0.94712071610E+02 -0.10052285235E+04  0.10153131819E+04  0.00000000000E+00 0. -1.
          1    1    1    2  502    0 -0.31926612540E+01  0.28136529999E+02 -0.70325447602E+01  0.29177287263E+02  0.00000000000E+00 0. -1.
         22    1    3    3    0    0  0.11252800664E+03  0.94166307581E+02 -0.16173911896E+04  0.16240332835E+04  0.00000000000E+00 0.  1.
         22    1    3    3    0    0 -0.25360170185E+01 -0.27590765970E+02 -0.16002516238E+03  0.16240607853E+03  0.00000000000E+00 0.  1.
</event>
<event>
 7    1  0.6315518E-006  0.1038950E+03  0.7818608E-02  0.1425572E+00
          2   -1    0    0  502    0  0.00000000000E+00  0.00000000000E+00  0.73419649349E+03  0.73419649349E+03  0.00000000000E+00 0. -1.
          1   -1    0    0  501    0 -0.00000000000E+00 -0.00000000000E+00 -0.26356530196E+03  0.26356530196E+03  0.00000000000E+00 0. -1.
         25    2    1    2    0    0 -0.60155145011E+02 -0.10136837862E+03  0.17835146180E+03  0.24764652053E+03  0.12500146219E+03 0.  0.
          2    1    1    2  501    0 -0.92398573854E+01  0.26347334154E+02 -0.22302942940E+03  0.22477029021E+03  0.00000000000E+00 0. -1.
          1    1    1    2  502    0  0.69395002397E+02  0.75021044471E+02  0.51530915913E+03  0.52534498471E+03  0.00000000000E+00 0. -1.
         22    1    3    3    0    0 -0.77549530761E+02 -0.13333500100E+02  0.10797278342E+03  0.13360327057E+03  0.00000000000E+00 0.  1.
         22    1    3    3    0    0  0.17394385750E+02 -0.88034878524E+02  0.70378678375E+02  0.11404324996E+03  0.00000000000E+00 0.  1.
</event>
<event>
 7    1  0.6315518E-006  0.6040603E+02  0.7818608E-02  0.1419818E+00
          2   -1    0    0  502    0  0.00000000000E+00  0.00000000000E+00  0.48064527396E+03  0.48064527396E+03  0.00000000000E+00 0. -1.
          1   -1    0    0  501    0 -0.00000000000E+00 -0.00000000000E+00 -0.19842775053E+03  0.19842775053E+03  0.00000000000E+00 0. -1.
         25    2    1    2    0    0 -0.37162237412E+02 -0.30467038766E+02  0.32832923670E+00  0.13392020812E+03  0.12500096801E+03 0.  0.
          2    1    1    2  501    0  0.62465302528E+02 -0.12873454776E+02 -0.12226220226E+03  0.13789737474E+03  0.00000000000E+00 0. -1.
          1    1    1    2  502    0 -0.25303065116E+02  0.43340493542E+02  0.40415139645E+03  0.40725544163E+03  0.00000000000E+00 0. -1.
         22    1    3    3    0    0  0.46847392763E+01  0.61777866988E+01  0.55226251103E+02  0.55767828014E+02  0.00000000000E+00 0. -1.
         22    1    3    3    0    0 -0.41846976689E+02 -0.36644825464E+02 -0.54897921866E+02  0.78152380108E+02  0.00000000000E+00 0. -1.
</event>
<event>
 7    1  0.6315518E-006  0.4511014E+02  0.7818608E-02  0.1482207E+00
          2   -1    0    0  502    0  0.00000000000E+00  0.00000000000E+00  0.16598021026E+03  0.16598021026E+03  0.00000000000E+00 0. -1.
          1   -1    0    0  501    0 -0.00000000000E+00 -0.00000000000E+00 -0.14983401133E+04  0.14983401133E+04  0.00000000000E+00 0. -1.
         25    2    1    2    0    0  0.61748265782E+01  0.46840104510E+02 -0.17414731537E+03  0.21950868944E+03  0.12499861364E+03 0.  0.
          2    1    1    2  501    0 -0.39389918666E+02 -0.15847724804E+02 -0.12975556810E+04  0.12982501536E+04  0.00000000000E+00 0. -1.
          1    1    1    2  502    0  0.33215092088E+02 -0.30992379706E+02  0.13934309327E+03  0.14656148056E+03  0.00000000000E+00 0. -1.
         22    1    3    3    0    0 -0.55772766679E+02 -0.24680385070E+00 -0.69936833226E+02  0.89452909717E+02  0.00000000000E+00 0. -1.
         22    1    3    3    0    0  0.61947593257E+02  0.47086908361E+02 -0.10421048215E+03  0.13005577972E+03  0.00000000000E+00 0. -1.
</event>
<event>
 7    1  0.6315518E-006  0.9455234E+02  0.7818608E-02  0.1297223E+00
          2   -1    0    0  502    0  0.00000000000E+00  0.00000000000E+00  0.68505545383E+03  0.68505545383E+03  0.00000000000E+00 0. -1.
          1   -1    0    0  501    0 -0.00000000000E+00 -0.00000000000E+00 -0.28340987210E+03  0.28340987210E+03  0.00000000000E+00 0. -1.
         25    2    1    2    0    0 -0.27543308988E+02 -0.80921804322E+01 -0.82333840354E+01  0.12851246907E+03  0.12499419522E+03 0.  0.
          2    1    1    2  501    0  0.39374452440E+02 -0.85963932560E+02 -0.20080642678E+03  0.22195352271E+03  0.00000000000E+00 0. -1.
          1    1    1    2  502    0 -0.11831143452E+02  0.94056112992E+02  0.61068539255E+03  0.61799933416E+03  0.00000000000E+00 0. -1.
         22    1    3    3    0    0 -0.60119818480E+02 -0.45319831770E+02 -0.19510454025E+02  0.77774915892E+02  0.00000000000E+00 0. -1.
         22    1    3    3    0    0  0.32576509492E+02  0.37227651337E+02  0.11277069989E+02  0.50737553177E+02  0.00000000000E+00 0. -1.
</event>
<event>
 7    1  0.6315518E-006  0.1805231E+03  0.7818608E-02  0.1270618E+00
          2   -1    0    0  502    0  0.00000000000E+00  0.00000000000E+00  0.21136744725E+04  0.21136744725E+04  0.00000000000E+00 0. -1.
          1   -1    0    0  501    0 -0.00000000000E+00 -0.00000000000E+00 -0.36341037345E+02  0.36341037345E+02  0.00000000000E+00 0. -1.
         25    2    1    2    0    0 -0.12833165813E+03 -0.89422157917E+02  0.60522979058E+03  0.63748757749E+03  0.12498790038E+03 0.  0.
          2    1    1    2  501    0  0.13775734777E+03  0.14946618329E+03  0.51746124163E+03  0.55595266291E+03  0.00000000000E+00 0. -1.
          1    1    1    2  502    0 -0.94256896375E+01 -0.60044025368E+02  0.95464240299E+03  0.95657526948E+03  0.00000000000E+00 0. -1.
         22    1    3    3    0    0 -0.67600323540E+02  0.23114068611E+02  0.24662842882E+03  0.25676768841E+03  0.00000000000E+00 0.  1.
         22    1    3    3    0    0 -0.60731334595E+02 -0.11253622653E+03  0.35860136176E+03  0.38071988907E+03  0.00000000000E+00 0.  1.
</event>
<event>
 7    1  0.6315518E-006  0.6329525E+02  0.7818608E-02  0.1409161E+00
          2   -1    0    0  502    0  0.00000000000E+00  0.00000000000E+00  0.40400842877E+04  0.40400842877E+04  0.00000000000E+00 0. -1.
          1   -1    0    0  501    0 -0.00000000000E+00 -0.00000000000E+00 -0.21629063618E+04  0.21629063618E+04  0.00000000000E+00 0. -1.
         25    2    1    2    0    0  0.77536179671E+01  0.23217614339E+02  0.43612899320E+03  0.45434868082E+03  0.12500019536E+03 0.  0.
          2    1    1    2  501    0  0.35069002349E+02 -0.52752697102E+02 -0.21531424915E+04  0.21540741098E+04  0.00000000000E+00 0. -1.
          1    1    1    2  502    0 -0.42822620316E+02  0.29535082763E+02  0.35941914242E+04  0.35945678589E+04  0.00000000000E+00 0. -1.
         22    1    3    3    0    0  0.50687852860E+02  0.47815136271E+02  0.17118707484E+03  0.18482575653E+03  0.00000000000E+00 0. -1.
         22    1    3    3    0    0 -0.42934234893E+02 -0.24597521932E+02  0.26494191836E+03  0.26952292429E+03  0.00000000000E+00 0. -1.
</event>
<event>
 7    1  0.6315518E-006  0.6853277E+02  0.7818608E-02  0.1388341E+00
          2   -1    0    0  502    0  0.00000000000E+00  0.00000000000E+00  0.11421839920E+04  0.11421839920E+04  0.00000000000E+00 0. -1.
          1   -1    0    0  501    0 -0.00000000000E+00 -0.00000000000E+00 -0.88003520383E+02  0.88003520383E+02  0.00000000000E+00 0. -1.
         25    2    1    2    0    0  0.50450040113E+02 -0.10778955217E+03  0.51068215771E+03  0.53905985756E+03  0.12500187887E+03 0.  0.
          2    1    1    2  501    0 -0.42947385518E+02  0.51615773795E+02 -0.56929004911E+02  0.88031685360E+02  0.00000000000E+00 0. -1.
          1    1    1    2  502    0 -0.75026545951E+01  0.56173778374E+02  0.60042731878E+03  0.60309596943E+03  0.00000000000E+00 0. -1.
         22    1    3    3    0    0 -0.32417593694E+02 -0.57021572439E+02  0.29937318706E+03  0.30647457519E+03  0.00000000000E+00 0.  1.
         22    1    3    3    0    0  0.82867633807E+02 -0.50767979730E+02  0.21130897064E+03  0.23258528237E+03  0.00000000000E+00 0.  1.
</event>
<event>
 7    1  0.6315518E-006  0.9966205E+02  0.7818608E-02  0.1376215E+00
          2   -1    0    0  502    0  0.00000000000E+00  0.00000000000E+00  0.17444868837E+04  0.17444868837E+04  0.00000000000E+00 0. -1.
          1   -1    0    0  501    0 -0.00000000000E+00 -0.00000000000E+00 -0.36277425460E+03  0.36277425460E+03  0.00000000000E+00 0. -1.
         25    2    1    2    0    0 -0.94452305490E+02 -0.60904065037E+02  0.68143592527E+03  0.70186270575E+03  0.12500317726E+03 0.  0.
          2    1    1    2  501    0  0.38213083311E+02 -0.19733159635E+02 -0.34894276647E+03  0.35158312189E+03  0.00000000000E+00 0. -1.
          1    1    1    2  502    0  0.56239222179E+02  0.80637224671E+02  0.10492194703E+04  0.10538153106E+04  0.00000000000E+00 0. -1.
         22    1    3    3    0    0 -0.11296627679E+03 -0.25039216996E+02  0.59903721308E+03  0.61010976450E+03  0.00000000000E+00 0. -1.
         22    1    3    3    0    0  0.18513971300E+02 -0.35864848040E+02  0.82398712189E+02  0.91752941253E+02  0.00000000000E+00 0. -1.
</event>
<event>
 7    1  0.6315518E-006  0.5700032E+02  0.7818608E-02  0.1426071E+00
          2   -1    0    0  502    0  0.00000000000E+00  0.00000000000E+00  0.11985509030E+04  0.11985509030E+04  0.00000000000E+00 0. -1.
          1   -1    0    0  501    0 -0.00000000000E+00 -0.00000000000E+00 -0.10572160748E+04  0.10572160748E+04  0.00000000000E+00 0. -1.
         25    2    1    2    0    0 -0.86218678470E+02 -0.53465014630E+02  0.51599418506E+03  0.54052641981E+03  0.12500657258E+03 0.  0.
          2    1    1    2  501    0  0.36462726165E+02  0.43737009919E+02 -0.10432137409E+04  0.10447666561E+04  0.00000000000E+00 0. -1.
          1    1    1    2  502    0  0.49755952305E+02  0.97280047114E+01  0.66855438397E+03  0.67047390194E+03  0.00000000000E+00 0. -1.
         22    1    3    3    0    0 -0.10512204527E+03 -0.16594689654E+02  0.25582269409E+03  0.27707630527E+03  0.00000000000E+00 0. -1.
         22    1    3    3    0    0  0.18903366803E+02 -0.36870324976E+02  0.26017149097E+03  0.26345011454E+03  0.00000000000E+00 0. -1.
</event>
<event>
 7    1  0.6315518E-006  0.5855293E+02  0.7818608E-02  0.1499059E+00
          2   -1    0    0  502    0  0.00000000000E+00  0.00000000000E+00  0.12881436472E+03  0.12881436472E+03  0.00000000000E+00 0. -1.
          1   -1    0    0  501    0 -0.00000000000E+00 -0.00000000000E+00 -0.39750291305E+03  0.39750291305E+03  0.00000000000E+00 0. -1.
         25    2    1    2    0    0  0.33017364848E+02  0.66156120935E+02 -0.28305816944E+03  0.31814427662E+03  0.12500829870E+03 0.  0.
          2    1    1    2  501    0 -0.27941471821E+02 -0.80940908548E+01 -0.86728789485E+02  0.91477445744E+02  0.00000000000E+00 0. -1.
          1    1    1    2  502    0 -0.50758930268E+01 -0.58062030080E+02  0.10109841059E+03  0.11669555541E+03  0.00000000000E+00 0. -1.
         22    1    3    3    0    0 -0.28552732280E+02 -0.18142281439E+02 -0.11879433695E+03  0.12351718660E+03  0.00000000000E+00 0.  1.
         22    1    3    3    0    0  0.61570097128E+02  0.84298402375E+02 -0.16426383249E+03  0.19462709002E+03  0.00000000000E+00 0.  1.
</event>
<event>
 7    1  0.6315518E-006  0.1445058E+03  0.7818608E-02  0.1390260E+00
          2   -1    0    0  502    0  0.00000000000E+00  0.00000000000E+00  0.16403830347E+04  0.16403830347E+04  0.00000000000E+00 0. -1.
          1   -1    0    0  501    0 -0.00000000000E+00 -0.00000000000E+00 -0.23318859742E+03  0.23318859742E+03  0.00000000000E+00 0. -1.
         25    2    1    2    0    0 -0.45673835348E+02  0.14897496828E+03  0.41822037113E+03  0.46348029491E+03  0.12500425807E+03 0.  0.
          2    1    1    2  501    0  0.25300746818E+02 -0.77655337971E+01 -0.20546457278E+03  0.20716206692E+03  0.00000000000E+00 0. -1.
          1    1    1    2  502    0  0.20373088530E+02 -0.14120943448E+03  0.11944386389E+04  0.12029292703E+04  0.00000000000E+00 0. -1.
         22    1    3    3    0    0 -0.67408622695E+02  0.24587177151E+02  0.18188944809E+03  0.19553061914E+03  0.00000000000E+00 0.  1.
         22    1    3    3    0    0  0.21734787347E+02  0.12438779113E+03  0.23633092304E+03  0.26794967577E+03  0.00000000000E+00 0.  1.
</event>
<event>
 7    1  0.6315518E-006  0.7097811E+02  0.7818608E-02  0.1496470E+00
          2   -1    0    0  502    0  0.00000000000E+00  0.00000000000E+00  0.70286877723E+03  0.70286877723E+03  0.00000000000E+00 0. -1.
          1   -1    0    0  501    0 -0.00000000000E+00 -0.00000000000E+00 -0.47870982858E+02  0.47870982858E+02  0.00000000000E+00 0. -1.
         25    2    1    2    0    0  0.35038388579E+02  0.36059237890E+02  0.24381341580E+03  0.27856122591E+03  0.12499367002E+03 0.  0.
          2    1    1    2  501    0 -0.53519217561E+02 -0.52036681441E+02  0.16129977942E+02  0.76369490322E+02  0.00000000000E+00 0. -1.
          1    1    1    2  502    0  0.18480828982E+02  0.15977443550E+02  0.39505440063E+03  0.39580904386E+03  0.00000000000E+00 0. -1.
         22    1    3    3    0    0  0.65333361224E+02  0.63672304646E+02  0.19133572451E+03  0.21197162532E+03  0.00000000000E+00 0.  1.
         22    1    3    3    0    0 -0.30294972645E+02 -0.27613066756E+02  0.52477691293E+02  0.66589600589E+02  0.00000000000E+00 0.  1.
</event>
<event>
 7    1  0.6315518E-006  0.1308216E+03  0.7818608E-02  0.1347917E+00
          2   -1    0    0  502    0  0.00000000000E+00  0.00000000000E+00  0.25763325151E+03  0.25763325151E+03  0.00000000000E+00 0. -1.
          1   -1    0    0  501    0 -0.00000000000E+00 -0.00000000000E+00 -0.69666579515E+03  0.69666579515E+03  0.00000000000E+00 0. -1.
         25    2    1    2    0    0 -0.13672767817E+03  0.67775819864E+02 -0.39843627315E+03  0.44459486781E+03  0.12500045193E+03 0.  0.
          2    1    1    2  501    0  0.95631728952E+01 -0.40413743571E+02 -0.25530876780E+03  0.25866443872E+03  0.00000000000E+00 0. -1.
          1    1    1    2  502    0  0.12716450528E+03 -0.27362076293E+02  0.21471249731E+03  0.25103974013E+03  0.00000000000E+00 0. -1.
         22    1    3    3    0    0 -0.10822924689E+03  0.10066052660E+03 -0.25539256647E+03  0.29507875984E+03  0.00000000000E+00 0.  1.
         22    1    3    3    0    0 -0.28498431280E+02 -0.32884706733E+02 -0.14304370668E+03  0.14951610797E+03  0.00000000000E+00 0.  1.
</event>
<event>
 7    1  0.6315518E-006  0.5052368E+02  0.7818608E-02  0.1577585E+00
          2   -1    0    0  502    0  0.00000000000E+00  0.00000000000E+00  0.66983814121E+03  0.66983814121E+03  0.00000000000E+00 0. -1.
          1   -1    0    0  501    0 -0.00000000000E+00 -0.00000000000E+00 -0.39693154920E+02  0.39693154920E+02  0.00000000000E+00 0. -1.
         25    2    1    2    0    0  0.23071037936E+02 -0.49873484607E+02  0.27828239260E+03  0.30997745760E+03  0.12500118772E+03 0.  0.
          2    1    1    2  501    0  0.13421661362E+02  0.15085237363E+02 -0.17528067697E+02  0.26738334600E+02  0.00000000000E+00 0. -1.
          1    1    1    2  502    0 -0.36492699298E+02  0.34788247244E+02  0.36939066139E+03  0.37281550393E+03  0.00000000000E+00 0. -1.
         22    1    3    3    0    0  0.53330391102E+02 -0.46424441656E+02  0.26900251658E+03  0.27813973705E+03  0.00000000000E+00 0.  1.
         22    1    3    3    0    0 -0.30259353166E+02 -0.34490429508E+01  0.92798760220E+01  0.31837720557E+02  0.00000000000E+00 0.  1.
</event>
<event>
 7    1  0.6315518E-006  0.8837900E+02  0.7818608E-02  0.1462188E+00
          2   -1    0    0  502    0  0.00000000000E+00  0.00000000000E+00  0.34916897245E+03  0.34916897245E+03  0.00000000000E+00 0. -1.
          1   -1    0    0  501    0 -0.00000000000E+00 -0.00000000000E+00 -0.12471083315E+04  0.12471083315E+04  0.00000000000E+00 0. -1.
         25    2    1    2    0    0 -0.20946277792E+02 -0.71947501645E+02 -0.46825014182E+03  0.49040667679E+03  0.12500129510E+03 0.  0.
          2    1    1    2  501    0  0.44358534130E+02  0.80720529539E+02 -0.76454986436E+03  0.77007790419E+03  0.00000000000E+00 0. -1.
          1    1    1    2  502    0 -0.23412256337E+02 -0.87730278945E+01  0.33486064715E+03  0.33579272294E+03  0.00000000000E+00 0. -1.
         22    1    3    3    0    0 -0.37745671908E+02 -0.10337066003E+03 -0.34742586615E+03  0.36443787066E+03  0.00000000000E+00 0.  1.
         22    1    3    3    0    0  0.16799394115E+02  0.31423158384E+02 -0.12082427567E+03  0.12596880613E+03  0.00000000000E+00 0.  1.
</event>
<event>
 7    1  0.6315518E-006  0.6688498E+02  0.7818608E-02  0.1433075E+00
          2   -1    0    0  502    0  0.00000000000E+00  0.00000000000E+00  0.63421614127E+03  0.63421614127E+03  0.00000000000E+00 0. -1.
          1   -1    0    0  501    0 -0.00000000000E+00 -0.00000000000E+00 -0.12830317170E+03  0.12830317170E+03  0.00000000000E+00 0. -1.
         25    2    1    2    0    0  0.40082062464E+02 -0.11851684608E+02 -0.20972391198E+02  0.13345789702E+03  0.12499653965E+03 0.  0.
          2    1    1    2  501    0 -0.81051148466E+02  0.12128402152E+02 -0.16947454270E+02  0.83687532002E+02  0.00000000000E+00 0. -1.
          1    1    1    2  502    0  0.40969086002E+02 -0.27671754356E+00  0.54383281504E+03  0.54537388395E+03  0.00000000000E+00 0. -1.
         22    1    3    3    0    0 -0.15991800836E+02  0.43260224593E+02 -0.28912975875E+02  0.54434776565E+02  0.00000000000E+00 0.  1.
         22    1    3    3    0    0  0.56073863300E+02 -0.55111909201E+02  0.79405846769E+01  0.79023120453E+02  0.00000000000E+00 0.  1.
</event>
<event>
 7    1  0.6315518E-006  0.1177574E+03  0.7818608E-02  0.1308377E+00
          2   -1    0    0  502    0  0.00000000000E+00  0.00000000000E+00  0.47946169892E+03  0.47946169892E+03  0.00000000000E+00 0. -1.
          1   -1    0    0  501    0 -0.00000000000E+00 -0.00000000000E+00 -0.66804446410E+03  0.66804446410E+03  0.00000000000E+00 0. -1.
         25    2    1    2    0    0  0.12646391015E+03  0.32683556148E+02 -0.16416581093E+03  0.24420602176E+03  0.12499932870E+03 0.  0.
          2    1    1    2  501    0 -0.12824701433E+02 -0.64129494109E+02 -0.45356143804E+03  0.45825216099E+03  0.00000000000E+00 0. -1.
          1    1    1    2  502    0 -0.11363920872E+03  0.31445937961E+02  0.42914448378E+03  0.44504798026E+03  0.00000000000E+00 0. -1.
         22    1    3    3    0    0  0.89261349719E+02  0.51088107369E+02 -0.17347299661E+03  0.20166919403E+03  0.00000000000E+00 0. -1.
         22    1    3    3    0    0  0.37202560436E+02 -0.18404551221E+02  0.93071856812E+01  0.42536827737E+02  0.00000000000E+00 0. -1.
</event>
