<event>
 7    1  0.5127424E-006  0.4824147E+02  0.7818608E-02  0.1489145E+00
          2   -1    0    0  502    0  0.00000000000E+00  0.00000000000E+00  0.27784347454E+04  0.27784347454E+04  0.00000000000E+00 0. -1.
          1   -1    0    0  501    0 -0.00000000000E+00 -0.00000000000E+00 -0.68898699205E+02  0.68898699205E+02  0.00000000000E+00 0. -1.
         25    2    1    2    0    0  0.42207582233E+02  0.29678631438E+02  0.14917916372E+04  0.14979079034E+04  0.12499398829E+03 0.  0.
          2    1    1    2  501    0  0.69159724883E+01 -0.37180583916E+02 -0.59886771505E+02  0.70828326940E+02  0.00000000000E+00 0. -1.
          1    1    1    2  502    0 -0.49123554721E+02  0.75019524778E+01  0.12776311804E+04  0.12785972142E+04  0.00000000000E+00 0. -1.
         22    1    3    3    0    0 -0.69938555217E+01 -0.38474125019E+02  0.22842610410E+03  0.23174912588E+03  0.00000000000E+00 0.  1.
         22    1    3    3    0    0  0.49201437755E+02  0.68152756457E+02  0.12633655331E+04  0.12661587776E+04  0.00000000000E+00 0.  1.
</event>
<event>
 7    1  0.5127424E-006  0.8507955E+02  0.7818608E-02  0.1482007E+00
          2   -1    0    0  502    0  0.00000000000E+00  0.00000000000E+00  0.14051553417E+03  0.14051553417E+03  0.00000000000E+00 0. -1.
          1   -1    0    0  501    0 -0.00000000000E+00 -0.00000000000E+00 -0.83294980943E+03  0.83294980943E+03  0.00000000000E+00 0. -1.
         25    2    1    2    0    0 -0.70501378018E+02  0.57121159477E+02 -0.13250142653E+02  0.15502659770E+03  0.12499763419E+03 0.  0.
          2    1    1    2  501    0  0.50817262511E+02 -0.68110023664E+02 -0.74450398437E+03  0.74933807606E+03  0.00000000000E+00 0. -1.
          1    1    1    2  502    0  0.19684115507E+02  0.10988864187E+02  0.65319851756E+02  0.69100669844E+02  0.00000000000E+00 0. -1.
         22    1    3    3    0    0 -0.28360352119E+02 -0.39380681639E+02 -0.10691953058E+02  0.49693717096E+02  0.00000000000E+00 0. -1.
         22    1    3    3    0    0 -0.42141025899E+02  0.96501841116E+02 -0.25581895949E+01  0.10533288061E+03  0.00000000000E+00 0. -1.
</event>
<event>
 7    1  0.5127424E-006  0.5173442E+02  0.7818608E-02  0.1540908E+00
          2   -1    0    0  502    0  0.00000000000E+00  0.00000000000E+00  0.11737373970E+04  0.11737373970E+04  0.00000000000E+00 0. -1.
          1   -1    0    0  501    0 -0.00000000000E+00 -0.00000000000E+00 -0.41935663085E+03  0.41935663085E+03  0.00000000000E+00 0. -1.
         25    2    1    2    0    0  0.65004349712E+02  0.40239082109E+02 -0.20462100712E+03  0.25166727222E+03  0.12498763995E+03 0.  0.
          2    1    1    2  501    0 -0.20100525399E+02 -0.14673400858E+02 -0.18981954356E+03  0.19144398380E+03  0.00000000000E+00 0. -1.
          1    1    1    2  502    0 -0.44903824313E+02 -0.25565681251E+02  0.11488213168E+04  0.11499827718E+04  0.00000000000E+00 0. -1.
         22    1    3    3    0    0  0.60887532253E+02  0.60991006097E+02 -0.21232756698E+03  0.22915102031E+03  0.00000000000E+00 0.  1.
         22    1    3    3    0    0  0.41168174582E+01 -0.20751923988E+02  0.77065598586E+01  0.22516251910E+02  0.00000000000E+00 0.  1.
</event>
<event>
 7    1  0.5127424E-006  0.1996127E+03  0.7818608E-02  0.1262770E+00
          2   -1    0    0  502    0  0.00000000000E+00  0.00000000000E+00  0.10272445156E+04  0.10272445156E+04  0.00000000000E+00 0. -1.
          1   -1    0    0  501    0 -0.00000000000E+00 -0.00000000000E+00 -0.77765967635E+03  0.77765967635E+03  0.00000000000E+00 0. -1.
         25    2    1    2    0    0 -0.14453348795E+03 -0.77553685817E+02 -0.58561837640E+03  0.62086891691E+03  0.12499930357E+03 0.  0.
          2    1    1    2  501    0 -0.17125684472E+01 -0.59299698765E+02 -0.15907855920E+03  0.16978037331E+03  0.00000000000E+00 0. -1.
          1    1    1    2  502    0  0.14624605640E+03  0.13685338458E+03  0.99428177489E+03  0.10142549018E+04  0.00000000000E+00 0. -1.
         22    1    3    3    0    0 -0.10672617005E+01 -0.33173436360E+01 -0.23284041244E+03  0.23286648853E+03  0.00000000000E+00 0.  1.
         22    1    3    3    0    0 -0.14346622625E+03 -0.74236342181E+02 -0.35277796396E+03  0.38800242838E+03  0.00000000000E+00 0.  1.
</event>
<event>
 7    1  0.5127424E-006  0.9433202E+02  0.7818608E-02  0.1362818E+00
          2   -1    0    0  502    0  0.00000000000E+00  0.00000000000E+00  0.25353807404E+04  0.25353807404E+04  0.00000000000E+00 0. -1.
          1   -1    0    0  501    0 -0.00000000000E+00 -0.00000000000E+00 -0.48174262910E+02  0.48174262910E+02  0.00000000000E+00 0. -1.
         25    2    1    2    0    0 -0.93704357097E+02  0.75423479985E+02  0.51922034161E+03  0.54742369761E+03  0.12495492664E+03 0.  0.
          2    1    1    2  501    0  0.43295378605E+02 -0.81472920835E+02  0.29332275490E+02  0.96812752380E+02  0.00000000000E+00 0. -1.
          1    1    1    2  502    0  0.50408978492E+02  0.60494408493E+01  0.19386538604E+04  0.19393185533E+04  0.00000000000E+00 0. -1.
         22    1    3    3    0    0 -0.75933621578E+01  0.92760783350E+01 -0.43193507437E+01  0.12742117916E+02  0.00000000000E+00 0.  1.
         22    1    3    3    0    0 -0.86110994939E+02  0.66147401650E+02  0.52353969235E+03  0.53468157969E+03  0.00000000000E+00 0.  1.
</event>
<event>
 7    1  0.5127424E-006  0.1458714E+03  0.7818608E-02  0.1219835E+00
          2   -1    0    0  502    0  0.00000000000E+00  0.00000000000E+00  0.12216839481E+04  0.12216839481E+04  0.00000000000E+00 0. -1.
          1   -1    0    0  501    0 -0.00000000000E+00 -0.00000000000E+00 -0.27387140544E+03  0.27387140544E+03  0.00000000000E+00 0. -1.
         25    2    1    2    0    0  0.98320869786E+02  0.32436505700E+02  0.29116080344E+03  0.33334474211E+03  0.12499993318E+03 0.  0.
          2    1    1    2  501    0 -0.44225013406E+02 -0.14561735121E+03 -0.22502466305E+03  0.27165486148E+03  0.00000000000E+00 0. -1.
          1    1    1    2  502    0 -0.54095856380E+02  0.11318084551E+03  0.88167640229E+03  0.89055574998E+03  0.00000000000E+00 0. -1.
         22    1    3    3    0    0  0.12579322718E+03  0.41094411673E+02  0.25314951546E+03  0.28565252292E+03  0.00000000000E+00 0.  1.
         22    1    3    3    0    0 -0.27472357399E+02 -0.86579059732E+01  0.38011287987E+02  0.47692219191E+02  0.00000000000E+00 0.  1.
</event>
<event>
 7    1  0.5127424E-006  0.8145169E+02  0.7818608E-02  0.1367388E+00
          2   -1    0    0  502    0  0.00000000000E+00  0.00000000000E+00  0.68835104924E+03  0.68835104924E+03  0.00000000000E+00 0. -1.
          1   -1    0    0  501    0 -0.00000000000E+00 -0.00000000000E+00 -0.37964322790E+03  0.37964322790E+03  0.00000000000E+00 0. -1.
         25    2    1    2    0    0  0.99294027205E+02  0.93036142702E+02  0.17046852505E+03  0.25140145355E+03  0.12501257988E+03 0.  0.
          2    1    1    2  501    0 -0.53469553525E+02 -0.59813389875E+02 -0.33271412151E+03  0.34225037826E+03  0.00000000000E+00 0. -1.
          1    1    1    2  502    0 -0.45824473680E+02 -0.33222752827E+02  0.47095341780E+03  0.47434244532E+03  0.00000000000E+00 0. -1.
         22    1    3    3    0    0 -0.95530757770E+01 -0.18360790177E+02  0.27278405164E+00  0.20699137273E+02  0.00000000000E+00 0. -1.
         22    1    3    3    0    0  0.10884710298E+03  0.11139693288E+03  0.17019574100E+03  0.23070231628E+03  0.00000000000E+00 0. -1.
</event>
<event>
 7    1  0.5127424E-006  0.9449834E+02  0.7818608E-02  0.1395342E+00
          2   -1    0    0  502    0  0.00000000000E+00  0.00000000000E+00  0.33453446401E+03  0.33453446401E+03  0.00000000000E+00 0. -1.
          1   -1    0    0  501    0 -0.00000000000E+00 -0.00000000000E+00 -0.18587689583E+03  0.18587689583E+03  0.00000000000E+00 0. -1.
         25    2    1    2    0    0 -0.39891213898E+01 -0.82245082084E+02  0.11230573461E+03  0.18713022200E+03  0.12499990137E+03 0.  0.
          2    1    1    2  501    0  0.36611579629E+02 -0.13021049782E+02 -0.13173125209E+03  0.13734292220E+03  0.00000000000E+00 0. -1.
          1    1    1    2  502    0 -0.32622458240E+02  0.95266131866E+02  0.16808308566E+03  0.19593821564E+03  0.00000000000E+00 0. -1.
         22    1    3    3    0    0 -0.44365633630E+02  0.98537344298E+01  0.16824184103E+02  0.48460898675E+02  0.00000000000E+00 0. -1.
         22    1    3    3    0    0  0.40376512241E+02 -0.92098816514E+02  0.95481550507E+02  0.13866932332E+03  0.00000000000E+00 0. -1.
</event>
<event>
 7    1  0.5127424E-006  0.1158003E+03  0.7818608E-02  0.1428372E+00
          2   -1    0    0  502    0  0.00000000000E+00  0.00000000000E+00  0.54863564912E+03  0.54863564912E+03  0.00000000000E+00 0. -1.
          1   -1    0    0  501    0 -0.00000000000E+00 -0.00000000000E+00 -0.33782458030E+03  0.33782458030E+03  0.00000000000E+00 0. -1.
         25    2    1    2    0    0 -0.12668547959E+02  0.13582315217E+03  0.34051477848E+02  0.18813128580E+03  0.12500182711E+03 0.  0.
          2    1    1    2  501    0  0.18538631302E+02 -0.11201434371E+03 -0.24805652911E+03  0.27280567385E+03  0.00000000000E+00 0. -1.
          1    1    1    2  502    0 -0.58700833426E+01 -0.23808808456E+02  0.42481612008E+03  0.42552326978E+03  0.00000000000E+00 0. -1.
         22    1    3    3    0    0 -0.32516065164E+02  0.11053141469E+03  0.73939658629E+02  0.13689982193E+03  0.00000000000E+00 0.  1.
         22    1    3    3    0    0  0.19847517205E+02  0.25291737478E+02 -0.39888180781E+02  0.51231463867E+02  0.00000000000E+00 0.  1.
</event>
<event>
 7    1  0.5127424E-006  0.9446814E+02  0.7818608E-02  0.1454519E+00
          2   -1    0    0  502    0  0.00000000000E+00  0.00000000000E+00  0.57323925199E+03  0.57323925199E+03  0.00000000000E+00 0. -1.
          1   -1    0    0  501    0 -0.00000000000E+00 -0.00000000000E+00 -0.25731092203E+04  0.25731092203E+04  0.00000000000E+00 0. -1.
         25    2    1    2    0    0 -0.54188995540E+02 -0.45303997404E+02  0.50226808951E+03  0.52238645378E+03  0.12500189575E+03 0.  0.
          2    1    1    2  501    0  0.77065306166E+02  0.54707468239E+02 -0.25596306785E+04  0.25613748610E+04  0.00000000000E+00 0. -1.
          1    1    1    2  502    0 -0.22876310625E+02 -0.94034708352E+01  0.57492620658E+02  0.62587157482E+02  0.00000000000E+00 0. -1.
         22    1    3    3    0    0 -0.57671191955E+01 -0.12916911515E+02  0.42687531989E+03  0.42710964049E+03  0.00000000000E+00 0.  1.
         22    1    3    3    0    0 -0.48421876345E+02 -0.32387085889E+02  0.75392769620E+02  0.95276813297E+02  0.00000000000E+00 0.  1.
</event>
<event>
 7    1  0.5127424E-006  0.1384033E+03  0.7818608E-02  0.1362327E+00
          2   -1    0    0  502    0  0.00000000000E+00  0.00000000000E+00  0.15641149797E+04  0.15641149797E+04  0.00000000000E+00 0. -1.
          1   -1    0    0  501    0 -0.00000000000E+00 -0.00000000000E+00 -0.39376768247E+03  0.39376768247E+03  0.00000000000E+00 0. -1.
         25    2    1    2    0    0 -0.29843987323E+02  0.10179971203E+03  0.15050627520E+03  0.22255547635E+03  0.12499982493E+03 0.  0.
          2    1    1    2  501    0  0.41062492569E+02 -0.13468539161E+03 -0.34365806303E+03  0.37138544303E+03  0.00000000000E+00 0. -1.
          1    1    1    2  502    0 -0.11218505246E+02  0.32885679580E+02  0.13634990851E+04  0.13639417428E+04  0.00000000000E+00 0. -1.
         22    1    3    3    0    0 -0.50108013277E+02  0.52641330940E+02  0.15293878331E+03  0.16932865722E+03  0.00000000000E+00 0.  1.
         22    1    3    3    0    0  0.20264025953E+02  0.49158381088E+02 -0.24325081044E+01  0.53226819130E+02  0.00000000000E+00 0.  1.
</event>
<event>
 7    1  0.5127424E-006  0.6128787E+02  0.7818608E-02  0.1421801E+00
          2   -1    0    0  502    0  0.00000000000E+00  0.00000000000E+00  0.21117656328E+04  0.21117656328E+04  0.00000000000E+00 0. -1.
          1   -1    0    0  501    0 -0.00000000000E+00 -0.00000000000E+00 -0.39406816928E+03  0.39406816928E+03  0.00000000000E+00 0. -1.
         25    2    1    2    0    0  0.62780184236E+02  0.10043819756E+02  0.58522796670E+03  0.60179677934E+03  0.12500144306E+03 0.  0.
          2    1    1    2  501    0 -0.12459061675E+02 -0.47096026748E+02 -0.38359956783E+03  0.38668060772E+03  0.00000000000E+00 0. -1.
          1    1    1    2  502    0 -0.50321122561E+02  0.37052206992E+02  0.15160690646E+04  0.15173564150E+04  0.00000000000E+00 0. -1.
         22    1    3    3    0    0  0.76456340768E+02  0.18125752031E+02  0.18177231066E+03  0.19802850262E+03  0.00000000000E+00 0. -1.
         22    1    3    3    0    0 -0.13676156532E+02 -0.80819322753E+01  0.40345565604E+03  0.40376827671E+03  0.00000000000E+00 0. -1.
</event>
<event>
 7    1  0.5127424E-006  0.7418234E+02  0.7818608E-02  0.1480955E+00
          2   -1    0    0  502    0  0.00000000000E+00  0.00000000000E+00  0.11452940541E+04  0.11452940541E+04  0.00000000000E+00 0. -1.
          1   -1    0    0  501    0 -0.00000000000E+00 -0.00000000000E+00 -0.92580439850E+02  0.92580439850E+02  0.00000000000E+00 0. -1.
         25    2    1    2    0    0 -0.74748790491E+02 -0.60209841893E+02  0.13350410919E+03  0.20655293141E+03  0.12501263761E+03 0.  0.
          2    1    1    2  501    0  0.50730194524E+02  0.50130301120E+02 -0.33120314405E+02  0.78635583250E+02  0.00000000000E+00 0. -1.
          1    1    1    2  502    0  0.24018595967E+02  0.10079540773E+02  0.95232981946E+03  0.95268597928E+03  0.00000000000E+00 0. -1.
         22    1    3    3    0    0  0.19040909849E+02 -0.60848586542E+02  0.56821654254E+02  0.85403788699E+02  0.00000000000E+00 0. -1.
         22    1    3    3    0    0 -0.93789700339E+02  0.63874464920E+00  0.76682454939E+02  0.12114914271E+03  0.00000000000E+00 0. -1.
</event>
<event>
 7    1  0.5127424E-006  0.1354012E+03  0.7818608E-02  0.1261213E+00
          2   -1    0    0  502    0  0.00000000000E+00  0.00000000000E+00  0.84758200332E+03  0.84758200332E+03  0.00000000000E+00 0. -1.
          1   -1    0    0  501    0 -0.00000000000E+00 -0.00000000000E+00 -0.95286109706E+02  0.95286109706E+02  0.00000000000E+00 0. -1.
         25    2    1    2    0    0 -0.68078672717E+02  0.39398434141E+02  0.16920707209E+03  0.22458192543E+03  0.12497626053E+03 0.  0.
          2    1    1    2  501    0  0.15110661620E+03 -0.70895625428E+02  0.44933900653E+02  0.17285385327E+03  0.00000000000E+00 0. -1.
          1    1    1    2  502    0 -0.83027943483E+02  0.31497191287E+02  0.53815492088E+03  0.54543233432E+03  0.00000000000E+00 0. -1.
         22    1    3    3    0    0 -0.29560956228E+02  0.67235773056E+02  0.16016895452E+03  0.17620611029E+03  0.00000000000E+00 0. -1.
         22    1    3    3    0    0 -0.38517716488E+02 -0.27837338915E+02  0.90381175636E+01  0.48375815140E+02  0.00000000000E+00 0. -1.
</event>
<event>
 7    1  0.5127424E-006  0.8727238E+02  0.7818608E-02  0.1415313E+00
          2   -1    0    0  502    0  0.00000000000E+00  0.00000000000E+00  0.78169044536E+03  0.78169044536E+03  0.00000000000E+00 0. -1.
          1   -1    0    0  501    0 -0.00000000000E+00 -0.00000000000E+00 -0.46350677752E+03  0.46350677752E+03  0.00000000000E+00 0. -1.
         25    2    1    2    0    0  0.75185665097E+02  0.82279178329E+02  0.32362987719E+03  0.36439546228E+03  0.12500003240E+03 0.  0.
          2    1    1    2  501    0 -0.73651818656E+02 -0.46346327652E+02 -0.43809836288E+03  0.44665730492E+03  0.00000000000E+00 0. -1.
          1    1    1    2  502    0 -0.15338464409E+01 -0.35932850677E+02  0.43265215354E+03  0.43414445568E+03  0.00000000000E+00 0. -1.
         22    1    3    3    0    0  0.45671799515E+02  0.76321847320E+02  0.32220148033E+03  0.33425249673E+03  0.00000000000E+00 0.  1.
         22    1    3    3    0    0  0.29513865582E+02  0.59573310084E+01  0.14283968625E+01  0.30142965546E+02  0.00000000000E+00 0.  1.
</event>
<event>
 7    1  0.5127424E-006  0.1120279E+03  0.7818608E-02  0.1335265E+00
          2   -1    0    0  502    0  0.00000000000E+00  0.00000000000E+00  0.14923661770E+04  0.14923661770E+04  0.00000000000E+00 0. -1.
          1   -1    0    0  501    0 -0.00000000000E+00 -0.00000000000E+00 -0.30585718325E+03  0.30585718325E+03  0.00000000000E+00 0. -1.
         25    2    1    2    0    0  0.91051489679E+02  0.72840676975E+02 -0.77336325097E+02  0.18762438713E+03  0.12500346184E+03 0.  0.
          2    1    1    2  501    0 -0.45303876332E+02  0.29569180528E+02 -0.16690757520E+03  0.17545630883E+03  0.00000000000E+00 0. -1.
          1    1    1    2  502    0 -0.45747613347E+02 -0.10240985750E+03  0.14307528941E+04  0.14351426643E+04  0.00000000000E+00 0. -1.
         22    1    3    3    0    0  0.86577659843E+01  0.86848244440E+02 -0.36465822422E+02  0.94590330790E+02  0.00000000000E+00 0. -1.
         22    1    3    3    0    0  0.82393723694E+02 -0.14007567464E+02 -0.40870502675E+02  0.93034056342E+02  0.00000000000E+00 0. -1.
</event>
<event>
 7    1  0.5127424E-006  0.9151079E+02  0.7818608E-02  0.1345974E+00
          2   -1    0    0  502    0  0.00000000000E+00  0.00000000000E+00  0.26137269948E+03  0.26137269948E+03  0.00000000000E+00 0. -1.
          1   -1    0    0  501    0 -0.00000000000E+00 -0.00000000000E+00 -0.45281991008E+03  0.45281991008E+03  0.00000000000E+00 0. -1.
         25    2    1    2    0    0 -0.48961846356E+02  0.78342319793E+00 -0.75281029717E+02  0.15391619049E+03  0.12500033644E+03 0.  0.
          2    1    1    2  501    0  0.91227890384E+02  0.42317780927E+02 -0.32640330898E+03  0.34154420311E+03  0.00000000000E+00 0. -1.
          1    1    1    2  502    0 -0.42266044027E+02 -0.43101204125E+02  0.21023712809E+03  0.21873221597E+03  0.00000000000E+00 0. -1.
         22    1    3    3    0    0 -0.47522319718E+02  0.24893991053E+02  0.18752023591E+02  0.56830625993E+02  0.00000000000E+00 0.  1.
         22    1    3    3    0    0 -0.14395266383E+01 -0.24110567855E+02 -0.94033053308E+02  0.97085564497E+02  0.00000000000E+00 0.  1.
</event>
<event>
 7    1  0.5127424E-006  0.1353085E+03  0.7818608E-02  0.1407682E+00
          2   -1    0    0  502    0  0.00000000000E+00  0.00000000000E+00  0.40367021600E+03  0.40367021600E+03  0.00000000000E+00 0. -1.
          1   -1    0    0  501    0 -0.00000000000E+00 -0.00000000000E+00 -0.87285244963E+03  0.87285244963E+03  0.00000000000E+00 0. -1.
         25    2    1    2    0    0 -0.76691345830E+02  0.11930132750E+03  0.54230313427E+01  0.18912437762E+03  0.12499700665E+03 0.  0.
          2    1    1    2  501    0 -0.14204527065E+02 -0.20105895983E+02 -0.76602460224E+03  0.76642005903E+03  0.00000000000E+00 0. -1.
          1    1    1    2  502    0  0.90895872895E+02 -0.99195431520E+02  0.29141933727E+03  0.32097822898E+03  0.00000000000E+00 0. -1.
         22    1    3    3    0    0 -0.26747614009E+02 -0.84551581343E+01  0.38868428396E+02  0.47934113951E+02  0.00000000000E+00 0. -1.
         22    1    3    3    0    0 -0.49943731821E+02  0.12775648564E+03 -0.33445397053E+02  0.14119026367E+03  0.00000000000E+00 0. -1.
</event>
<event>
 7    1  0.5127424E-006  0.6512714E+02  0.7818608E-02  0.1420947E+00
          2   -1    0    0  502    0  0.00000000000E+00  0.00000000000E+00  0.29967972933E+04  0.29967972933E+04  0.00000000000E+00 0. -1.
          1   -1    0    0  501    0 -0.00000000000E+00 -0.00000000000E+00 -0.17231094032E+03  0.17231094032E+03  0.00000000000E+00 0. -1.
         25    2    1    2    0    0 -0.31383625375E+02 -0.10288732988E+03  0.40982314049E+02  0.16992634046E+03  0.12499870609E+03 0.  0.
          2    1    1    2  501    0  0.20807654227E+02  0.57969803199E+02 -0.98844890582E+02  0.11646359496E+03  0.00000000000E+00 0. -1.
          1    1    1    2  502    0  0.10575971148E+02  0.44917526682E+02  0.28823489295E+04  0.28827182982E+04  0.00000000000E+00 0. -1.
         22    1    3    3    0    0 -0.36199194534E+02 -0.61393111409E+02  0.83866667274E+02  0.11005959155E+03  0.00000000000E+00 0.  1.
         22    1    3    3    0    0  0.48155691587E+01 -0.41494218472E+02 -0.42884353225E+02  0.59866748905E+02  0.00000000000E+00 0.  1.
</event>
<event>
 7    1  0.5127424E-006  0.4383538E+02  0.7818608E-02  0.1498187E+00
          2   -1    0    0  502    0  0.00000000000E+00  0.00000000000E+00  0.89630590971E+03  0.89630590971E+03  0.00000000000E+00 0. -1.
          1   -1    0    0  501    0 -0.00000000000E+00 -0.00000000000E+00 -0.21337366540E+02  0.21337366540E+02  0.00000000000E+00 0. -1.
         25    2    1    2    0    0 -0.30311433961E+02  0.16528160431E+02  0.50259768806E+03  0.51905881577E+03  0.12500262026E+03 0.  0.
          2    1    1    2  501    0 -0.13458786347E+02 -0.36701307776E+02  0.21884942204E+02  0.44800397517E+02  0.00000000000E+00 0. -1.
          1    1    1    2  502    0  0.43770220309E+02  0.20173147345E+02  0.35048591290E+03  0.35378406295E+03  0.00000000000E+00 0. -1.
         22    1    3    3    0    0  0.29774644175E+02  0.46888408511E+02  0.14697180322E+03  0.15711703673E+03  0.00000000000E+00 0.  1.
         22    1    3    3    0    0 -0.60086078136E+02 -0.30360248079E+02  0.35562588484E+03  0.36194177904E+03  0.00000000000E+00 0.  1.
</event>
<event>
 7    1  0.5127424E-006  0.1303571E+03  0.7818608E-02  0.1291150E+00
          2   -1    0    0  502    0  0.00000000000E+00  0.00000000000E+00  0.25198490039E+03  0.25198490039E+03  0.00000000000E+00 0. -1.
          1   -1    0    0  501    0 -0.00000000000E+00 -0.00000000000E+00 -0.53304486140E+03  0.53304486140E+03  0.00000000000E+00 0. -1.
         25    2    1    2    0    0  0.15794548841E+03  0.79552765004E+02 -0.12177878950E+03  0.24845206330E+03  0.12499173755E+03 0.  0.
          2    1    1    2  501    0 -0.12154238820E+03 -0.20643299100E+02 -0.33003861811E+03  0.35231262733E+03  0.00000000000E+00 0. -1.
          1    1    1    2  502    0 -0.36403100209E+02 -0.58909465904E+02  0.17075744661E+03  0.18426507117E+03  0.00000000000E+00 0. -1.
         22    1    3    3    0    0 -0.19180899578E+02 -0.56651950591E+01 -0.11340178146E+02  0.22991324104E+02  0.00000000000E+00 0.  1.
         22    1    3    3    0    0  0.17712638799E+03  0.85217960063E+02 -0.11043861136E+03  0.22546073920E+03  0.00000000000E+00 0.  1.
</event>
<event>
 7    1  0.5127424E-006  0.5114113E+02  0.7818608E-02  0.1561279E+00
          2   -1    0    0  502    0  0.00000000000E+00  0.00000000000E+00  0.15447523432E+03  0.15447523432E+03  0.00000000000E+00 0. -1.
          1   -1    0    0  501    0 -0.00000000000E+00 -0.00000000000E+00 -0.29463553338E+03  0.29463553338E+03  0.00000000000E+00 0. -1.
         25    2    1    2    0    0  0.20302696821E+02  0.60004158348E+02 -0.42826241586E+02  0.14653409008E+03  0.12500181627E+03 0.  0.
          2    1    1    2  501    0 -0.19956661352E+02 -0.94750418399E+01 -0.19306681553E+03  0.19432663226E+03  0.00000000000E+00 0. -1.
          1    1    1    2  502    0 -0.34603546887E+00 -0.50529116508E+02  0.95732758053E+02  0.10825004536E+03  0.00000000000E+00 0. -1.
         22    1    3    3    0    0  0.13146388984E+02  0.98357789272E+02 -0.19666748239E+02  0.10116255849E+03  0.00000000000E+00 0.  1.
         22    1    3    3    0    0  0.71563078370E+01 -0.38353630924E+02 -0.23159493346E+02  0.45371531592E+02  0.00000000000E+00 0.  1.
</event>
<event>
 7    1  0.5127424E-006  0.6502459E+02  0.7818608E-02  0.1401288E+00
          2   -1    0    0  502    0  0.00000000000E+00  0.00000000000E+00  0.48449084748E+02  0.48449084748E+02  0.00000000000E+00 0. -1.
          1   -1    0    0  501    0 -0.00000000000E+00 -0.00000000000E+00 -0.10862425233E+04  0.10862425233E+04  0.00000000000E+00 0. -1.
         25    2    1    2    0    0  0.57931950935E+01 -0.65834454161E+02 -0.16323908816E+03  0.21596177782E+03  0.12499901245E+03 0.  0.
          2    1    1    2  501    0  0.48893420660E+02  0.22610545141E+02 -0.83854255703E+03  0.84027104156E+03  0.00000000000E+00 0. -1.
          1    1    1    2  502    0 -0.54686615753E+02  0.43223909020E+02 -0.36011793317E+02  0.78458788618E+02  0.00000000000E+00 0. -1.
         22    1    3    3    0    0  0.17594212407E+02  0.21224054003E+02 -0.10962850485E+03  0.11304169963E+03  0.00000000000E+00 0. -1.
         22    1    3    3    0    0 -0.11801017313E+02 -0.87058508164E+02 -0.53610583308E+02  0.10292007820E+03  0.00000000000E+00 0. -1.
</event>
<event>
 7    1  0.5127424E-006  0.6365080E+02  0.7818608E-02  0.1413977E+00
          2   -1    0    0  502    0  0.00000000000E+00  0.00000000000E+00  0.37305208419E+03  0.37305208419E+03  0.00000000000E+00 0. -1.
          1   -1    0    0  501    0 -0.00000000000E+00 -0.00000000000E+00 -0.81937241051E+03  0.81937241051E+03  0.00000000000E+00 0. -1.
         25    2    1    2    0    0 -0.92080758564E+02 -0.58166454559E+02  0.10098513603E+03  0.19412760918E+03  0.12500131365E+03 0.  0.
          2    1    1    2  501    0  0.38408086376E+02  0.31740357426E+02 -0.76801160038E+03  0.76962617530E+03  0.00000000000E+00 0. -1.
          1    1    1    2  502    0  0.53672672188E+02  0.26426097134E+02  0.22070613803E+03  0.22867071022E+03  0.00000000000E+00 0. -1.
         22    1    3    3    0    0  0.85804235360E+01 -0.60977866071E+02  0.19512108863E+02  0.64596023182E+02  0.00000000000E+00 0.  1.
         22    1    3    3    0    0 -0.10066118210E+03  0.28114115124E+01  0.81473027167E+02  0.12953158600E+03  0.00000000000E+00 0.  1.
</event>
<event>
 7    1  0.5127424E-006  0.6756893E+02  0.7818608E-02  0.1440489E+00
          2   -1    0    0  502    0  0.00000000000E+00  0.00000000000E+00  0.45587009748E+03  0.45587009748E+03  0.00000000000E+00 0. -1.
          1   -1    0    0  501    0 -0.00000000000E+00 -0.00000000000E+00 -0.52183634340E+03  0.52183634340E+03  0.00000000000E+00 0. -1.
         25    2    1    2    0    0  0.83902805286E+02 -0.60447303398E+02 -0.16329721733E+03  0.23018414329E+03  0.12500080563E+03 0.  0.
          2    1    1    2  501    0 -0.24256257290E+02  0.29717029447E+02 -0.32128310203E+03  0.32356498499E+03  0.00000000000E+00 0. -1.
          1    1    1    2  502    0 -0.59646547996E+02  0.30730273951E+02  0.41861407344E+03  0.42395731260E+03  0.00000000000E+00 0. -1.
         22    1    3    3    0    0  0.35072168041E+02  0.24773482276E+02 -0.41114227563E+01  0.43135671923E+02  0.00000000000E+00 0. -1.
         22    1    3    3    0    0  0.48830637245E+02 -0.85220785674E+02 -0.15918579458E+03  0.18704847137E+03  0.00000000000E+00 0. -1.
</event>
<event>
 7    1  0.5127424E-006  0.1809482E+03  0.7818608E-02  0.1353160E+00
          2   -1    0    0  502    0  0.00000000000E+00  0.00000000000E+00  0.22393613388E+04  0.22393613388E+04  0.00000000000E+00 0. -1.
          1   -1    0    0  501    0 -0.00000000000E+00 -0.00000000000E+00 -0.88557634745E+03  0.88557634745E+03  0.00000000000E+00 0. -1.
         25    2    1    2    0    0 -0.18671989531E+03  0.64089807354E+02  0.48875086849E+03  0.54173426690E+03  0.12500712688E+03 0.  0.
          2    1    1    2  501    0  0.16235105921E+03 -0.79274567765E+02 -0.84946395667E+03  0.86846493148E+03  0.00000000000E+00 0. -1.
          1    1    1    2  502    0  0.24368836096E+02  0.15184760411E+02  0.17144980795E+04  0.17147384879E+04  0.00000000000E+00 0. -1.
         22    1    3    3    0    0  0.11456813726E+02  0.11148889648E+02  0.10861532261E+03  0.10978544816E+03  0.00000000000E+00 0. -1.
         22    1    3    3    0    0 -0.19817670903E+03  0.52940917706E+02  0.38013554588E+03  0.43194881874E+03  0.00000000000E+00 0. -1.
</event>
<event>
 7    1  0.5127424E-006  0.5730797E+02  0.7818608E-02  0.1470549E+00
          2   -1    0    0  502    0  0.00000000000E+00  0.00000000000E+00  0.73773222781E+02  0.73773222781E+02  0.00000000000E+00 0. -1.
          1   -1    0    0  501    0 -0.00000000000E+00 -0.00000000000E+00 -0.65809398992E+03  0.65809398992E+03  0.00000000000E+00 0. -1.
         25    2    1    2    0    0 -0.49017242521E+02  0.38145440070E+02 -0.19665120320E+03  0.24116929059E+03  0.12503266109E+03 0.  0.
          2    1    1    2  501    0  0.32057266539E+02  0.17040786382E+02 -0.42197985896E+03  0.42353873271E+03  0.00000000000E+00 0. -1.
          1    1    1    2  502    0  0.16959975982E+02 -0.55186226452E+02  0.34310295028E+02  0.67159189395E+02  0.00000000000E+00 0. -1.
         22    1    3    3    0    0 -0.46221464443E+02  0.68939472389E+02 -0.19292895134E+03  0.21002536726E+03  0.00000000000E+00 0.  1.
         22    1    3    3    0    0 -0.27957780781E+01 -0.30794032319E+02 -0.37222518668E+01  0.31143923332E+02  0.00000000000E+00 0.  1.
</event>
<event>
 7    1  0.5127424E-006  0.6236194E+02  0.7818608E-02  0.1459276E+00
          2   -1    0    0  502    0  0.00000000000E+00  0.00000000000E+00  0.23560074435E+03  0.23560074435E+03  0.00000000000E+00 0. -1.
          1   -1    0    0  501    0 -0.00000000000E+00 -0.00000000000E+00 -0.52739312325E+03  0.52739312325E+03  0.00000000000E+00 0. -1.
         25    2    1    2    0    0  0.70714049519E+02  0.57794673756E+02 -0.70783143808E+02  0.17022936704E+03  0.12500833108E+03 0.  0.
          2    1    1    2  501    0 -0.55919773414E+02 -0.24767502068E+02 -0.40279492577E+03  0.40741158850E+03  0.00000000000E+00 0. -1.
          1    1    1    2  502    0 -0.14794276105E+02 -0.33027171687E+02  0.18178569068E+03  0.18535291206E+03  0.00000000000E+00 0. -1.
         22    1    3    3    0    0 -0.29500905317E+02 -0.95848504639E+01 -0.16102702382E+01  0.31060678408E+02  0.00000000000E+00 0.  1.
         22    1    3    3    0    0  0.10021495484E+03  0.67379524220E+02 -0.69172873570E+02  0.13916868863E+03  0.00000000000E+00 0.  1.
</event>
<event>
 7    1  0.5127424E-006  0.5435909E+02  0.7818608E-02  0.1464987E+00
          2   -1    0    0  502    0  0.00000000000E+00  0.00000000000E+00  0.17124867889E+03  0.17124867889E+03  0.00000000000E+00 0. -1.
          1   -1    0    0  501    0 -0.00000000000E+00 -0.00000000000E+00 -0.12914872069E+04  0.12914872069E+04  0.00000000000E+00 0. -1.
         25    2    1    2    0    0 -0.65043649317E+02  0.33582770270E+02 -0.37595305583E+03  0.40289706786E+03  0.12500747308E+03 0.  0.
          2    1    1    2  501    0  0.53661838619E+02  0.45916819270E+01 -0.89872870385E+03  0.90034102405E+03  0.00000000000E+00 0. -1.
          1    1    1    2  502    0  0.11381810698E+02 -0.38174452197E+02  0.15444323171E+03  0.15949779383E+03  0.00000000000E+00 0. -1.
         22    1    3    3    0    0 -0.54185216697E+02 -0.13889032572E+02 -0.33390509898E+03  0.33855805715E+03  0.00000000000E+00 0. -1.
         22    1    3    3    0    0 -0.10858432620E+02  0.47471802842E+02 -0.42047956851E+02  0.64339010712E+02  0.00000000000E+00 0. -1.
</event>
<event>
 7    1  0.5127424E-006  0.9734918E+02  0.7818608E-02  0.1291344E+00
          2   -1    0    0  502    0  0.00000000000E+00  0.00000000000E+00  0.18513604417E+03  0.18513604417E+03  0.00000000000E+00 0. -1.
          1   -1    0    0  501    0 -0.00000000000E+00 -0.00000000000E+00 -0.15221335436E+04  0.15221335436E+04  0.00000000000E+00 0. -1.
         25    2    1    2    0    0 -0.90707039812E+02 -0.49796974499E+02 -0.71928819491E+03  0.73736567180E+03  0.12500048349E+03 0.  0.
          2    1    1    2  501    0  0.89795281857E+02 -0.47547938310E+02 -0.77678640530E+03  0.78340354769E+03  0.00000000000E+00 0. -1.
          1    1    1    2  502    0  0.91175795521E+00  0.97344912809E+02  0.15907710081E+03  0.18650036824E+03  0.00000000000E+00 0. -1.
         22    1    3    3    0    0 -0.84904019579E+02 -0.60266962525E+02 -0.29370620480E+03  0.31161536235E+03  0.00000000000E+00 0.  1.
         22    1    3    3    0    0 -0.58030202328E+01  0.10469988027E+02 -0.42558199012E+03  0.42575030946E+03  0.00000000000E+00 0.  1.
</event>
<event>
 7    1  0.5127424E-006  0.4532919E+02  0.7818608E-02  0.1482079E+00
          2   -1    0    0  502    0  0.00000000000E+00  0.00000000000E+00  0.22978571294E+04  0.22978571294E+04  0.00000000000E+00 0. -1.
          1   -1    0    0  501    0 -0.00000000000E+00 -0.00000000000E+00 -0.65509320732E+02  0.65509320732E+02  0.00000000000E+00 0. -1.
         25    2    1    2    0    0  0.10156274656E+02  0.57199328192E+01  0.17019583454E+03  0.21149032967E+03  0.12500267958E+03 0.  0.
          2    1    1    2  501    0 -0.48653707373E+01 -0.47679218631E+02 -0.31787107502E+02  0.57509998479E+02  0.00000000000E+00 0. -1.
          1    1    1    2  502    0 -0.52909039185E+01  0.41959285812E+02  0.20939390816E+04  0.20943661220E+04  0.00000000000E+00 0. -1.
         22    1    3    3    0    0  0.45973918575E+02  0.97576249531E+00  0.16920935385E+03  0.17534639640E+03  0.00000000000E+00 0.  1.
         22    1    3    3    0    0 -0.35817643920E+02  0.47441703239E+01  0.98648069288E+00  0.36143933269E+02  0.00000000000E+00 0.  1.
</event>
<event>
 7    1  0.5127424E-006  0.8640276E+02  0.7818608E-02  0.1428753E+00
          2   -1    0    0  502    0  0.00000000000E+00  0.00000000000E+00  0.54004583856E+03  0.54004583856E+03  0.00000000000E+00 0. -1.
          1   -1    0    0  501    0 -0.00000000000E+00 -0.00000000000E+00 -0.29032219095E+03  0.29032219095E+03  0.00000000000E+00 0. -1.
         25    2    1    2    0    0  0.50316378998E+02 -0.38570212348E+02  0.11869839892E+03  0.18366622519E+03  0.12499829237E+03 0.  0.
          2    1    1    2  501    0 -0.50969217285E+02  0.71333716073E+02 -0.24966126067E+03  0.26460745500E+03  0.00000000000E+00 0. -1.
          1    1    1    2  502    0  0.65283828756E+00 -0.32763503724E+02  0.38068650936E+03  0.38209434932E+03  0.00000000000E+00 0. -1.
         22    1    3    3    0    0  0.58420667610E+02  0.14002399274E+02  0.76828230888E+01  0.60564571823E+02  0.00000000000E+00 0. -1.
         22    1    3    3    0    0 -0.81042886124E+01 -0.52572611623E+02  0.11101557583E+03  0.12310165337E+03  0.00000000000E+00 0. -1.
</event>
<event>
 7    1  0.5127424E-006  0.7594904E+02  0.7818608E-02  0.1350455E+00
          2   -1    0    0  502    0  0.00000000000E+00  0.00000000000E+00  0.51921188461E+03  0.51921188461E+03  0.00000000000E+00 0. -1.
          1   -1    0    0  501    0 -0.00000000000E+00 -0.00000000000E+00 -0.11812039856E+04  0.11812039856E+04  0.00000000000E+00 0. -1.
         25    2    1    2    0    0  0.99442438629E+02  0.67161287432E+01  0.26846082021E+03  0.31245836054E+03  0.12500044041E+03 0.  0.
          2    1    1    2  501    0 -0.42309205715E+02 -0.55767098155E+02 -0.11519169438E+04  0.11540418899E+04  0.00000000000E+00 0. -1.
          1    1    1    2  502    0 -0.57133232914E+02  0.49050969412E+02  0.22146402259E+03  0.23391561984E+03  0.00000000000E+00 0. -1.
         22    1    3    3    0    0  0.11853174596E+03  0.31087993938E+02  0.24385502839E+03  0.27291301368E+03  0.00000000000E+00 0. -1.
         22    1    3    3    0    0 -0.19089307330E+02 -0.24371865195E+02  0.24605791817E+02  0.39545346861E+02  0.00000000000E+00 0. -1.
</event>
<event>
 7    1  0.5127424E-006  0.9673035E+02  0.7818608E-02  0.1473430E+00
          2   -1    0    0  502    0  0.00000000000E+00  0.00000000000E+00  0.34728337808E+03  0.34728337808E+03  0.00000000000E+00 0. -1.
          1   -1    0    0  501    0 -0.00000000000E+00 -0.00000000000E+00 -0.95850112136E+03  0.95850112136E+03  0.00000000000E+00 0. -1.
         25    2    1    2    0    0 -0.53038701351E+02  0.90905608437E+02  0.46802451236E+01  0.16346834230E+03  0.12499224277E+03 0.  0.
          2    1    1    2  501    0  0.31968483659E+02 -0.91072027384E+02 -0.87603049087E+03  0.88133167369E+03  0.00000000000E+00 0. -1.
          1    1    1    2  502    0  0.21070217693E+02  0.16641894701E+00  0.26013250246E+03  0.26098448346E+03  0.00000000000E+00 0. -1.
         22    1    3    3    0    0  0.37614330724E+02  0.53311250488E+02  0.71530626084E+00  0.65249053384E+02  0.00000000000E+00 0.  1.
         22    1    3    3    0    0 -0.90653032076E+02  0.37594357949E+02  0.39649388628E+01  0.98219288912E+02  0.00000000000E+00 0.  1.
</event>
<event>
 7    1  0.5127424E-006  0.4868594E+02  0.7818608E-02  0.1484427E+00
          2   -1    0    0  502    0  0.00000000000E+00  0.00000000000E+00  0.21640144039E+04  0.21640144039E+04  0.00000000000E+00 0. -1.
          1   -1    0    0  501    0 -0.00000000000E+00 -0.00000000000E+00 -0.22156966026E+03  0.22156966026E+03  0.00000000000E+00 0. -1.
         25    2    1    2    0    0 -0.84536673645E+01  0.12133551420E+02  0.20356687149E+02  0.12751183258E+03  0.12500474061E+03 0.  0.
          2    1    1    2  501    0 -0.38725010557E+02  0.67090642263E+00 -0.16546976231E+03  0.16994210425E+03  0.00000000000E+00 0. -1.
          1    1    1    2  502    0  0.47178677922E+02 -0.12804457843E+02  0.20875578188E+04  0.20881301273E+04  0.00000000000E+00 0. -1.
         22    1    3    3    0    0  0.31975077893E+02  0.21086297943E+02  0.59348468753E+02  0.70634823640E+02  0.00000000000E+00 0. -1.
         22    1    3    3    0    0 -0.40428745257E+02 -0.89527465232E+01 -0.38991781604E+02  0.56877008941E+02  0.00000000000E+00 0. -1.
</event>
<event>
 7    1  0.5127424E-006  0.1108650E+03  0.7818608E-02  0.1323211E+00
          2   -1    0    0  502    0  0.00000000000E+00  0.00000000000E+00  0.20921564013E+04  0.20921564013E+04  0.00000000000E+00 0. -1.
          1   -1    0    0  501    0 -0.00000000000E+00 -0.00000000000E+00 -0.69289706359E+03  0.69289706359E+03  0.00000000000E+00 0. -1.
         25    2    1    2    0    0 -0.61973474124E+02 -0.54207272398E+02  0.54892514406E+03  0.56896623566E+03  0.12499849465E+03 0.  0.
          2    1    1    2  501    0 -0.54379013848E+02  0.27172155884E+02 -0.67919032483E+03  0.68190534574E+03  0.00000000000E+00 0. -1.
          1    1    1    2  502    0  0.11635248797E+03  0.27035116514E+02  0.15295245185E+04  0.15341818835E+04  0.00000000000E+00 0. -1.
         22    1    3    3    0    0 -0.29798056058E+02 -0.46775474044E+02  0.71925142003E+02  0.90824529556E+02  0.00000000000E+00 0. -1.
         22    1    3    3    0    0 -0.32175418065E+02 -0.74317983545E+01  0.47700000206E+03  0.47814170610E+03  0.00000000000E+00 0. -1.
</event>
<event>
 7    1  0.1688859E-005  0.8568025E+02  0.7818608E-02  0.1341369E+00
          2   -1    0    0  502    0  0.00000000000E+00  0.00000000000E+00  0.23548137377E+04  0.23548137377E+04  0.00000000000E+00 0. -1.
          1   -1    0    0  501    0 -0.00000000000E+00 -0.00000000000E+00 -0.14837517325E+04  0.14837517325E+04  0.00000000000E+00 0. -1.
         25    2    1    2    0    0 -0.18082669228E+02 -0.56003152379E+02 -0.30054045296E+03  0.33077833202E+03  0.12500562014E+03 0.  0.
          2    1    1    2  501    0  0.65223325557E+02 -0.15688702294E+02 -0.11663415740E+04  0.11682691834E+04  0.00000000000E+00 0. -1.
          1    1    1    2  502    0 -0.47140656329E+02  0.71691854673E+02  0.23379440321E+04  0.23395179548E+04  0.00000000000E+00 0. -1.
         22    1    3    3    0    0 -0.51931037740E+02  0.10951887234E+02 -0.66945954997E+02  0.85431477836E+02  0.00000000000E+00 0.  1.
         22    1    3    3    0    0  0.33848368512E+02 -0.66955039613E+02 -0.23359449796E+03  0.24534685419E+03  0.00000000000E+00 0.  1.
</event>
<event>
 7    1  0.5127424E-006  0.6132038E+02  0.7818608E-02  0.1439054E+00
          2   -1    0    0  502    0  0.00000000000E+00  0.00000000000E+00  0.11973142932E+04  0.11973142932E+04  0.00000000000E+00 0. -1.
          1   -1    0    0  501    0 -0.00000000000E+00 -0.00000000000E+00 -0.66128448281E+03  0.66128448281E+03  0.00000000000E+00 0. -1.
         25    2    1    2    0    0  0.23291601745E+02  0.18395414369E+02  0.15100451072E+02  0.12936024006E+03  0.12500063241E+03 0.  0.
          2    1    1    2  501    0 -0.88841721635E+01  0.41790505791E+02 -0.60254657731E+03  0.60405939502E+03  0.00000000000E+00 0. -1.
          1    1    1    2  502    0 -0.14407429581E+02 -0.60185920160E+02  0.11234759366E+04  0.11251791409E+04  0.00000000000E+00 0. -1.
         22    1    3    3    0    0  0.72230944888E+02 -0.41235838433E+01  0.20558262871E+02  0.75212735061E+02  0.00000000000E+00 0. -1.
         22    1    3    3    0    0 -0.48939343143E+02  0.22518998212E+02 -0.54578117993E+01  0.54147504997E+02  0.00000000000E+00 0. -1.
</event>
<event>
 7    1  0.5127424E-006  0.3812978E+03  0.7818608E-02  0.1171115E+00
          2   -1    0    0  502    0  0.00000000000E+00  0.00000000000E+00  0.17485781383E+04  0.17485781383E+04  0.00000000000E+00 0. -1.
          1   -1    0    0  501    0 -0.00000000000E+00 -0.00000000000E+00 -0.12705091327E+03  0.12705091327E+03  0.00000000000E+00 0. -1.
         25    2    1    2    0    0  0.28864506336E+03  0.20054057944E+03  0.82475932255E+03  0.90519900005E+03  0.12499917179E+03 0.  0.
          2    1    1    2  501    0 -0.36338045953E+03 -0.16725865335E+03  0.40142986631E+03  0.56671576037E+03  0.00000000000E+00 0. -1.
          1    1    1    2  502    0  0.74735396171E+02 -0.33281926098E+02  0.39533803618E+03  0.40371429117E+03  0.00000000000E+00 0. -1.
         22    1    3    3    0    0  0.39804678046E+01  0.49631806100E+02  0.13534466607E+03  0.14421282514E+03  0.00000000000E+00 0. -1.
         22    1    3    3    0    0  0.28466459555E+03  0.15090877335E+03  0.68941465648E+03  0.76098617491E+03  0.00000000000E+00 0. -1.
</event>
<event>
 7    1  0.5127424E-006  0.5666946E+02  0.7818608E-02  0.1436626E+00
          2   -1    0    0  502    0  0.00000000000E+00  0.00000000000E+00  0.22703635354E+03  0.22703635354E+03  0.00000000000E+00 0. -1.
          1   -1    0    0  501    0 -0.00000000000E+00 -0.00000000000E+00 -0.10981009839E+04  0.10981009839E+04  0.00000000000E+00 0. -1.
         25    2    1    2    0    0 -0.98542138599E+02 -0.23035112252E+02 -0.11395568306E+03  0.19710749763E+03  0.12499719375E+03 0.  0.
          2    1    1    2  501    0  0.43205103503E+02  0.18704417154E+02 -0.93781252126E+03  0.93899353630E+03  0.00000000000E+00 0. -1.
          1    1    1    2  502    0  0.55337035096E+02  0.43306950982E+01  0.18070357399E+03  0.18903630346E+03  0.00000000000E+00 0. -1.
         22    1    3    3    0    0  0.16051784895E+01  0.32474573474E+02  0.39490926981E+01  0.32753165549E+02  0.00000000000E+00 0. -1.
         22    1    3    3    0    0 -0.10014731709E+03 -0.55509685726E+02 -0.11790477575E+03  0.16435433209E+03  0.00000000000E+00 0. -1.
</event>
<event>
 7    1  0.5127424E-006  0.6613333E+02  0.7818608E-02  0.1381985E+00
          2   -1    0    0  502    0  0.00000000000E+00  0.00000000000E+00  0.12330420533E+04  0.12330420533E+04  0.00000000000E+00 0. -1.
          1   -1    0    0  501    0 -0.00000000000E+00 -0.00000000000E+00 -0.48547527439E+02  0.48547527439E+02  0.00000000000E+00 0. -1.
         25    2    1    2    0    0  0.20041718391E+02 -0.62967774924E+02  0.55006721804E+03  0.56795026473E+03  0.12500779051E+03 0.  0.
          2    1    1    2  501    0  0.41084181366E+02  0.53670663005E+02 -0.81628857876E+01  0.68081441893E+02  0.00000000000E+00 0. -1.
          1    1    1    2  502    0 -0.61125899757E+02  0.92971119189E+01  0.64259019362E+03  0.64555787413E+03  0.00000000000E+00 0. -1.
         22    1    3    3    0    0 -0.23503424021E+02  0.77516399485E+01  0.35599792217E+03  0.35685714152E+03  0.00000000000E+00 0.  1.
         22    1    3    3    0    0  0.43545142412E+02 -0.70719414872E+02  0.19406929587E+03  0.21109312321E+03  0.00000000000E+00 0.  1.
</event>
<event>
 7    1  0.5127424E-006  0.5140095E+02  0.7818608E-02  0.1455900E+00
          2   -1    0    0  502    0  0.00000000000E+00  0.00000000000E+00  0.12291507832E+03  0.12291507832E+03  0.00000000000E+00 0. -1.
          1   -1    0    0  501    0 -0.00000000000E+00 -0.00000000000E+00 -0.16774459983E+04  0.16774459983E+04  0.00000000000E+00 0. -1.
         25    2    1    2    0    0 -0.10843798944E+02 -0.24773338108E+02 -0.73283008283E+02  0.14739982329E+03  0.12500000938E+03 0.  0.
          2    1    1    2  501    0  0.51540942680E+02  0.55700583133E+01 -0.15607479904E+04  0.15616087166E+04  0.00000000000E+00 0. -1.
          1    1    1    2  502    0 -0.40697143736E+02  0.19203279795E+02  0.79500078659E+02  0.91352536746E+02  0.00000000000E+00 0. -1.
         22    1    3    3    0    0 -0.45363899181E+02 -0.50498786952E+02 -0.68368034967E+01  0.68225748180E+02  0.00000000000E+00 0.  1.
         22    1    3    3    0    0  0.34520100237E+02  0.25725448845E+02 -0.66446204786E+02  0.79174075108E+02  0.00000000000E+00 0.  1.
</event>
<event>
 7    1  0.5127424E-006  0.5023998E+02  0.7818608E-02  0.1467998E+00
          2   -1    0    0  502    0  0.00000000000E+00  0.00000000000E+00  0.14045987393E+04  0.14045987393E+04  0.00000000000E+00 0. -1.
          1   -1    0    0  501    0 -0.00000000000E+00 -0.00000000000E+00 -0.77562852698E+02  0.77562852698E+02  0.00000000000E+00 0. -1.
         25    2    1    2    0    0 -0.62657874954E+02  0.64852674605E+02  0.49806175565E+03  0.52137172797E+03  0.12502434797E+03 0.  0.
          2    1    1    2  501    0  0.28677153299E+02 -0.30927579274E+02 -0.58444050013E+02  0.72073582282E+02  0.00000000000E+00 0. -1.
          1    1    1    2  502    0  0.33980721655E+02 -0.33925095331E+02  0.88741818095E+03  0.88871628173E+03  0.00000000000E+00 0. -1.
         22    1    3    3    0    0  0.20812009423E+02  0.67497314896E+02  0.23080536993E+03  0.24137138613E+03  0.00000000000E+00 0. -1.
         22    1    3    3    0    0 -0.83469884378E+02 -0.26446402905E+01  0.26725638573E+03  0.28000034184E+03  0.00000000000E+00 0. -1.
</event>
<event>
 7    1  0.5127424E-006  0.8055728E+02  0.7818608E-02  0.1344450E+00
          2   -1    0    0  502    0  0.00000000000E+00  0.00000000000E+00  0.13492002587E+04  0.13492002587E+04  0.00000000000E+00 0. -1.
          1   -1    0    0  501    0 -0.00000000000E+00 -0.00000000000E+00 -0.24125226279E+03  0.24125226279E+03  0.00000000000E+00 0. -1.
         25    2    1    2    0    0 -0.49951102644E+02  0.48306597927E+02  0.11482869772E+03  0.18340943194E+03  0.12499899939E+03 0.  0.
          2    1    1    2  501    0  0.81562103119E+02  0.13565074160E+02 -0.19765063023E+03  0.21424789271E+03  0.00000000000E+00 0. -1.
          1    1    1    2  502    0 -0.31611000475E+02 -0.61871672087E+02  0.11907699284E+04  0.11927951968E+04  0.00000000000E+00 0. -1.
         22    1    3    3    0    0 -0.30991250582E+02 -0.26273450654E+02 -0.50659402931E+01  0.40944054183E+02  0.00000000000E+00 0.  1.
         22    1    3    3    0    0 -0.18959852062E+02  0.74580048581E+02  0.11989463801E+03  0.14246537776E+03  0.00000000000E+00 0.  1.
</event>
<event>
 7    1  0.5127424E-006  0.6591726E+02  0.7818608E-02  0.1524619E+00
          2   -1    0    0  502    0  0.00000000000E+00  0.00000000000E+00  0.11765036768E+04  0.11765036768E+04  0.00000000000E+00 0. -1.
          1   -1    0    0  501    0 -0.00000000000E+00 -0.00000000000E+00 -0.34983373567E+03  0.34983373567E+03  0.00000000000E+00 0. -1.
         25    2    1    2    0    0 -0.81544732440E+02  0.14074900208E+02  0.67684101684E+03  0.69324385269E+03  0.12500252403E+03 0.  0.
          2    1    1    2  501    0  0.61709095365E+02 -0.22970710682E+02 -0.33821534897E+03  0.34456536140E+03  0.00000000000E+00 0. -1.
          1    1    1    2  502    0  0.19835637075E+02  0.88958104737E+01  0.48804427331E+03  0.48852819842E+03  0.00000000000E+00 0. -1.
         22    1    3    3    0    0 -0.43203868397E+02  0.84300669143E+01  0.63379917090E+03  0.63532592369E+03  0.00000000000E+00 0.  1.
         22    1    3    3    0    0 -0.38340864043E+02  0.56448332937E+01  0.43041845938E+02  0.57917929005E+02  0.00000000000E+00 0.  1.
</event>
<event>
 7    1  0.5127424E-006  0.4685273E+02  0.7818608E-02  0.1552113E+00
          2   -1    0    0  502    0  0.00000000000E+00  0.00000000000E+00  0.89559189721E+03  0.89559189721E+03  0.00000000000E+00 0. -1.
          1   -1    0    0  501    0 -0.00000000000E+00 -0.00000000000E+00 -0.10592059602E+03  0.10592059602E+03  0.00000000000E+00 0. -1.
         25    2    1    2    0    0 -0.44867732631E+02  0.13291046333E+02  0.12922259924E+03  0.18577777647E+03  0.12500054693E+03 0.  0.
          2    1    1    2  501    0 -0.53913044627E+00 -0.25557029615E+02 -0.74766942866E+02  0.79016126011E+02  0.00000000000E+00 0. -1.
          1    1    1    2  502    0  0.45406863077E+02  0.12265983282E+02  0.73521564481E+03  0.73671859074E+03  0.00000000000E+00 0. -1.
         22    1    3    3    0    0 -0.81862530384E+02  0.48786761504E+01  0.45322653382E+02  0.93698549997E+02  0.00000000000E+00 0.  1.
         22    1    3    3    0    0  0.36994797753E+02  0.84123701830E+01  0.83899945862E+02  0.92079226476E+02  0.00000000000E+00 0.  1.
</event>
<event>
 7    1  0.5127424E-006  0.8697961E+02  0.7818608E-02  0.1384704E+00
          2   -1    0    0  502    0  0.00000000000E+00  0.00000000000E+00  0.29405452218E+03  0.29405452218E+03  0.00000000000E+00 0. -1.
          1   -1    0    0  501    0 -0.00000000000E+00 -0.00000000000E+00 -0.18390840337E+03  0.18390840337E+03  0.00000000000E+00 0. -1.
         25    2    1    2    0    0  0.28039321820E+02  0.44170805184E+02  0.61651819892E+02  0.14887689077E+03  0.12500447237E+03 0.  0.
          2    1    1    2  501    0  0.34680386154E+02  0.30196678881E+02 -0.12333477917E+03  0.13162840253E+03  0.00000000000E+00 0. -1.
          1    1    1    2  502    0 -0.62719707974E+02 -0.74367484065E+02  0.17182907809E+03  0.19745763224E+03  0.00000000000E+00 0. -1.
         22    1    3    3    0    0 -0.23784442263E+02 -0.13396090137E+02  0.65872509335E+02  0.71304574964E+02  0.00000000000E+00 0.  1.
         22    1    3    3    0    0  0.51823764083E+02  0.57566895322E+02 -0.42206894426E+01  0.77572315810E+02  0.00000000000E+00 0.  1.
</event>
<event>
 7    1  0.5127424E-006  0.1306172E+03  0.7818608E-02  0.1240330E+00
          2   -1    0    0  502    0  0.00000000000E+00  0.00000000000E+00  0.32066653656E+04  0.32066653656E+04  0.00000000000E+00 0. -1.
          1   -1    0    0  501    0 -0.00000000000E+00 -0.00000000000E+00 -0.15011314020E+04  0.15011314020E+04  0.00000000000E+00 0. -1.
         25    2    1    2    0    0  0.22770394828E+03  0.30474836590E+02  0.46678874816E+03  0.53506892075E+03  0.12501684210E+03 0.  0.
          2    1    1    2  501    0 -0.12797724912E+03  0.23461993127E+02 -0.14629150646E+04  0.14686895954E+04  0.00000000000E+00 0. -1.
          1    1    1    2  502    0 -0.99726699166E+02 -0.53936829718E+02  0.27016602800E+04  0.27040382514E+04  0.00000000000E+00 0. -1.
         22    1    3    3    0    0  0.56773647362E+02  0.65875578966E+02  0.15872905162E+03  0.18099102400E+03  0.00000000000E+00 0. -1.
         22    1    3    3    0    0  0.17093030092E+03 -0.35400742376E+02  0.30805969654E+03  0.35407789675E+03  0.00000000000E+00 0. -1.
</event>
<event>
 7    1  0.5127424E-006  0.5672326E+02  0.7818608E-02  0.1495600E+00
          2   -1    0    0  502    0  0.00000000000E+00  0.00000000000E+00  0.14108690767E+04  0.14108690767E+04  0.00000000000E+00 0. -1.
          1   -1    0    0  501    0 -0.00000000000E+00 -0.00000000000E+00 -0.17311467664E+04  0.17311467664E+04  0.00000000000E+00 0. -1.
         25    2    1    2    0    0 -0.11408273713E+02  0.81632727449E+02  0.52825020680E+03  0.54906257226E+03  0.12500950515E+03 0.  0.
          2    1    1    2  501    0  0.14705980297E+02 -0.27009610815E+02 -0.17197446475E+04  0.17200196038E+04  0.00000000000E+00 0. -1.
          1    1    1    2  502    0 -0.32977065839E+01 -0.54623116633E+02  0.87121675097E+03  0.87293366696E+03  0.00000000000E+00 0. -1.
         22    1    3    3    0    0 -0.28166257899E+02  0.67541602130E+02  0.12229696816E+03  0.14251931281E+03  0.00000000000E+00 0. -1.
         22    1    3    3    0    0  0.16757984186E+02  0.14091125318E+02  0.40595323864E+03  0.40654325946E+03  0.00000000000E+00 0. -1.
</event>
<event>
 7    1  0.5127424E-006  0.4666047E+02  0.7818608E-02  0.1584627E+00
          2   -1    0    0  502    0  0.00000000000E+00  0.00000000000E+00  0.93986583496E+03  0.93986583496E+03  0.00000000000E+00 0. -1.
          1   -1    0    0  501    0 -0.00000000000E+00 -0.00000000000E+00 -0.50999370809E+02  0.50999370809E+02  0.00000000000E+00 0. -1.
         25    2    1    2    0    0  0.16017000774E+02 -0.23253337541E+02  0.29262698887E+03  0.31945800229E+03  0.12500239436E+03 0.  0.
          2    1    1    2  501    0  0.31436814916E+01 -0.20697115263E+02 -0.33685274617E+02  0.39660446790E+02  0.00000000000E+00 0. -1.
          1    1    1    2  502    0 -0.19160682265E+02  0.43950452804E+02  0.62992474990E+03  0.63174675668E+03  0.00000000000E+00 0. -1.
         22    1    3    3    0    0 -0.12111724888E+02 -0.11596105268E+02 -0.70849912031E+01  0.18203313915E+02  0.00000000000E+00 0. -1.
         22    1    3    3    0    0  0.28128725662E+02 -0.11657232273E+02  0.29971198007E+03  0.30125468838E+03  0.00000000000E+00 0. -1.
</event>
<event>
 7    1  0.5127424E-006  0.6207302E+02  0.7818608E-02  0.1398482E+00
          2   -1    0    0  502    0  0.00000000000E+00  0.00000000000E+00  0.12658436893E+03  0.12658436893E+03  0.00000000000E+00 0. -1.
          1   -1    0    0  501    0 -0.00000000000E+00 -0.00000000000E+00 -0.18857073180E+04  0.18857073180E+04  0.00000000000E+00 0. -1.
         25    2    1    2    0    0  0.10170254315E+03 -0.60704419294E+02 -0.75047196418E+03  0.76997481736E+03  0.12499846613E+03 0.  0.
          2    1    1    2  501    0 -0.52597854018E+02  0.23716404937E+02 -0.11166000383E+04  0.11180897315E+04  0.00000000000E+00 0. -1.
          1    1    1    2  502    0 -0.49104689132E+02  0.36988014357E+02  0.10794905342E+03  0.12422713808E+03  0.00000000000E+00 0. -1.
         22    1    3    3    0    0  0.66300845485E+02  0.18775224433E+02 -0.17700495859E+03  0.18994490394E+03  0.00000000000E+00 0.  1.
         22    1    3    3    0    0  0.35401697666E+02 -0.79479643726E+02 -0.57346700559E+03  0.58002991342E+03  0.00000000000E+00 0.  1.
</event>
<event>
 7    1  0.5127424E-006  0.1137504E+03  0.7818608E-02  0.1325843E+00
          2   -1    0    0  502    0  0.00000000000E+00  0.00000000000E+00  0.90547019949E+03  0.90547019949E+03  0.00000000000E+00 0. -1.
          1   -1    0    0  501    0 -0.00000000000E+00 -0.00000000000E+00 -0.13446709033E+04  0.13446709033E+04  0.00000000000E+00 0. -1.
         25    2    1    2    0    0  0.81343030678E+02  0.11228353291E+02 -0.21401968312E+00  0.14955692087E+03  0.12499784886E+03 0.  0.
          2    1    1    2  501    0 -0.93043882778E+02 -0.67913794976E+02 -0.12661595197E+04  0.12713887592E+04  0.00000000000E+00 0. -1.
          1    1    1    2  502    0  0.11700852100E+02  0.56685441684E+02  0.82717283555E+03  0.82919542275E+03  0.00000000000E+00 0. -1.
         22    1    3    3    0    0  0.18359356236E+02  0.57598739307E+01  0.59536450162E+02  0.62568610397E+02  0.00000000000E+00 0. -1.
         22    1    3    3    0    0  0.62983674442E+02  0.54684793606E+01 -0.59750469845E+02  0.86988310476E+02  0.00000000000E+00 0. -1.
</event>
<event>
 7    1  0.5127424E-006  0.1317748E+03  0.7818608E-02  0.1403875E+00
          2   -1    0    0  502    0  0.00000000000E+00  0.00000000000E+00  0.30478358559E+02  0.30478358559E+02  0.00000000000E+00 0. -1.
          1   -1    0    0  501    0 -0.00000000000E+00 -0.00000000000E+00 -0.14223742108E+04  0.14223742108E+04  0.00000000000E+00 0. -1.
         25    2    1    2    0    0  0.11191199781E+03 -0.36211482208E+02 -0.32251498057E+03  0.36534291406E+03  0.12499586180E+03 0.  0.
          2    1    1    2  501    0 -0.13322074495E+03  0.21236434539E+02 -0.10379968561E+04  0.10467264334E+04  0.00000000000E+00 0. -1.
          1    1    1    2  502    0  0.21308747142E+02  0.14975047669E+02 -0.31384015569E+02  0.40783221926E+02  0.00000000000E+00 0. -1.
         22    1    3    3    0    0  0.11718121907E+03  0.10358795246E+02 -0.27246046859E+03  0.29677171308E+03  0.00000000000E+00 0. -1.
         22    1    3    3    0    0 -0.52692212603E+01 -0.46570277454E+02 -0.50054511983E+02  0.68571200986E+02  0.00000000000E+00 0. -1.
</event>
<event>
 7    1  0.5127424E-006  0.5583577E+02  0.7818608E-02  0.1487508E+00
          2   -1    0    0  502    0  0.00000000000E+00  0.00000000000E+00  0.12825176381E+04  0.12825176381E+04  0.00000000000E+00 0. -1.
          1   -1    0    0  501    0 -0.00000000000E+00 -0.00000000000E+00 -0.61153330193E+02  0.61153330193E+02  0.00000000000E+00 0. -1.
         25    2    1    2    0    0  0.24971778356E+02  0.22827133487E+02  0.30261285717E+03  0.32915441781E+03  0.12499368666E+03 0.  0.
          2    1    1    2  501    0 -0.16653306177E+02 -0.54813258848E+02 -0.30356595503E+02  0.64833238718E+02  0.00000000000E+00 0. -1.
          1    1    1    2  502    0 -0.83184721788E+01  0.31986125360E+02  0.94910804624E+03  0.94968331176E+03  0.00000000000E+00 0. -1.
         22    1    3    3    0    0 -0.33036791650E+02  0.34716281316E+02  0.23247418464E+03  0.23736237342E+03  0.00000000000E+00 0. -1.
         22    1    3    3    0    0  0.58008570006E+02 -0.11889147829E+02  0.70138672528E+02  0.91792044396E+02  0.00000000000E+00 0. -1.
</event>
<event>
 7    1  0.5127424E-006  0.1511602E+03  0.7818608E-02  0.1220927E+00
          2   -1    0    0  502    0  0.00000000000E+00  0.00000000000E+00  0.14335495801E+04  0.14335495801E+04  0.00000000000E+00 0. -1.
          1   -1    0    0  501    0 -0.00000000000E+00 -0.00000000000E+00 -0.14095133666E+04  0.14095133666E+04  0.00000000000E+00 0. -1.
         25    2    1    2    0    0 -0.54276264905E+02  0.29946049795E+02 -0.12388490065E+03  0.18658823827E+03  0.12500009288E+03 0.  0.
          2    1    1    2  501    0 -0.93003754766E+02 -0.75317527812E+02 -0.12471693017E+04  0.12528981186E+04  0.00000000000E+00 0. -1.
          1    1    1    2  502    0  0.14728001967E+03  0.45371478018E+02  0.13950904159E+04  0.14035765899E+04  0.00000000000E+00 0. -1.
         22    1    3    3    0    0  0.16447046155E+02  0.58076529460E+02 -0.35814716780E+02  0.70186056587E+02  0.00000000000E+00 0.  1.
         22    1    3    3    0    0 -0.70723311061E+02 -0.28130479665E+02 -0.88070183867E+02  0.11640218168E+03  0.00000000000E+00 0.  1.
</event>
<event>
 7    1  0.5127424E-006  0.4518060E+02  0.7818608E-02  0.1502720E+00
          2   -1    0    0  502    0  0.00000000000E+00  0.00000000000E+00  0.14423864353E+04  0.14423864353E+04  0.00000000000E+00 0. -1.
          1   -1    0    0  501    0 -0.00000000000E+00 -0.00000000000E+00 -0.27849197387E+02  0.27849197387E+02  0.00000000000E+00 0. -1.
         25    2    1    2    0    0  0.12210578860E+02  0.90566247144E+01  0.51112168501E+03  0.52640412159E+03  0.12499920662E+03 0.  0.
          2    1    1    2  501    0  0.19164343222E+01  0.36715017658E+02 -0.23124644970E+01  0.36837653755E+02  0.00000000000E+00 0. -1.
          1    1    1    2  502    0 -0.14127013182E+02 -0.45771642372E+02  0.90572801742E+03  0.90699385736E+03  0.00000000000E+00 0. -1.
         22    1    3    3    0    0 -0.58969174060E+01  0.63713118206E+02  0.19956697399E+03  0.20957364379E+03  0.00000000000E+00 0. -1.
         22    1    3    3    0    0  0.18107496266E+02 -0.54656493492E+02  0.31155471102E+03  0.31683047780E+03  0.00000000000E+00 0. -1.
</event>
<event>
 7    1  0.5127424E-006  0.8085139E+02  0.7818608E-02  0.1443019E+00
          2   -1    0    0  502    0  0.00000000000E+00  0.00000000000E+00  0.20791312832E+04  0.20791312832E+04  0.00000000000E+00 0. -1.
          1   -1    0    0  501    0 -0.00000000000E+00 -0.00000000000E+00 -0.36801133088E+02  0.36801133088E+02  0.00000000000E+00 0. -1.
         25    2    1    2    0    0 -0.62747012314E+02 -0.11685843633E+02  0.17288082192E+03  0.22267922564E+03  0.12499804978E+03 0.  0.
          2    1    1    2  501    0 -0.17580369208E+02  0.26088340620E+02  0.11473536677E+02  0.33486011134E+02  0.00000000000E+00 0. -1.
          1    1    1    2  502    0  0.80327381522E+02 -0.14402496986E+02  0.18579757915E+04  0.18597671795E+04  0.00000000000E+00 0. -1.
         22    1    3    3    0    0 -0.83002480112E+02  0.17267983694E+02  0.16640213812E+03  0.18675456229E+03  0.00000000000E+00 0.  1.
         22    1    3    3    0    0  0.20255467798E+02 -0.28953827327E+02  0.64786837931E+01  0.35924663343E+02  0.00000000000E+00 0.  1.
</event>
<event>
 7    1  0.5127424E-006  0.9616567E+02  0.7818608E-02  0.1292630E+00
          2   -1    0    0  502    0  0.00000000000E+00  0.00000000000E+00  0.20327875836E+04  0.20327875836E+04  0.00000000000E+00 0. -1.
          1   -1    0    0  501    0 -0.00000000000E+00 -0.00000000000E+00 -0.31106074467E+03  0.31106074467E+03  0.00000000000E+00 0. -1.
         25    2    1    2    0    0 -0.11192253161E+03  0.14729301988E+03  0.33577637828E+03  0.40322799660E+03  0.12500061699E+03 0.  0.
          2    1    1    2  501    0  0.66946511854E+02 -0.66368320235E+02 -0.26799203847E+03  0.28408858136E+03  0.00000000000E+00 0. -1.
          1    1    1    2  502    0  0.44976019757E+02 -0.80924699645E+02  0.16539424992E+04  0.16565317503E+04  0.00000000000E+00 0. -1.
         22    1    3    3    0    0 -0.10584322098E+03  0.13257621911E+03  0.18266348012E+03  0.24928936654E+03  0.00000000000E+00 0.  1.
         22    1    3    3    0    0 -0.60793106313E+01  0.14716800770E+02  0.15311289816E+03  0.15393863006E+03  0.00000000000E+00 0.  1.
</event>
<event>
 7    1  0.5127424E-006  0.6883273E+02  0.7818608E-02  0.1430913E+00
          2   -1    0    0  502    0  0.00000000000E+00  0.00000000000E+00  0.67977264925E+03  0.67977264925E+03  0.00000000000E+00 0. -1.
          1   -1    0    0  501    0 -0.00000000000E+00 -0.00000000000E+00 -0.93196327171E+03  0.93196327171E+03  0.00000000000E+00 0. -1.
         25    2    1    2    0    0  0.57386207933E+02  0.34496755234E+02  0.27615856948E+02  0.14446938757E+03  0.12500226161E+03 0.  0.
          2    1    1    2  501    0 -0.28537308439E+02 -0.62874420145E+02 -0.87147987309E+03  0.87421092413E+03  0.00000000000E+00 0. -1.
          1    1    1    2  502    0 -0.28848899494E+02  0.28377664910E+02  0.59167339368E+03  0.59305560925E+03  0.00000000000E+00 0. -1.
         22    1    3    3    0    0 -0.33913965069E+01 -0.21113088271E+02  0.53909385153E+02  0.57995567712E+02  0.00000000000E+00 0. -1.
         22    1    3    3    0    0  0.60777604440E+02  0.55609843505E+02 -0.26293528206E+02  0.86473819863E+02  0.00000000000E+00 0. -1.
</event>
<event>
 7    1  0.5127424E-006  0.6496791E+02  0.7818608E-02  0.1380571E+00
          2   -1    0    0  502    0  0.00000000000E+00  0.00000000000E+00  0.59596150285E+03  0.59596150285E+03  0.00000000000E+00 0. -1.
          1   -1    0    0  501    0 -0.00000000000E+00 -0.00000000000E+00 -0.73112496138E+03  0.73112496138E+03  0.00000000000E+00 0. -1.
         25    2    1    2    0    0 -0.24611087511E+01  0.72806571262E+01 -0.42074835837E+02  0.13212031906E+03  0.12500568737E+03 0.  0.
          2    1    1    2  501    0 -0.57291153743E+02 -0.32785479782E+02 -0.64040974436E+03  0.64380261311E+03  0.00000000000E+00 0. -1.
          1    1    1    2  502    0  0.59752262494E+02  0.25504822656E+02  0.54732112166E+03  0.55116353206E+03  0.00000000000E+00 0. -1.
         22    1    3    3    0    0 -0.14799696086E+02  0.51040689408E+02 -0.62702469621E+02  0.82193568337E+02  0.00000000000E+00 0.  1.
         22    1    3    3    0    0  0.12338587335E+02 -0.43760032282E+02  0.20627633784E+02  0.49926750728E+02  0.00000000000E+00 0.  1.
</event>
<event>
 7    1  0.5127424E-006  0.7028569E+02  0.7818608E-02  0.1409549E+00
          2   -1    0    0  502    0  0.00000000000E+00  0.00000000000E+00  0.75552493751E+03  0.75552493751E+03  0.00000000000E+00 0. -1.
          1   -1    0    0  501    0 -0.00000000000E+00 -0.00000000000E+00 -0.98884533859E+02  0.98884533859E+02  0.00000000000E+00 0. -1.
         25    2    1    2    0    0 -0.67630117215E+02  0.66082534565E+01  0.57525443069E+03  0.59258690261E+03  0.12499630131E+03 0.  0.
          2    1    1    2  501    0 -0.20741712724E+01 -0.46658503475E+02 -0.73634417238E+02  0.87197164719E+02  0.00000000000E+00 0. -1.
          1    1    1    2  502    0  0.69704288488E+02  0.40050250019E+02  0.15502039020E+03  0.17462540404E+03  0.00000000000E+00 0. -1.
         22    1    3    3    0    0 -0.30782425131E+02  0.61050957527E+02  0.39153073074E+03  0.39745577141E+03  0.00000000000E+00 0.  1.
         22    1    3    3    0    0 -0.36847692084E+02 -0.54442704071E+02  0.18372369995E+03  0.19513113120E+03  0.00000000000E+00 0.  1.
</event>
<event>
 7    1  0.5127424E-006  0.6849259E+02  0.7818608E-02  0.1372435E+00
          2   -1    0    0  502    0  0.00000000000E+00  0.00000000000E+00  0.13841249942E+04  0.13841249942E+04  0.00000000000E+00 0. -1.
          1   -1    0    0  501    0 -0.00000000000E+00 -0.00000000000E+00 -0.80994814350E+02  0.80994814350E+02  0.00000000000E+00 0. -1.
         25    2    1    2    0    0  0.13049483842E+03 -0.12643677036E+02  0.71800176442E+03  0.74050051380E+03  0.12500284716E+03 0.  0.
          2    1    1    2  501    0 -0.67083240067E+02  0.54514398172E+00 -0.51595086334E+02  0.84631620649E+02  0.00000000000E+00 0. -1.
          1    1    1    2  502    0 -0.63411598356E+02  0.12098533055E+02  0.63672350177E+03  0.63998767411E+03  0.00000000000E+00 0. -1.
         22    1    3    3    0    0  0.82064439055E+02  0.17741851828E+02  0.62991561611E+03  0.63548645059E+03  0.00000000000E+00 0. -1.
         22    1    3    3    0    0  0.48430399368E+02 -0.30385528865E+02  0.88086148314E+02  0.10501406321E+03  0.00000000000E+00 0. -1.
</event>
<event>
 7    1  0.5127424E-006  0.8450550E+02  0.7818608E-02  0.1359767E+00
          2   -1    0    0  502    0  0.00000000000E+00  0.00000000000E+00  0.33811796506E+03  0.33811796506E+03  0.00000000000E+00 0. -1.
          1   -1    0    0  501    0 -0.00000000000E+00 -0.00000000000E+00 -0.11160655835E+04  0.11160655835E+04  0.00000000000E+00 0. -1.
         25    2    1    2    0    0  0.31765837651E+02  0.18277553021E+02 -0.13196025389E+03  0.18542641307E+03  0.12500523458E+03 0.  0.
          2    1    1    2  501    0 -0.88334725711E+02 -0.48386236907E+01 -0.95259048826E+03  0.95668964371E+03  0.00000000000E+00 0. -1.
          1    1    1    2  502    0  0.56568888060E+02 -0.13438929330E+02  0.30660312374E+03  0.31206749175E+03  0.00000000000E+00 0. -1.
         22    1    3    3    0    0  0.66737177583E+02  0.49730266458E+02 -0.83633745428E+02  0.11798963365E+03  0.00000000000E+00 0.  1.
         22    1    3    3    0    0 -0.34971339932E+02 -0.31452713437E+02 -0.48326508464E+02  0.67436779427E+02  0.00000000000E+00 0.  1.
</event>
<event>
 7    1  0.5127424E-006  0.5337649E+02  0.7818608E-02  0.1473476E+00
          2   -1    0    0  502    0  0.00000000000E+00  0.00000000000E+00  0.53539223943E+03  0.53539223943E+03  0.00000000000E+00 0. -1.
          1   -1    0    0  501    0 -0.00000000000E+00 -0.00000000000E+00 -0.32829268769E+03  0.32829268769E+03  0.00000000000E+00 0. -1.
         25    2    1    2    0    0  0.15979562374E+02  0.22625934944E+01  0.82776737948E+02  0.15079424063E+03  0.12500579554E+03 0.  0.
          2    1    1    2  501    0 -0.54148435532E+02 -0.17253630465E+01 -0.29090766188E+03  0.29590927273E+03  0.00000000000E+00 0. -1.
          1    1    1    2  502    0  0.38168873158E+02 -0.53723044788E+00  0.41523047567E+03  0.41698141376E+03  0.00000000000E+00 0. -1.
         22    1    3    3    0    0  0.68511964266E+02 -0.12175639595E+02  0.33063375831E+02  0.77041042753E+02  0.00000000000E+00 0. -1.
         22    1    3    3    0    0 -0.52532401893E+02  0.14438233089E+02  0.49713362117E+02  0.73753197872E+02  0.00000000000E+00 0. -1.
</event>
<event>
 7    1  0.5127424E-006  0.6399526E+02  0.7818608E-02  0.1389086E+00
          2   -1    0    0  502    0  0.00000000000E+00  0.00000000000E+00  0.21871749533E+04  0.21871749533E+04  0.00000000000E+00 0. -1.
          1   -1    0    0  501    0 -0.00000000000E+00 -0.00000000000E+00 -0.30363810801E+02  0.30363810801E+02  0.00000000000E+00 0. -1.
         25    2    1    2    0    0  0.39066864207E+01  0.75584843215E+01  0.22976875108E+03  0.26170581212E+03  0.12499544088E+03 0.  0.
          2    1    1    2  501    0  0.58884793133E+02  0.13116946664E+02  0.52058834394E+02  0.79684348467E+02  0.00000000000E+00 0. -1.
          1    1    1    2  502    0 -0.62791479554E+02 -0.20675430985E+02  0.18749835570E+04  0.18761486035E+04  0.00000000000E+00 0. -1.
         22    1    3    3    0    0  0.63428513230E+02  0.15118826406E+02  0.12430118007E+03  0.14036573147E+03  0.00000000000E+00 0.  1.
         22    1    3    3    0    0 -0.59521826810E+02 -0.75603420848E+01  0.10546757101E+03  0.12134008066E+03  0.00000000000E+00 0.  1.
</event>
<event>
 7    1  0.5127424E-006  0.2142743E+03  0.7818608E-02  0.1157589E+00
          2   -1    0    0  502    0  0.00000000000E+00  0.00000000000E+00  0.90283235190E+03  0.90283235190E+03  0.00000000000E+00 0. -1.
          1   -1    0    0  501    0 -0.00000000000E+00 -0.00000000000E+00 -0.19967390789E+04  0.19967390789E+04  0.00000000000E+00 0. -1.
         25    2    1    2    0    0  0.30904698349E+03  0.19935720801E+03  0.18594315989E+03  0.43064320185E+03  0.12500149680E+03 0.  0.
          2    1    1    2  501    0 -0.14501910579E+03 -0.15393584829E+03 -0.18560788701E+04  0.18680887448E+04  0.00000000000E+00 0. -1.
          1    1    1    2  502    0 -0.16402787770E+03 -0.45421359712E+02  0.57622898323E+03  0.60083948413E+03  0.00000000000E+00 0. -1.
         22    1    3    3    0    0  0.27549545754E+03  0.21602635080E+03  0.17619843167E+03  0.39193241598E+03  0.00000000000E+00 0. -1.
         22    1    3    3    0    0  0.33551525945E+02 -0.16669142798E+02  0.97447282121E+01  0.38710785872E+02  0.00000000000E+00 0. -1.
</event>
<event>
 7    1  0.5127424E-006  0.6717268E+02  0.7818608E-02  0.1458167E+00
          2   -1    0    0  502    0  0.00000000000E+00  0.00000000000E+00  0.21172405185E+02  0.21172405185E+02  0.00000000000E+00 0. -1.
          1   -1    0    0  501    0 -0.00000000000E+00 -0.00000000000E+00 -0.14394288610E+04  0.14394288610E+04  0.00000000000E+00 0. -1.
         25    2    1    2    0    0  0.35310734081E+02 -0.78683115656E+02 -0.94366117944E+03  0.95580266457E+03  0.12499772558E+03 0.  0.
          2    1    1    2  501    0 -0.31381623388E+02  0.12742255236E+02 -0.41329343800E+03  0.41467895684E+03  0.00000000000E+00 0. -1.
          1    1    1    2  502    0 -0.39291106937E+01  0.65940860419E+02 -0.61301838364E+02  0.90119644754E+02  0.00000000000E+00 0. -1.
         22    1    3    3    0    0  0.53233535326E+02 -0.99853805397E+02 -0.86548964769E+03  0.87285561349E+03  0.00000000000E+00 0. -1.
         22    1    3    3    0    0 -0.17922801244E+02  0.21170689741E+02 -0.78171531746E+02  0.82947051088E+02  0.00000000000E+00 0. -1.
</event>
<event>
 7    1  0.5127424E-006  0.1336270E+03  0.7818608E-02  0.1239733E+00
          2   -1    0    0  502    0  0.00000000000E+00  0.00000000000E+00  0.31293018343E+04  0.31293018343E+04  0.00000000000E+00 0. -1.
          1   -1    0    0  501    0 -0.00000000000E+00 -0.00000000000E+00 -0.58013538014E+02  0.58013538014E+02  0.00000000000E+00 0. -1.
         25    2    1    2    0    0  0.17469610040E+03 -0.51577659666E+02  0.24327575224E+03  0.32862739250E+03  0.12503555094E+03 0.  0.
          2    1    1    2  501    0 -0.96374434779E+02 -0.56071271579E+02  0.21415307905E+03  0.24144059402E+03  0.00000000000E+00 0. -1.
          1    1    1    2  502    0 -0.78321665621E+02  0.10764893124E+03  0.26138594650E+04  0.26172473858E+04  0.00000000000E+00 0. -1.
         22    1    3    3    0    0  0.19067663019E+03 -0.32111201310E+02  0.22885533485E+03  0.29960552538E+03  0.00000000000E+00 0. -1.
         22    1    3    3    0    0 -0.15980529789E+02 -0.19466458355E+02  0.14420417397E+02  0.29021867120E+02  0.00000000000E+00 0. -1.
</event>
<event>
 7    1  0.5127424E-006  0.7875350E+02  0.7818608E-02  0.1405250E+00
          2   -1    0    0  502    0  0.00000000000E+00  0.00000000000E+00  0.11723287224E+03  0.11723287224E+03  0.00000000000E+00 0. -1.
          1   -1    0    0  501    0 -0.00000000000E+00 -0.00000000000E+00 -0.95824189964E+03  0.95824189964E+03  0.00000000000E+00 0. -1.
         25    2    1    2    0    0  0.63952891667E+02 -0.79985350957E+02 -0.21124769188E+03  0.26596670197E+03  0.12500028205E+03 0.  0.
          2    1    1    2  501    0 -0.68053301148E+02  0.37070651526E+02 -0.71223942138E+03  0.71644293449E+03  0.00000000000E+00 0. -1.
          1    1    1    2  502    0  0.41004094811E+01  0.42914699431E+02  0.82478085863E+02  0.93065135431E+02  0.00000000000E+00 0. -1.
         22    1    3    3    0    0 -0.91659318373E+01 -0.21793972033E+01  0.13895802456E+02  0.16788609368E+02  0.00000000000E+00 0. -1.
         22    1    3    3    0    0  0.73118823504E+02 -0.77805953753E+02 -0.22514349434E+03  0.24917809260E+03  0.00000000000E+00 0. -1.
</event>
<event>
 7    1  0.5127424E-006  0.5362595E+02  0.7818608E-02  0.1485972E+00
          2   -1    0    0  502    0  0.00000000000E+00  0.00000000000E+00  0.13164458140E+03  0.13164458140E+03  0.00000000000E+00 0. -1.
          1   -1    0    0  501    0 -0.00000000000E+00 -0.00000000000E+00 -0.17120388313E+04  0.17120388313E+04  0.00000000000E+00 0. -1.
         25    2    1    2    0    0 -0.39348125852E+01  0.66102155148E+02  0.28260694916E+02  0.14425140967E+03  0.12499929859E+03 0.  0.
          2    1    1    2  501    0 -0.25922415946E+02 -0.23193872296E+02 -0.16387464416E+04  0.16391155625E+04  0.00000000000E+00 0. -1.
          1    1    1    2  502    0  0.29857228532E+02 -0.42908282852E+02  0.30091496715E+02  0.60316440606E+02  0.00000000000E+00 0. -1.
         22    1    3    3    0    0 -0.35480339360E+02  0.92423899630E+02  0.28999370241E+02  0.10316004642E+03  0.00000000000E+00 0. -1.
         22    1    3    3    0    0  0.31545526775E+02 -0.26321744482E+02 -0.73867532436E+00  0.41091363245E+02  0.00000000000E+00 0. -1.
</event>
<event>
 7    1  0.5127424E-006  0.5994434E+02  0.7818608E-02  0.1417672E+00
          2   -1    0    0  502    0  0.00000000000E+00  0.00000000000E+00  0.88811137141E+03  0.88811137141E+03  0.00000000000E+00 0. -1.
          1   -1    0    0  501    0 -0.00000000000E+00 -0.00000000000E+00 -0.36266612334E+03  0.36266612334E+03  0.00000000000E+00 0. -1.
         25    2    1    2    0    0 -0.77983042540E+02 -0.55815935689E+02  0.10411107034E+03  0.18884006327E+03  0.12499872370E+03 0.  0.
          2    1    1    2  501    0  0.19316604270E+02  0.47649122317E+02 -0.31704463036E+03  0.32118665554E+03  0.00000000000E+00 0. -1.
          1    1    1    2  502    0  0.58666438270E+02  0.81668133724E+01  0.73837880809E+03  0.74075077594E+03  0.00000000000E+00 0. -1.
         22    1    3    3    0    0 -0.14837851488E+01  0.76501749460E+01  0.87760302837E+02  0.88105604527E+02  0.00000000000E+00 0.  1.
         22    1    3    3    0    0 -0.76499257391E+02 -0.63466110635E+02  0.16350767507E+02  0.10073445874E+03  0.00000000000E+00 0.  1.
</event>
<event>
 7    1  0.5127424E-006  0.8227461E+02  0.7818608E-02  0.1418156E+00
          2   -1    0    0  502    0  0.00000000000E+00  0.00000000000E+00  0.82208041941E+02  0.82208041941E+02  0.00000000000E+00 0. -1.
          1   -1    0    0  501    0 -0.00000000000E+00 -0.00000000000E+00 -0.16207594459E+04  0.16207594459E+04  0.00000000000E+00 0. -1.
         25    2    1    2    0    0  0.95537826109E+02 -0.52000300121E+02 -0.10923105449E+04  0.11048078131E+04  0.12500587902E+03 0.  0.
          2    1    1    2  501    0 -0.64808301351E+02  0.30820417021E+02 -0.51497257203E+03  0.51994880899E+03  0.00000000000E+00 0. -1.
          1    1    1    2  502    0 -0.30729524757E+02  0.21179883100E+02  0.68731713057E+02  0.78210865739E+02  0.00000000000E+00 0. -1.
         22    1    3    3    0    0  0.24342977175E+01  0.27322354371E+02 -0.69619794828E+02  0.74828822560E+02  0.00000000000E+00 0.  1.
         22    1    3    3    0    0  0.93103528391E+02 -0.79322654492E+02 -0.10226907501E+04  0.10299789905E+04  0.00000000000E+00 0.  1.
</event>
<event>
 7    1  0.5127424E-006  0.1050002E+03  0.7818608E-02  0.1343156E+00
          2   -1    0    0  502    0  0.00000000000E+00  0.00000000000E+00  0.39233430399E+03  0.39233430399E+03  0.00000000000E+00 0. -1.
          1   -1    0    0  501    0 -0.00000000000E+00 -0.00000000000E+00 -0.81002600065E+03  0.81002600065E+03  0.00000000000E+00 0. -1.
         25    2    1    2    0    0 -0.58881867845E+01  0.59196792805E+02  0.20202905094E+02  0.13990099621E+03  0.12500080138E+03 0.  0.
          2    1    1    2  501    0 -0.15983364386E+02  0.51478368832E+02 -0.73897420117E+03  0.74093748750E+03  0.00000000000E+00 0. -1.
          1    1    1    2  502    0  0.21871551171E+02 -0.11067516164E+03  0.30107959941E+03  0.32152182093E+03  0.00000000000E+00 0. -1.
         22    1    3    3    0    0 -0.51486953334E+02  0.31419757176E+01  0.39661398546E+02  0.65067694823E+02  0.00000000000E+00 0.  1.
         22    1    3    3    0    0  0.45598766549E+02  0.56054817088E+02 -0.19458493452E+02  0.74833301390E+02  0.00000000000E+00 0.  1.
</event>
<event>
 7    1  0.5127424E-006  0.2632341E+03  0.7818608E-02  0.1218355E+00
          2   -1    0    0  502    0  0.00000000000E+00  0.00000000000E+00  0.12225443326E+04  0.12225443326E+04  0.00000000000E+00 0. -1.
          1   -1    0    0  501    0 -0.00000000000E+00 -0.00000000000E+00 -0.11139041360E+04  0.11139041360E+04  0.00000000000E+00 0. -1.
         25    2    1    2    0    0 -0.41529392677E+02 -0.19098671325E+03 -0.39279771482E+03  0.45619623719E+03  0.12499738784E+03 0.  0.
          2    1    1    2  501    0 -0.23919287944E+02 -0.66430079383E+02 -0.67272638513E+03  0.67642137535E+03  0.00000000000E+00 0. -1.
          1    1    1    2  502    0  0.65448680620E+02  0.25741679263E+03  0.11741642965E+04  0.12038308561E+04  0.00000000000E+00 0. -1.
         22    1    3    3    0    0 -0.36278576631E+02 -0.15333138524E+03 -0.17656744506E+03  0.23664892029E+03  0.00000000000E+00 0.  1.
         22    1    3    3    0    0 -0.52508160452E+01 -0.37655328012E+02 -0.21623026976E+03  0.21954731690E+03  0.00000000000E+00 0.  1.
</event>
<event>
 7    1  0.5127424E-006  0.9684647E+02  0.7818608E-02  0.1469452E+00
          2   -1    0    0  502    0  0.00000000000E+00  0.00000000000E+00  0.16994152769E+04  0.16994152769E+04  0.00000000000E+00 0. -1.
          1   -1    0    0  501    0 -0.00000000000E+00 -0.00000000000E+00 -0.11517582004E+04  0.11517582004E+04  0.00000000000E+00 0. -1.
         25    2    1    2    0    0  0.83901491282E+01 -0.10502656108E+03  0.62368426391E+03  0.64475311744E+03  0.12499419288E+03 0.  0.
          2    1    1    2  501    0 -0.26483960178E+02  0.93133112354E+02 -0.11390595714E+04  0.11431674786E+04  0.00000000000E+00 0. -1.
          1    1    1    2  502    0  0.18093811050E+02  0.11893448730E+02  0.10630323840E+04  0.10632528813E+04  0.00000000000E+00 0. -1.
         22    1    3    3    0    0  0.14884890171E+02 -0.11699297459E+03  0.61932923313E+03  0.63045825799E+03  0.00000000000E+00 0. -1.
         22    1    3    3    0    0 -0.64947410431E+01  0.11966413508E+02  0.43550307856E+01  0.14294859447E+02  0.00000000000E+00 0. -1.
</event>
<event>
 7    1  0.5127424E-006  0.5188053E+02  0.7818608E-02  0.1529486E+00
          2   -1    0    0  502    0  0.00000000000E+00  0.00000000000E+00  0.13542852041E+04  0.13542852041E+04  0.00000000000E+00 0. -1.
          1   -1    0    0  501    0 -0.00000000000E+00 -0.00000000000E+00 -0.56472142625E+03  0.56472142625E+03  0.00000000000E+00 0. -1.
         25    2    1    2    0    0  0.74441012408E+02  0.24137876994E+02 -0.19732353541E+03  0.24634787567E+03  0.12500638697E+03 0.  0.
          2    1    1    2  501    0 -0.26263233822E+02 -0.50512067124E+01 -0.34185838345E+03  0.34290294031E+03  0.00000000000E+00 0. -1.
          1    1    1    2  502    0 -0.48177778586E+02 -0.19086670282E+02  0.13287456967E+04  0.13297558144E+04  0.00000000000E+00 0. -1.
         22    1    3    3    0    0  0.17299131585E+02 -0.50507480083E+02 -0.67431057259E+02  0.86007051926E+02  0.00000000000E+00 0.  1.
         22    1    3    3    0    0  0.57141880823E+02  0.74645357077E+02 -0.12989247815E+03  0.16034082374E+03  0.00000000000E+00 0.  1.
</event>
<event>
 7    1  0.5127424E-006  0.7365865E+02  0.7818608E-02  0.1437859E+00
          2   -1    0    0  502    0  0.00000000000E+00  0.00000000000E+00  0.13131011310E+04  0.13131011310E+04  0.00000000000E+00 0. -1.
          1   -1    0    0  501    0 -0.00000000000E+00 -0.00000000000E+00 -0.30175142964E+03  0.30175142964E+03  0.00000000000E+00 0. -1.
         25    2    1    2    0    0 -0.54230729726E+00  0.41308724218E+02  0.24593497532E+03  0.27895475423E+03  0.12500015211E+03 0.  0.
          2    1    1    2  501    0  0.96884746860E+01  0.34555030296E+02 -0.28271635211E+03  0.28498500384E+03  0.00000000000E+00 0. -1.
          1    1    1    2  502    0 -0.91461673887E+01 -0.75863754515E+02  0.10481310782E+04  0.10509128026E+04  0.00000000000E+00 0. -1.
         22    1    3    3    0    0 -0.45413731582E+02  0.41816435181E+02  0.54557319819E+02  0.82386421292E+02  0.00000000000E+00 0. -1.
         22    1    3    3    0    0  0.44871424284E+02 -0.50771096290E+00  0.19137765550E+03  0.19656833294E+03  0.00000000000E+00 0. -1.
</event>
<event>
 7    1  0.5127424E-006  0.5282269E+02  0.7818608E-02  0.1469028E+00
          2   -1    0    0  502    0  0.00000000000E+00  0.00000000000E+00  0.10630855234E+03  0.10630855234E+03  0.00000000000E+00 0. -1.
          1   -1    0    0  501    0 -0.00000000000E+00 -0.00000000000E+00 -0.40036240644E+03  0.40036240644E+03  0.00000000000E+00 0. -1.
         25    2    1    2    0    0 -0.34672693311E+02 -0.70638322263E+02 -0.27413140535E+02  0.15024568126E+03  0.12502126311E+03 0.  0.
          2    1    1    2  501    0  0.33840927975E+02  0.20985120982E+02 -0.29604615729E+03  0.29871208706E+03  0.00000000000E+00 0. -1.
          1    1    1    2  502    0  0.83176533514E+00  0.49653201281E+02  0.29405443734E+02  0.57713190453E+02  0.00000000000E+00 0. -1.
         22    1    3    3    0    0 -0.54350519028E+02 -0.75581348373E+01 -0.55860761095E+02  0.78304080041E+02  0.00000000000E+00 0.  1.
         22    1    3    3    0    0  0.19677825718E+02 -0.63080187426E+02  0.28447620560E+02  0.71941601221E+02  0.00000000000E+00 0.  1.
</event>
<event>
 7    1  0.5127424E-006  0.2085317E+03  0.7818608E-02  0.1240545E+00
          2   -1    0    0  502    0  0.00000000000E+00  0.00000000000E+00  0.13251375370E+04  0.13251375370E+04  0.00000000000E+00 0. -1.
          1   -1    0    0  501    0 -0.00000000000E+00 -0.00000000000E+00 -0.97453989179E+03  0.97453989179E+03  0.00000000000E+00 0. -1.
         25    2    1    2    0    0 -0.14923787449E+03 -0.39137331179E+02 -0.56844724064E+01  0.19864999681E+03  0.12500333648E+03 0.  0.
          2    1    1    2  501    0  0.19552710680E+03  0.92790520876E+02 -0.85790029583E+03  0.88477898249E+03  0.00000000000E+00 0. -1.
          1    1    1    2  502    0 -0.46289232316E+02 -0.53653189697E+02  0.12141824135E+04  0.12162484495E+04  0.00000000000E+00 0. -1.
         22    1    3    3    0    0 -0.41314637124E+02 -0.83863450372E+01  0.56390394238E+02  0.70406722592E+02  0.00000000000E+00 0. -1.
         22    1    3    3    0    0 -0.10792323737E+03 -0.30750986142E+02 -0.62074866645E+02  0.12824327421E+03  0.00000000000E+00 0. -1.
</event>
<event>
 7    1  0.5127424E-006  0.1147804E+03  0.7818608E-02  0.1396877E+00
          2   -1    0    0  502    0  0.00000000000E+00  0.00000000000E+00  0.15291910705E+03  0.15291910705E+03  0.00000000000E+00 0. -1.
          1   -1    0    0  501    0 -0.00000000000E+00 -0.00000000000E+00 -0.31172060515E+03  0.31172060515E+03  0.00000000000E+00 0. -1.
         25    2    1    2    0    0 -0.63579828930E+02 -0.60347409204E+02 -0.14976675011E+03  0.21386769666E+03  0.12500043116E+03 0.  0.
          2    1    1    2  501    0 -0.22681141504E+02 -0.22007521991E+02 -0.97362716878E+02  0.10236339112E+03  0.00000000000E+00 0. -1.
          1    1    1    2  502    0  0.86260970434E+02  0.82354931194E+02  0.88327968887E+02  0.14840862441E+03  0.00000000000E+00 0. -1.
         22    1    3    3    0    0  0.32760831556E+01 -0.65588389696E+02 -0.21451220266E+02  0.69084907430E+02  0.00000000000E+00 0. -1.
         22    1    3    3    0    0 -0.66855912086E+02  0.52409804922E+01 -0.12831552985E+03  0.14478278923E+03  0.00000000000E+00 0. -1.
</event>
<event>
 7    1  0.5127424E-006  0.3223399E+02  0.7818608E-02  0.1575526E+00
          2   -1    0    0  502    0  0.00000000000E+00  0.00000000000E+00  0.74414648538E+03  0.74414648538E+03  0.00000000000E+00 0. -1.
          1   -1    0    0  501    0 -0.00000000000E+00 -0.00000000000E+00 -0.99130154058E+02  0.99130154058E+02  0.00000000000E+00 0. -1.
         25    2    1    2    0    0 -0.10244722920E+02  0.42452466306E+01  0.25103656769E+03  0.28065522428E+03  0.12500008053E+03 0.  0.
          2    1    1    2  501    0  0.18736176013E+02  0.26664787332E+02 -0.80610995072E+02  0.86949339857E+02  0.00000000000E+00 0. -1.
          1    1    1    2  502    0 -0.84914530931E+01 -0.30910033963E+02  0.47459075870E+03  0.47567207530E+03  0.00000000000E+00 0. -1.
         22    1    3    3    0    0  0.38110908838E+02 -0.92625963941E+01  0.19618330087E+02  0.43853345822E+02  0.00000000000E+00 0.  1.
         22    1    3    3    0    0 -0.48355631758E+02  0.13507843025E+02  0.23141823760E+03  0.23680187846E+03  0.00000000000E+00 0.  1.
</event>
<event>
 7    1  0.5127424E-006  0.7545347E+02  0.7818608E-02  0.1376477E+00
          2   -1    0    0  502    0  0.00000000000E+00  0.00000000000E+00  0.13971008117E+04  0.13971008117E+04  0.00000000000E+00 0. -1.
          1   -1    0    0  501    0 -0.00000000000E+00 -0.00000000000E+00 -0.75235805587E+03  0.75235805587E+03  0.00000000000E+00 0. -1.
         25    2    1    2    0    0 -0.81076419241E+02  0.99071270570E+02 -0.18770351348E+02  0.17990417234E+03  0.12499873090E+03 0.  0.
          2    1    1    2  501    0  0.22920952262E+02 -0.51843623321E+02 -0.65072190615E+03  0.65318613770E+03  0.00000000000E+00 0. -1.
          1    1    1    2  502    0  0.58155466979E+02 -0.47227647249E+02  0.13142350134E+04  0.13163685576E+04  0.00000000000E+00 0. -1.
         22    1    3    3    0    0 -0.14810010575E+02  0.96580114709E+02 -0.46275149648E+02  0.10811310950E+03  0.00000000000E+00 0.  1.
         22    1    3    3    0    0 -0.66266408666E+02  0.24911558609E+01  0.27504798300E+02  0.71791062846E+02  0.00000000000E+00 0.  1.
</event>
<event>
 7    1  0.5127424E-006  0.2091745E+03  0.7818608E-02  0.1224044E+00
          2   -1    0    0  502    0  0.00000000000E+00  0.00000000000E+00  0.20999464328E+04  0.20999464328E+04  0.00000000000E+00 0. -1.
          1   -1    0    0  501    0 -0.00000000000E+00 -0.00000000000E+00 -0.14649060585E+03  0.14649060585E+03  0.00000000000E+00 0. -1.
         25    2    1    2    0    0 -0.24559321053E+03  0.49260563856E+02  0.12191488360E+04  0.12508762213E+04  0.12499923390E+03 0.  0.
          2    1    1    2  501    0  0.60373848707E+02 -0.57988090404E+02 -0.10598285793E+03  0.13505549382E+03  0.00000000000E+00 0. -1.
          1    1    1    2  502    0  0.18521936182E+03  0.87275265479E+01  0.84028984889E+03  0.86050532355E+03  0.00000000000E+00 0. -1.
         22    1    3    3    0    0 -0.14668457604E+03 -0.91084081082E+01  0.45504309800E+03  0.47818777586E+03  0.00000000000E+00 0. -1.
         22    1    3    3    0    0 -0.98908634494E+02  0.58368971964E+02  0.76410573801E+03  0.77268844545E+03  0.00000000000E+00 0. -1.
</event>
<event>
 7    1  0.5127424E-006  0.5518520E+02  0.7818608E-02  0.1477608E+00
          2   -1    0    0  502    0  0.00000000000E+00  0.00000000000E+00  0.53470127151E+03  0.53470127151E+03  0.00000000000E+00 0. -1.
          1   -1    0    0  501    0 -0.00000000000E+00 -0.00000000000E+00 -0.36122040701E+03  0.36122040701E+03  0.00000000000E+00 0. -1.
         25    2    1    2    0    0  0.25755901950E+02  0.25037420022E+02  0.95490236171E+01  0.13040937099E+03  0.12500072521E+03 0.  0.
          2    1    1    2  501    0  0.29932679350E+02 -0.19735175785E+02 -0.29802847465E+03  0.30017730454E+03  0.00000000000E+00 0. -1.
          1    1    1    2  502    0 -0.55688581300E+02 -0.53022442377E+01  0.46196031554E+03  0.46533500300E+03  0.00000000000E+00 0. -1.
         22    1    3    3    0    0 -0.45145154408E+02 -0.16087346775E+02  0.67315551835E+01  0.48396296635E+02  0.00000000000E+00 0. -1.
         22    1    3    3    0    0  0.70901056358E+02  0.41124766797E+02  0.28174684336E+01  0.82013074355E+02  0.00000000000E+00 0. -1.
</event>
<event>
 7    1  0.5127424E-006  0.5166488E+02  0.7818608E-02  0.1486935E+00
          2   -1    0    0  502    0  0.00000000000E+00  0.00000000000E+00  0.17839180692E+03  0.17839180692E+03  0.00000000000E+00 0. -1.
          1   -1    0    0  501    0 -0.00000000000E+00 -0.00000000000E+00 -0.97100968163E+03  0.97100968163E+03  0.00000000000E+00 0. -1.
         25    2    1    2    0    0  0.77560386638E+02 -0.30944361339E+02 -0.51496356994E+03  0.53645566892E+03  0.12499615705E+03 0.  0.
          2    1    1    2  501    0 -0.45451909156E+02  0.14972363625E+02 -0.44207607220E+03  0.44465863460E+03  0.00000000000E+00 0. -1.
          1    1    1    2  502    0 -0.32108477482E+02  0.15971997714E+02  0.16442176743E+03  0.16828718502E+03  0.00000000000E+00 0. -1.
         22    1    3    3    0    0  0.64755604619E+02 -0.28187862400E+02 -0.51817813461E+03  0.52296885481E+03  0.00000000000E+00 0.  1.
         22    1    3    3    0    0  0.12804782019E+02 -0.27564989385E+01  0.32145646644E+01  0.13486814114E+02  0.00000000000E+00 0.  1.
</event>
<event>
 7    1  0.5127424E-006  0.6509425E+02  0.7818608E-02  0.1475132E+00
          2   -1    0    0  502    0  0.00000000000E+00  0.00000000000E+00  0.69475659964E+03  0.69475659964E+03  0.00000000000E+00 0. -1.
          1   -1    0    0  501    0 -0.00000000000E+00 -0.00000000000E+00 -0.26886176269E+03  0.26886176269E+03  0.00000000000E+00 0. -1.
         25    2    1    2    0    0  0.36940145691E+02  0.79858732707E+02  0.23836670634E+03  0.28316486753E+03  0.12498665512E+03 0.  0.
          2    1    1    2  501    0 -0.10423790999E+02 -0.63927152233E+02 -0.24164078753E+03  0.25017115423E+03  0.00000000000E+00 0. -1.
          1    1    1    2  502    0 -0.26516354692E+02 -0.15931580474E+02  0.42916891813E+03  0.43028234058E+03  0.00000000000E+00 0. -1.
         22    1    3    3    0    0  0.80620986408E+02  0.41729165143E+02  0.11229899505E+03  0.14440266952E+03  0.00000000000E+00 0.  1.
         22    1    3    3    0    0 -0.43680840717E+02  0.38129567564E+02  0.12606771129E+03  0.13876219802E+03  0.00000000000E+00 0.  1.
</event>
<event>
 7    1  0.5127424E-006  0.1429760E+03  0.7818608E-02  0.1324542E+00
          2   -1    0    0  502    0  0.00000000000E+00  0.00000000000E+00  0.12821216319E+04  0.12821216319E+04  0.00000000000E+00 0. -1.
          1   -1    0    0  501    0 -0.00000000000E+00 -0.00000000000E+00 -0.31404095291E+03  0.31404095291E+03  0.00000000000E+00 0. -1.
         25    2    1    2    0    0  0.66876499280E+02 -0.15636667266E+03  0.43754344620E+03  0.48578983733E+03  0.12499798504E+03 0.  0.
          2    1    1    2  501    0  0.12977416370E+02  0.44739167219E+02 -0.28225534969E+03  0.28607357244E+03  0.00000000000E+00 0. -1.
          1    1    1    2  502    0 -0.79853915650E+02  0.11162750544E+03  0.81279258252E+03  0.82429917507E+03  0.00000000000E+00 0. -1.
         22    1    3    3    0    0  0.72576507082E+02 -0.12805003486E+03  0.21014357603E+03  0.25656282536E+03  0.00000000000E+00 0.  1.
         22    1    3    3    0    0 -0.57000078020E+01 -0.28316637802E+02  0.22739987017E+03  0.22922701197E+03  0.00000000000E+00 0.  1.
</event>
<event>
 7    1  0.5127424E-006  0.3947081E+02  0.7818608E-02  0.1531746E+00
          2   -1    0    0  502    0  0.00000000000E+00  0.00000000000E+00  0.60852065494E+02  0.60852065494E+02  0.00000000000E+00 0. -1.
          1   -1    0    0  501    0 -0.00000000000E+00 -0.00000000000E+00 -0.12944153223E+04  0.12944153223E+04  0.00000000000E+00 0. -1.
         25    2    1    2    0    0  0.44559388979E+02 -0.15048200455E+02 -0.11218932759E+03  0.17442133957E+03  0.12499748393E+03 0.  0.
          2    1    1    2  501    0 -0.16822711687E+02  0.35788325319E+02 -0.11405654022E+04  0.11412507369E+04  0.00000000000E+00 0. -1.
          1    1    1    2  502    0 -0.27736677292E+02 -0.20740124863E+02  0.19191472935E+02  0.39595311338E+02  0.00000000000E+00 0. -1.
         22    1    3    3    0    0  0.81484679460E+02  0.89258293368E+01 -0.98856679174E+02  0.12842144071E+03  0.00000000000E+00 0. -1.
         22    1    3    3    0    0 -0.36925290481E+02 -0.23974029792E+02 -0.13332648414E+02  0.45999898862E+02  0.00000000000E+00 0. -1.
</event>
<event>
 7    1  0.5127424E-006  0.5272029E+02  0.7818608E-02  0.1535715E+00
          2   -1    0    0  502    0  0.00000000000E+00  0.00000000000E+00  0.12522739876E+03  0.12522739876E+03  0.00000000000E+00 0. -1.
          1   -1    0    0  501    0 -0.00000000000E+00 -0.00000000000E+00 -0.32982134588E+03  0.32982134588E+03  0.00000000000E+00 0. -1.
         25    2    1    2    0    0  0.15448743581E+02  0.42862038165E+02 -0.21870653491E+03  0.25599480455E+03  0.12499989421E+03 0.  0.
          2    1    1    2  501    0  0.51149211691E+01 -0.57536566142E+02 -0.81649135264E+02  0.10001599948E+03  0.00000000000E+00 0. -1.
          1    1    1    2  502    0 -0.20563664750E+02  0.14674527978E+02  0.95761723048E+02  0.99037940611E+02  0.00000000000E+00 0. -1.
         22    1    3    3    0    0  0.47625108168E+02  0.46274202198E+02 -0.21303558777E+03  0.22314482825E+03  0.00000000000E+00 0.  1.
         22    1    3    3    0    0 -0.32176364587E+02 -0.34121640339E+01 -0.56709471329E+01  0.32849976299E+02  0.00000000000E+00 0.  1.
</event>
<event>
 7    1  0.5127424E-006  0.1125757E+03  0.7818608E-02  0.1311457E+00
          2   -1    0    0  502    0  0.00000000000E+00  0.00000000000E+00  0.20415151126E+03  0.20415151126E+03  0.00000000000E+00 0. -1.
          1   -1    0    0  501    0 -0.00000000000E+00 -0.00000000000E+00 -0.12944575750E+04  0.12944575750E+04  0.00000000000E+00 0. -1.
         25    2    1    2    0    0 -0.41952235325E+02  0.82084589155E+02 -0.51774520540E+03  0.54053946420E+03  0.12499977927E+03 0.  0.
          2    1    1    2  501    0  0.10689093193E+03 -0.67649375596E+02 -0.75414635638E+03  0.76468217986E+03  0.00000000000E+00 0. -1.
          1    1    1    2  502    0 -0.64938696609E+02 -0.14435213559E+02  0.18158549804E+03  0.19338744221E+03  0.00000000000E+00 0. -1.
         22    1    3    3    0    0  0.31215441168E+02 -0.44250752057E+01 -0.21476900664E+03  0.21707075176E+03  0.00000000000E+00 0.  1.
         22    1    3    3    0    0 -0.73167676492E+02  0.86509664361E+02 -0.30297619877E+03  0.32346871244E+03  0.00000000000E+00 0.  1.
</event>
<event>
 7    1  0.5127424E-006  0.1544114E+03  0.7818608E-02  0.1273828E+00
          2   -1    0    0  502    0  0.00000000000E+00  0.00000000000E+00  0.31091023687E+04  0.31091023687E+04  0.00000000000E+00 0. -1.
          1   -1    0    0  501    0 -0.00000000000E+00 -0.00000000000E+00 -0.28146917531E+04  0.28146917531E+04  0.00000000000E+00 0. -1.
         25    2    1    2    0    0 -0.17592111631E+03  0.97178610448E+02 -0.79407419339E+03  0.82859569194E+03  0.12500029841E+03 0.  0.
          2    1    1    2  501    0  0.25181678491E+02 -0.64126313154E+02 -0.20008379589E+04  0.20020236858E+04  0.00000000000E+00 0. -1.
          1    1    1    2  502    0  0.15073943782E+03 -0.33052297293E+02  0.30893227679E+04  0.30931747439E+04  0.00000000000E+00 0. -1.
         22    1    3    3    0    0 -0.13593965264E+03  0.12675726466E+03 -0.59206704312E+03  0.62055650577E+03  0.00000000000E+00 0.  1.
         22    1    3    3    0    0 -0.39981463672E+02 -0.29578654215E+02 -0.20200715027E+03  0.20803918617E+03  0.00000000000E+00 0.  1.
</event>
<event>
 7    1  0.5127424E-006  0.8523679E+02  0.7818608E-02  0.1422196E+00
          2   -1    0    0  502    0  0.00000000000E+00  0.00000000000E+00  0.18645747073E+04  0.18645747073E+04  0.00000000000E+00 0. -1.
          1   -1    0    0  501    0 -0.00000000000E+00 -0.00000000000E+00 -0.16500076346E+03  0.16500076346E+03  0.00000000000E+00 0. -1.
         25    2    1    2    0    0 -0.92396360268E+02  0.13529607191E+02  0.29198388421E+03  0.33105595308E+03  0.12499327091E+03 0.  0.
          2    1    1    2  501    0  0.73556827021E+02 -0.42934766313E+02 -0.13278289044E+03  0.15775074311E+03  0.00000000000E+00 0. -1.
          1    1    1    2  502    0  0.18839533247E+02  0.29405159122E+02  0.15403729501E+04  0.15407687746E+04  0.00000000000E+00 0. -1.
         22    1    3    3    0    0 -0.94977834121E+02  0.58110949058E+02  0.21095544616E+03  0.23853693978E+03  0.00000000000E+00 0.  1.
         22    1    3    3    0    0  0.25814738532E+01 -0.44581341867E+02  0.81028438052E+02  0.92519013306E+02  0.00000000000E+00 0.  1.
</event>
<event>
 7    1  0.5127424E-006  0.1367124E+03  0.7818608E-02  0.1300560E+00
          2   -1    0    0  502    0  0.00000000000E+00  0.00000000000E+00  0.94413561768E+03  0.94413561768E+03  0.00000000000E+00 0. -1.
          1   -1    0    0  501    0 -0.00000000000E+00 -0.00000000000E+00 -0.91830546867E+03  0.91830546867E+03  0.00000000000E+00 0. -1.
         25    2    1    2    0    0 -0.48593578870E+02 -0.17928009130E+03 -0.73321125452E+03  0.76663199902E+03  0.12499276428E+03 0.  0.
          2    1    1    2  501    0  0.42572442551E+02  0.43000649244E+02 -0.15773306161E+03  0.16894137274E+03  0.00000000000E+00 0. -1.
          1    1    1    2  502    0  0.60211363193E+01  0.13627944206E+03  0.91677446514E+03  0.92686771459E+03  0.00000000000E+00 0. -1.
         22    1    3    3    0    0 -0.29439955182E+01 -0.16595455080E+03 -0.45377920100E+03  0.48318230856E+03  0.00000000000E+00 0. -1.
         22    1    3    3    0    0 -0.45649583352E+02 -0.13325540501E+02 -0.27943205352E+03  0.28344969046E+03  0.00000000000E+00 0. -1.
</event>
<event>
 7    1  0.5127424E-006  0.6550828E+02  0.7818608E-02  0.1417533E+00
          2   -1    0    0  502    0  0.00000000000E+00  0.00000000000E+00  0.10739295561E+03  0.10739295561E+03  0.00000000000E+00 0. -1.
          1   -1    0    0  501    0 -0.00000000000E+00 -0.00000000000E+00 -0.17688441686E+04  0.17688441686E+04  0.00000000000E+00 0. -1.
         25    2    1    2    0    0  0.40978434351E+02  0.21131827831E+02 -0.19800590547E+03  0.23864998606E+03  0.12498676336E+03 0.  0.
          2    1    1    2  501    0 -0.19607614808E+02  0.42823740285E+02 -0.15370456572E+04  0.15377671097E+04  0.00000000000E+00 0. -1.
          1    1    1    2  502    0 -0.21370819544E+02 -0.63955568116E+02  0.73600349646E+02  0.99820028497E+02  0.00000000000E+00 0. -1.
         22    1    3    3    0    0 -0.44333711986E+02  0.10398013696E+02 -0.51231892198E+02  0.68544171783E+02  0.00000000000E+00 0.  1.
         22    1    3    3    0    0  0.85312146338E+02  0.10733814135E+02 -0.14677401327E+03  0.17010581428E+03  0.00000000000E+00 0.  1.
</event>
<event>
 7    1  0.5127424E-006  0.2559937E+02  0.7818608E-02  0.1684748E+00
          2   -1    0    0  502    0  0.00000000000E+00  0.00000000000E+00  0.55287506518E+03  0.55287506518E+03  0.00000000000E+00 0. -1.
          1   -1    0    0  501    0 -0.00000000000E+00 -0.00000000000E+00 -0.42555890797E+02  0.42555890797E+02  0.00000000000E+00 0. -1.
         25    2    1    2    0    0  0.44443189927E+02  0.58733530545E+01  0.10584710465E+03  0.16981566093E+03  0.12499622285E+03 0.  0.
          2    1    1    2  501    0 -0.23711712081E+02 -0.44182730142E+00  0.33851324829E+01  0.23956202185E+02  0.00000000000E+00 0. -1.
          1    1    1    2  502    0 -0.20731477846E+02 -0.54315257531E+01  0.40108693725E+03  0.40165909286E+03  0.00000000000E+00 0. -1.
         22    1    3    3    0    0  0.12298482858E+02 -0.43617223628E+02 -0.36121073223E+01  0.45461656337E+02  0.00000000000E+00 0. -1.
         22    1    3    3    0    0  0.32144707069E+02  0.49490576682E+02  0.10945921197E+03  0.12435400459E+03  0.00000000000E+00 0. -1.
</event>
<event>
 7    1  0.5127424E-006  0.8854673E+02  0.7818608E-02  0.1342757E+00
          2   -1    0    0  502    0  0.00000000000E+00  0.00000000000E+00  0.28048620002E+03  0.28048620002E+03  0.00000000000E+00 0. -1.
          1   -1    0    0  501    0 -0.00000000000E+00 -0.00000000000E+00 -0.17040991549E+04  0.17040991549E+04  0.00000000000E+00 0. -1.
         25    2    1    2    0    0 -0.76767347685E+02  0.15970639875E+02  0.21850736894E+02  0.14916787250E+03  0.12500124989E+03 0.  0.
          2    1    1    2  501    0 -0.35309604074E+01 -0.64041629481E+02 -0.16285424841E+04  0.16298050253E+04  0.00000000000E+00 0. -1.
          1    1    1    2  502    0  0.80298308093E+02  0.48070989606E+02  0.18307879233E+03  0.20561245712E+03  0.00000000000E+00 0. -1.
         22    1    3    3    0    0 -0.17298153058E+02 -0.24678562712E+01  0.68929914971E+02  0.71110122991E+02  0.00000000000E+00 0.  1.
         22    1    3    3    0    0 -0.59469194627E+02  0.18438496146E+02 -0.47079178077E+02  0.78057749507E+02  0.00000000000E+00 0.  1.
</event>
<event>
 7    1  0.5127424E-006  0.1114214E+03  0.7818608E-02  0.1356595E+00
          2   -1    0    0  502    0  0.00000000000E+00  0.00000000000E+00  0.26034352961E+03  0.26034352961E+03  0.00000000000E+00 0. -1.
          1   -1    0    0  501    0 -0.00000000000E+00 -0.00000000000E+00 -0.17016101572E+04  0.17016101572E+04  0.00000000000E+00 0. -1.
         25    2    1    2    0    0  0.86070361691E+02  0.20211842097E+01  0.12773508940E+02  0.15231681504E+03  0.12500022906E+03 0.  0.
          2    1    1    2  501    0  0.27371477730E+02  0.36085901508E+02 -0.16113473340E+04  0.16119837533E+04  0.00000000000E+00 0. -1.
          1    1    1    2  502    0 -0.11344183942E+03 -0.38107085717E+02  0.15730719741E+03  0.19765311854E+03  0.00000000000E+00 0. -1.
         22    1    3    3    0    0  0.21091741734E+02 -0.49567180018E+02 -0.27059873484E+02  0.60282697827E+02  0.00000000000E+00 0. -1.
         22    1    3    3    0    0  0.64978619956E+02  0.51588364228E+02  0.39833382423E+02  0.92034117209E+02  0.00000000000E+00 0. -1.
</event>
<event>
 7    1  0.5127424E-006  0.4849218E+02  0.7818608E-02  0.1529118E+00
          2   -1    0    0  502    0  0.00000000000E+00  0.00000000000E+00  0.67322420850E+03  0.67322420850E+03  0.00000000000E+00 0. -1.
          1   -1    0    0  501    0 -0.00000000000E+00 -0.00000000000E+00 -0.42693505993E+03  0.42693505993E+03  0.00000000000E+00 0. -1.
         25    2    1    2    0    0 -0.18210374981E+01 -0.21655245615E+02  0.11266619279E+03  0.16967695336E+03  0.12499732662E+03 0.  0.
          2    1    1    2  501    0  0.79357125677E+01 -0.27563290403E+02 -0.39675499798E+03  0.39779044601E+03  0.00000000000E+00 0. -1.
          1    1    1    2  502    0 -0.61146750695E+01  0.49218536018E+02  0.53037795376E+03  0.53269186907E+03  0.00000000000E+00 0. -1.
         22    1    3    3    0    0 -0.23732644912E+02 -0.15653648289E+02  0.13491526918E+03  0.13787822524E+03  0.00000000000E+00 0.  1.
         22    1    3    3    0    0  0.21911607414E+02 -0.60015973254E+01 -0.22249076383E+02  0.31798728116E+02  0.00000000000E+00 0.  1.
</event>
<event>
 7    1  0.5127424E-006  0.2498354E+03  0.7818608E-02  0.1277771E+00
          2   -1    0    0  502    0  0.00000000000E+00  0.00000000000E+00  0.16487394846E+04  0.16487394846E+04  0.00000000000E+00 0. -1.
          1   -1    0    0  501    0 -0.00000000000E+00 -0.00000000000E+00 -0.51504174929E+02  0.51504174929E+02  0.00000000000E+00 0. -1.
         25    2    1    2    0    0 -0.16740614171E+03  0.16042006682E+03  0.60328183842E+03  0.65828069519E+03  0.12500033189E+03 0.  0.
          2    1    1    2  501    0 -0.40986917188E+02 -0.10856919704E+01  0.66497485868E+02  0.78121839036E+02  0.00000000000E+00 0. -1.
          1    1    1    2  502    0  0.20839305889E+03 -0.15933437485E+03  0.92745598540E+03  0.96384112532E+03  0.00000000000E+00 0. -1.
         22    1    3    3    0    0 -0.44933624943E+02  0.12725689453E+03  0.27497192456E+03  0.30630525159E+03  0.00000000000E+00 0. -1.
         22    1    3    3    0    0 -0.12247251676E+03  0.33163172296E+02  0.32830991387E+03  0.35197544361E+03  0.00000000000E+00 0. -1.
</event>
<event>
 7    1  0.5127424E-006  0.8847964E+02  0.7818608E-02  0.1444626E+00
          2   -1    0    0  502    0  0.00000000000E+00  0.00000000000E+00  0.42330070422E+02  0.42330070422E+02  0.00000000000E+00 0. -1.
          1   -1    0    0  501    0 -0.00000000000E+00 -0.00000000000E+00 -0.22812106132E+04  0.22812106132E+04  0.00000000000E+00 0. -1.
         25    2    1    2    0    0 -0.28689686854E+02  0.73942747970E+02 -0.29002019676E+03  0.32561692778E+03  0.12499616403E+03 0.  0.
          2    1    1    2  501    0  0.56648287455E+02 -0.68924425437E+02 -0.19638025044E+04  0.19658280396E+04  0.00000000000E+00 0. -1.
          1    1    1    2  502    0 -0.27958600601E+02 -0.50183225325E+01  0.14942158346E+02  0.32095716297E+02  0.00000000000E+00 0. -1.
         22    1    3    3    0    0  0.24339018374E+02  0.66673487606E+02 -0.24685305773E+03  0.25685438263E+03  0.00000000000E+00 0.  1.
         22    1    3    3    0    0 -0.53028705228E+02  0.72692603634E+01 -0.43167139028E+02  0.68762545155E+02  0.00000000000E+00 0.  1.
</event>
<event>
 7    1  0.5127424E-006  0.1578184E+03  0.7818608E-02  0.1252683E+00
          2   -1    0    0  502    0  0.00000000000E+00  0.00000000000E+00  0.15761515835E+04  0.15761515835E+04  0.00000000000E+00 0. -1.
          1   -1    0    0  501    0 -0.00000000000E+00 -0.00000000000E+00 -0.16837390959E+04  0.16837390959E+04  0.00000000000E+00 0. -1.
         25    2    1    2    0    0  0.22099784387E+03 -0.82006015083E+02  0.12200567915E+03  0.29340712141E+03  0.12504926885E+03 0.  0.
          2    1    1    2  501    0 -0.13867787523E+03  0.72347140138E+02 -0.15929493324E+04  0.16006102703E+04  0.00000000000E+00 0. -1.
          1    1    1    2  502    0 -0.82319968639E+02  0.96588749445E+01  0.13633561409E+04  0.13658732877E+04  0.00000000000E+00 0. -1.
         22    1    3    3    0    0  0.13790814927E+01 -0.85031588506E+01  0.50206627384E+02  0.50940269036E+02  0.00000000000E+00 0. -1.
         22    1    3    3    0    0  0.21961876238E+03 -0.73502856232E+02  0.71799051763E+02  0.24246685237E+03  0.00000000000E+00 0. -1.
</event>
<event>
 7    1  0.5127424E-006  0.6514066E+02  0.7818608E-02  0.1460389E+00
          2   -1    0    0  502    0  0.00000000000E+00  0.00000000000E+00  0.57066420099E+02  0.57066420099E+02  0.00000000000E+00 0. -1.
          1   -1    0    0  501    0 -0.00000000000E+00 -0.00000000000E+00 -0.20436243269E+04  0.20436243269E+04  0.00000000000E+00 0. -1.
         25    2    1    2    0    0  0.55881666666E+02 -0.66295890915E+02 -0.10431682090E+03  0.18445660747E+03  0.12499734035E+03 0.  0.
          2    1    1    2  501    0 -0.56515263582E+02  0.31935030385E+02 -0.18807135690E+04  0.18818335074E+04  0.00000000000E+00 0. -1.
          1    1    1    2  502    0  0.63359691574E+00  0.34360860530E+02 -0.15275169373E+01  0.34400632108E+02  0.00000000000E+00 0. -1.
         22    1    3    3    0    0  0.82833709831E+02 -0.33871846767E+02 -0.22286486135E+02  0.92224795755E+02  0.00000000000E+00 0. -1.
         22    1    3    3    0    0 -0.26952043165E+02 -0.32424044148E+02 -0.82030334768E+02  0.92231811713E+02  0.00000000000E+00 0. -1.
</event>
<event>
 7    1  0.5127424E-006  0.3470208E+02  0.7818608E-02  0.1560051E+00
          2   -1    0    0  502    0  0.00000000000E+00  0.00000000000E+00  0.10580484002E+03  0.10580484002E+03  0.00000000000E+00 0. -1.
          1   -1    0    0  501    0 -0.00000000000E+00 -0.00000000000E+00 -0.37817727564E+03  0.37817727564E+03  0.00000000000E+00 0. -1.
         25    2    1    2    0    0 -0.87339308306E+01 -0.15124204157E+01 -0.23072608312E+03  0.26257075120E+03  0.12502121816E+03 0.  0.
          2    1    1    2  501    0  0.29901481376E+02  0.26582665433E+02 -0.12531085790E+03  0.13154295039E+03  0.00000000000E+00 0. -1.
          1    1    1    2  502    0 -0.21167550546E+02 -0.25070245017E+02  0.83664505403E+02  0.89868414060E+02  0.00000000000E+00 0. -1.
         22    1    3    3    0    0 -0.26486017293E+02 -0.26949996111E+02 -0.22835567858E+03  0.23146085488E+03  0.00000000000E+00 0.  1.
         22    1    3    3    0    0  0.17752086462E+02  0.25437575696E+02 -0.23704045362E+01  0.31109896314E+02  0.00000000000E+00 0.  1.
</event>
<event>
 7    1  0.5127424E-006  0.6319080E+02  0.7818608E-02  0.1433354E+00
          2   -1    0    0  502    0  0.00000000000E+00  0.00000000000E+00  0.21788120581E+04  0.21788120581E+04  0.00000000000E+00 0. -1.
          1   -1    0    0  501    0 -0.00000000000E+00 -0.00000000000E+00 -0.14977697993E+04  0.14977697993E+04  0.00000000000E+00 0. -1.
         25    2    1    2    0    0 -0.86040946474E+02 -0.44962689697E+01  0.40672918580E+03  0.43413771897E+03  0.12499467006E+03 0.  0.
          2    1    1    2  501    0  0.32683922039E+02 -0.28361848734E+02 -0.14831915832E+04  0.14838227339E+04  0.00000000000E+00 0. -1.
          1    1    1    2  502    0  0.53357024435E+02  0.32858117703E+02  0.17575046562E+04  0.17586214045E+04  0.00000000000E+00 0. -1.
         22    1    3    3    0    0 -0.21125292715E+02 -0.22170054235E+02  0.33269104411E+03  0.33409747100E+03  0.00000000000E+00 0.  1.
         22    1    3    3    0    0 -0.64915653759E+02  0.17673785265E+02  0.74038141690E+02  0.10004024797E+03  0.00000000000E+00 0.  1.
</event>
<event>
 7    1  0.5127424E-006  0.7208791E+02  0.7818608E-02  0.1506684E+00
          2   -1    0    0  502    0  0.00000000000E+00  0.00000000000E+00  0.15292570317E+04  0.15292570317E+04  0.00000000000E+00 0. -1.
          1   -1    0    0  501    0 -0.00000000000E+00 -0.00000000000E+00 -0.22984575808E+03  0.22984575808E+03  0.00000000000E+00 0. -1.
         25    2    1    2    0    0 -0.90326325428E+02 -0.19644410747E+02 -0.11689737907E+03  0.19453067967E+03  0.12502975710E+03 0.  0.
          2    1    1    2  501    0  0.18719310064E+02  0.12351234694E+02 -0.71545398287E+02  0.74978060683E+02  0.00000000000E+00 0. -1.
          1    1    1    2  502    0  0.71607015363E+02  0.72931760536E+01  0.14878540510E+04  0.14895940494E+04  0.00000000000E+00 0. -1.
         22    1    3    3    0    0 -0.23586086730E+02 -0.18515016579E+02 -0.12384221562E+03  0.12742057800E+03  0.00000000000E+00 0.  1.
         22    1    3    3    0    0 -0.66740238698E+02 -0.11293941679E+01  0.69448365492E+01  0.67110101679E+02  0.00000000000E+00 0.  1.
</event>
<event>
 7    1  0.5127424E-006  0.9039267E+02  0.7818608E-02  0.1432636E+00
          2   -1    0    0  502    0  0.00000000000E+00  0.00000000000E+00  0.77578194359E+03  0.77578194359E+03  0.00000000000E+00 0. -1.
          1   -1    0    0  501    0 -0.00000000000E+00 -0.00000000000E+00 -0.12141094962E+03  0.12141094962E+03  0.00000000000E+00 0. -1.
         25    2    1    2    0    0  0.60359219809E+01  0.65928390271E+02  0.19648339080E+03  0.24209373206E+03  0.12498266779E+03 0.  0.
          2    1    1    2  501    0 -0.25396360456E+02 -0.89386797926E+02 -0.76183915413E+02  0.12016223922E+03  0.00000000000E+00 0. -1.
          1    1    1    2  502    0  0.19360438475E+02  0.23458407655E+02  0.53407151859E+03  0.53493692192E+03  0.00000000000E+00 0. -1.
         22    1    3    3    0    0 -0.45465265451E+02  0.37719025661E+01  0.12916908397E+03  0.13698894066E+03  0.00000000000E+00 0. -1.
         22    1    3    3    0    0  0.51501187432E+02  0.62156487705E+02  0.67314306830E+02  0.10510479140E+03  0.00000000000E+00 0. -1.
</event>
<event>
 7    1  0.5127424E-006  0.7823174E+02  0.7818608E-02  0.1394065E+00
          2   -1    0    0  502    0  0.00000000000E+00  0.00000000000E+00  0.18607613490E+04  0.18607613490E+04  0.00000000000E+00 0. -1.
          1   -1    0    0  501    0 -0.00000000000E+00 -0.00000000000E+00 -0.46051924061E+03  0.46051924061E+03  0.00000000000E+00 0. -1.
         25    2    1    2    0    0 -0.88513959885E+02  0.21408457359E+02 -0.33384671803E+03  0.36792757477E+03  0.12499610393E+03 0.  0.
          2    1    1    2  501    0  0.70509075129E+02  0.22458807515E+02 -0.96803004728E+02  0.12184723811E+03  0.00000000000E+00 0. -1.
          1    1    1    2  502    0  0.18004884756E+02 -0.43867264874E+02  0.18308918311E+04  0.18315057767E+04  0.00000000000E+00 0. -1.
         22    1    3    3    0    0 -0.11394503770E+03 -0.44778101848E+00 -0.29699373307E+03  0.31810210563E+03  0.00000000000E+00 0.  1.
         22    1    3    3    0    0  0.25431077812E+02  0.21856238378E+02 -0.36852984960E+02  0.49825469141E+02  0.00000000000E+00 0.  1.
</event>
<event>
 7    1  0.8363613E-006  0.4842415E+02  0.7818608E-02  0.1500000E+00
          2   -1    0    0  502    0  0.00000000000E+00  0.00000000000E+00  0.18344504250E+04  0.18344504250E+04  0.00000000000E+00 0. -1.
          1   -1    0    0  501    0 -0.00000000000E+00 -0.00000000000E+00 -0.87698875925E+03  0.87698875925E+03  0.00000000000E+00 0. -1.
         25    2    1    2    0    0  0.32758343190E+02  0.33512229072E+02 -0.21288898273E+03  0.25127834865E+03  0.12499164366E+03 0.  0.
          2    1    1    2  501    0 -0.49012108150E+02 -0.25736608239E+01 -0.64380276791E+03  0.64567082514E+03  0.00000000000E+00 0. -1.
          1    1    1    2  502    0  0.16253764960E+02 -0.30938568248E+02  0.18141534164E+04  0.18144900104E+04  0.00000000000E+00 0. -1.
         22    1    3    3    0    0 -0.10343882036E+02  0.73547893017E+02 -0.10920254530E+03  0.13206621204E+03  0.00000000000E+00 0. -1.
         22    1    3    3    0    0  0.43102225226E+02 -0.40035663945E+02 -0.10368643743E+03  0.11921213661E+03  0.00000000000E+00 0. -1.
</event>
<event>
 7    1  0.5127424E-006  0.5885493E+02  0.7818608E-02  0.1424646E+00
          2   -1    0    0  502    0  0.00000000000E+00  0.00000000000E+00  0.21893083133E+02  0.21893083133E+02  0.00000000000E+00 0. -1.
          1   -1    0    0  501    0 -0.00000000000E+00 -0.00000000000E+00 -0.23682547267E+04  0.23682547267E+04  0.00000000000E+00 0. -1.
         25    2    1    2    0    0  0.47442370008E+02 -0.94343313461E+02 -0.13925189714E+04  0.14021005991E+04  0.12500225926E+03 0.  0.
          2    1    1    2  501    0 -0.29290695920E+02  0.40073956021E+02 -0.92045978516E+03  0.92179720270E+03  0.00000000000E+00 0. -1.
          1    1    1    2  502    0 -0.18151674088E+02  0.54269357440E+02 -0.33382887020E+02  0.66250008113E+02  0.00000000000E+00 0. -1.
         22    1    3    3    0    0  0.73871361585E+02 -0.99452664699E+02 -0.12957042163E+04  0.13016133169E+04  0.00000000000E+00 0.  1.
         22    1    3    3    0    0 -0.26428991577E+02  0.51093512386E+01 -0.96814755130E+02  0.10048728216E+03  0.00000000000E+00 0.  1.
</event>
<event>
 7    1  0.5127424E-006  0.3236587E+02  0.7818608E-02  0.1634280E+00
          2   -1    0    0  502    0  0.00000000000E+00  0.00000000000E+00  0.14688270542E+03  0.14688270542E+03  0.00000000000E+00 0. -1.
          1   -1    0    0  501    0 -0.00000000000E+00 -0.00000000000E+00 -0.15819497721E+04  0.15819497721E+04  0.00000000000E+00 0. -1.
         25    2    1    2    0    0  0.23087422064E+02 -0.49529844508E+02 -0.46326838443E+01  0.13650311621E+03  0.12500161767E+03 0.  0.
          2    1    1    2  501    0 -0.15288870928E+02  0.28461162882E+02 -0.15096469563E+04  0.15099926225E+04  0.00000000000E+00 0. -1.
          1    1    1    2  502    0 -0.77985511357E+01  0.21068681625E+02  0.79212573514E+02  0.82336738750E+02  0.00000000000E+00 0. -1.
         22    1    3    3    0    0  0.35505103688E+02  0.15239565039E+02  0.40975905929E+02  0.56319460200E+02  0.00000000000E+00 0. -1.
         22    1    3    3    0    0 -0.12417681624E+02 -0.64769409547E+02 -0.45608589773E+02  0.80183656009E+02  0.00000000000E+00 0. -1.
</event>
<event>
 7    1  0.5127424E-006  0.9100998E+02  0.7818608E-02  0.1468068E+00
          2   -1    0    0  502    0  0.00000000000E+00  0.00000000000E+00  0.22297939737E+04  0.22297939737E+04  0.00000000000E+00 0. -1.
          1   -1    0    0  501    0 -0.00000000000E+00 -0.00000000000E+00 -0.10380787551E+02  0.10380787551E+02  0.00000000000E+00 0. -1.
         25    2    1    2    0    0 -0.67303334651E+02 -0.39122162788E+02  0.17386401218E+04  0.17448651847E+04  0.12499902885E+03 0.  0.
          2    1    1    2  501    0  0.89166421433E+02  0.31150226803E+02  0.41264974966E+03  0.42332115850E+03  0.00000000000E+00 0. -1.
          1    1    1    2  502    0 -0.21863086783E+02  0.79719359851E+01  0.68123314665E+02  0.71988418012E+02  0.00000000000E+00 0. -1.
         22    1    3    3    0    0 -0.21947903357E+02  0.23366948003E+01  0.14298483741E+04  0.14300187214E+04  0.00000000000E+00 0. -1.
         22    1    3    3    0    0 -0.45355431294E+02 -0.41458857588E+02  0.30879174772E+03  0.31484646335E+03  0.00000000000E+00 0. -1.
</event>
<event>
 7    1  0.5127424E-006  0.7202369E+02  0.7818608E-02  0.1406761E+00
          2   -1    0    0  502    0  0.00000000000E+00  0.00000000000E+00  0.26174763256E+04  0.26174763256E+04  0.00000000000E+00 0. -1.
          1   -1    0    0  501    0 -0.00000000000E+00 -0.00000000000E+00 -0.91001636040E+02  0.91001636040E+02  0.00000000000E+00 0. -1.
         25    2    1    2    0    0 -0.10448359126E+03 -0.18823344977E+02  0.17155339562E+04  0.17233552033E+04  0.12500105089E+03 0.  0.
          2    1    1    2  501    0  0.46324654876E+02 -0.48979112454E+01 -0.79675826580E+02  0.92294097997E+02  0.00000000000E+00 0. -1.
          1    1    1    2  502    0  0.58158936387E+02  0.23721256223E+02  0.89061655991E+03  0.89282866030E+03  0.00000000000E+00 0. -1.
         22    1    3    3    0    0  0.14980157135E+02 -0.35090575272E+01  0.77351207227E+03  0.77366507259E+03  0.00000000000E+00 0. -1.
         22    1    3    3    0    0 -0.11946374840E+03 -0.15314287450E+02  0.94202188392E+03  0.94969013071E+03  0.00000000000E+00 0. -1.
</event>
<event>
 7    1  0.5127424E-006  0.2023841E+03  0.7818608E-02  0.1293461E+00
          2   -1    0    0  502    0  0.00000000000E+00  0.00000000000E+00  0.27543012509E+04  0.27543012509E+04  0.00000000000E+00 0. -1.
          1   -1    0    0  501    0 -0.00000000000E+00 -0.00000000000E+00 -0.18994555120E+03  0.18994555120E+03  0.00000000000E+00 0. -1.
         25    2    1    2    0    0 -0.10141023925E+03  0.15133944170E+03 -0.25308510407E+02  0.22238177913E+03  0.12500188699E+03 0.  0.
          2    1    1    2  501    0  0.24000704108E+02  0.36462651852E+02 -0.54546610725E+02  0.69863377526E+02  0.00000000000E+00 0. -1.
          1    1    1    2  502    0  0.77409535146E+02 -0.18780209355E+03  0.26442108208E+04  0.26520016454E+04  0.00000000000E+00 0. -1.
         22    1    3    3    0    0 -0.62572712622E+02 -0.20474255851E+01 -0.10246846129E+02  0.63439216357E+02  0.00000000000E+00 0.  1.
         22    1    3    3    0    0 -0.38837526633E+02  0.15338686728E+03 -0.15061664278E+02  0.15894256277E+03  0.00000000000E+00 0.  1.
</event>
<event>
 7    1  0.5127424E-006  0.7812859E+02  0.7818608E-02  0.1428139E+00
          2   -1    0    0  502    0  0.00000000000E+00  0.00000000000E+00  0.33488773427E+03  0.33488773427E+03  0.00000000000E+00 0. -1.
          1   -1    0    0  501    0 -0.00000000000E+00 -0.00000000000E+00 -0.22721326310E+03  0.22721326310E+03  0.00000000000E+00 0. -1.
         25    2    1    2    0    0  0.65634301274E+02 -0.45210036974E+02  0.46148517585E+02  0.15526389262E+03  0.12500152691E+03 0.  0.
          2    1    1    2  501    0 -0.37989203979E+02  0.68904803407E+02 -0.16214195629E+03  0.18022504138E+03  0.00000000000E+00 0. -1.
          1    1    1    2  502    0 -0.27645097295E+02 -0.23694766432E+02  0.22366790987E+03  0.22661206337E+03  0.00000000000E+00 0. -1.
         22    1    3    3    0    0  0.58526660748E+02 -0.70800709525E+02  0.73122023766E+02  0.11740928774E+03  0.00000000000E+00 0.  1.
         22    1    3    3    0    0  0.71076405263E+01  0.25590672551E+02 -0.26973506181E+02  0.37854604887E+02  0.00000000000E+00 0.  1.
</event>
<event>
 7    1  0.5127424E-006  0.6266813E+02  0.7818608E-02  0.1393094E+00
          2   -1    0    0  502    0  0.00000000000E+00  0.00000000000E+00  0.68292135575E+03  0.68292135575E+03  0.00000000000E+00 0. -1.
          1   -1    0    0  501    0 -0.00000000000E+00 -0.00000000000E+00 -0.14209709045E+04  0.14209709045E+04  0.00000000000E+00 0. -1.
         25    2    1    2    0    0  0.53201121599E+02  0.10907607336E+03 -0.88525497874E+02  0.19542117439E+03  0.12499889003E+03 0.  0.
          2    1    1    2  501    0 -0.30140985629E+02 -0.51482160829E+02 -0.12767708106E+04  0.12781637590E+04  0.00000000000E+00 0. -1.
          1    1    1    2  502    0 -0.23060135970E+02 -0.57593912533E+02  0.62724675978E+03  0.63030732685E+03  0.00000000000E+00 0. -1.
         22    1    3    3    0    0 -0.89072358771E+01  0.60495721820E+02  0.17208092537E+02  0.63523142698E+02  0.00000000000E+00 0. -1.
         22    1    3    3    0    0  0.62108357476E+02  0.48580351542E+02 -0.10573359041E+03  0.13189803170E+03  0.00000000000E+00 0. -1.
</event>
<event>
 7    1  0.5127424E-006  0.8499040E+02  0.7818608E-02  0.1455489E+00
          2   -1    0    0  502    0  0.00000000000E+00  0.00000000000E+00  0.23570118797E+03  0.23570118797E+03  0.00000000000E+00 0. -1.
          1   -1    0    0  501    0 -0.00000000000E+00 -0.00000000000E+00 -0.18637411053E+04  0.18637411053E+04  0.00000000000E+00 0. -1.
         25    2    1    2    0    0 -0.61586186285E+01 -0.69360967941E+02 -0.31441048647E+03  0.34543815794E+03  0.12499877800E+03 0.  0.
          2    1    1    2  501    0 -0.25378388262E+02 -0.10054115708E+02 -0.15254001538E+04  0.15256443809E+04  0.00000000000E+00 0. -1.
          1    1    1    2  502    0  0.31537006891E+02  0.79415083649E+02  0.21177072297E+03  0.22835975438E+03  0.00000000000E+00 0. -1.
         22    1    3    3    0    0  0.12821334430E+02 -0.93263996163E+02 -0.14216541181E+03  0.17050971794E+03  0.00000000000E+00 0. -1.
         22    1    3    3    0    0 -0.18979953059E+02  0.23903028223E+02 -0.17224507466E+03  0.17492844000E+03  0.00000000000E+00 0. -1.
</event>
<event>
 7    1  0.5127424E-006  0.8790086E+02  0.7818608E-02  0.1424654E+00
          2   -1    0    0  502    0  0.00000000000E+00  0.00000000000E+00  0.21571752475E+03  0.21571752475E+03  0.00000000000E+00 0. -1.
          1   -1    0    0  501    0 -0.00000000000E+00 -0.00000000000E+00 -0.25409022285E+03  0.25409022285E+03  0.00000000000E+00 0. -1.
         25    2    1    2    0    0  0.71943745044E+02  0.55243585159E+01  0.10863721427E+03  0.18066372364E+03  0.12502366068E+03 0.  0.
          2    1    1    2  501    0  0.33221217831E+02  0.88888880506E+00 -0.17660611423E+03  0.17970575678E+03  0.00000000000E+00 0. -1.
          1    1    1    2  502    0 -0.10516496287E+03 -0.64132473210E+01  0.29596201869E+02  0.10943826718E+03  0.00000000000E+00 0. -1.
         22    1    3    3    0    0  0.37588834612E+01  0.35218824210E+02  0.99643976614E+02  0.10575167544E+03  0.00000000000E+00 0. -1.
         22    1    3    3    0    0  0.68184861583E+02 -0.29694465694E+02  0.89932376509E+01  0.74912048199E+02  0.00000000000E+00 0. -1.
</event>
<event>
 7    1  0.5127424E-006  0.2266911E+03  0.7818608E-02  0.1290799E+00
          2   -1    0    0  502    0  0.00000000000E+00  0.00000000000E+00  0.43142020262E+03  0.43142020262E+03  0.00000000000E+00 0. -1.
          1   -1    0    0  501    0 -0.00000000000E+00 -0.00000000000E+00 -0.47646085241E+03  0.47646085241E+03  0.00000000000E+00 0. -1.
         25    2    1    2    0    0  0.79163241708E+02  0.22652142140E+03  0.11191304155E+03  0.29279471508E+03  0.12500177248E+03 0.  0.
          2    1    1    2  501    0 -0.38570345743E+02 -0.10417970353E+02 -0.33177714880E+03  0.33417402972E+03  0.00000000000E+00 0. -1.
          1    1    1    2  502    0 -0.40592895965E+02 -0.21610345104E+03  0.17482345746E+03  0.28091231022E+03  0.00000000000E+00 0. -1.
         22    1    3    3    0    0  0.89958786778E+02  0.21282692536E+03  0.13207151251E+03  0.26614050404E+03  0.00000000000E+00 0. -1.
         22    1    3    3    0    0 -0.10795545070E+02  0.13694496040E+02 -0.20158470954E+02  0.26654211043E+02  0.00000000000E+00 0. -1.
</event>
<event>
 7    1  0.5127424E-006  0.4264569E+02  0.7818608E-02  0.1563364E+00
          2   -1    0    0  502    0  0.00000000000E+00  0.00000000000E+00  0.21985280787E+04  0.21985280787E+04  0.00000000000E+00 0. -1.
          1   -1    0    0  501    0 -0.00000000000E+00 -0.00000000000E+00 -0.41186279469E+02  0.41186279469E+02  0.00000000000E+00 0. -1.
         25    2    1    2    0    0  0.86405835331E+01  0.19214256664E+02  0.44923930876E+03  0.46678148587E+03  0.12500060670E+03 0.  0.
          2    1    1    2  501    0  0.13451824634E+01 -0.43378094103E+02 -0.17745536978E+02  0.46886806743E+02  0.00000000000E+00 0. -1.
          1    1    1    2  502    0 -0.99857659965E+01  0.24163837439E+02  0.17258480274E+04  0.17260460655E+04  0.00000000000E+00 0. -1.
         22    1    3    3    0    0 -0.49307255721E+02  0.32761822098E+02  0.14223882986E+03  0.15406630771E+03  0.00000000000E+00 0. -1.
         22    1    3    3    0    0  0.57947839254E+02 -0.13547565434E+02  0.30700047890E+03  0.31271517815E+03  0.00000000000E+00 0. -1.
</event>
<event>
 7    1  0.5127424E-006  0.1265991E+03  0.7818608E-02  0.1293667E+00
          2   -1    0    0  502    0  0.00000000000E+00  0.00000000000E+00  0.31689285123E+03  0.31689285123E+03  0.00000000000E+00 0. -1.
          1   -1    0    0  501    0 -0.00000000000E+00 -0.00000000000E+00 -0.95227095749E+03  0.95227095749E+03  0.00000000000E+00 0. -1.
         25    2    1    2    0    0  0.15275744129E+03 -0.10441706787E+02 -0.23583212481E+03  0.30771211068E+03  0.12500434735E+03 0.  0.
          2    1    1    2  501    0 -0.11491116277E+03 -0.48029334916E+02 -0.67035645496E+03  0.68182781481E+03  0.00000000000E+00 0. -1.
          1    1    1    2  502    0 -0.37846278519E+02  0.58471041703E+02  0.27081047350E+03  0.27962388323E+03  0.00000000000E+00 0. -1.
         22    1    3    3    0    0  0.39544023286E+02 -0.18032055452E+02  0.27230383241E+01  0.43546523847E+02  0.00000000000E+00 0. -1.
         22    1    3    3    0    0  0.11321341801E+03  0.75903486646E+01 -0.23855516313E+03  0.26416558683E+03  0.00000000000E+00 0. -1.
</event>
<event>
 7    1  0.5127424E-006  0.4019584E+02  0.7818608E-02  0.1548862E+00
          2   -1    0    0  502    0  0.00000000000E+00  0.00000000000E+00  0.21964084292E+04  0.21964084292E+04  0.00000000000E+00 0. -1.
          1   -1    0    0  501    0 -0.00000000000E+00 -0.00000000000E+00 -0.15313476345E+04  0.15313476345E+04  0.00000000000E+00 0. -1.
         25    2    1    2    0    0  0.26392279788E+02  0.46555570849E+02  0.27997581006E+02  0.13882772588E+03  0.12500119728E+03 0.  0.
          2    1    1    2  501    0 -0.36068898506E+02 -0.17710806404E+02 -0.14755495135E+04  0.14760965432E+04  0.00000000000E+00 0. -1.
          1    1    1    2  502    0  0.96766187178E+01 -0.28844764445E+02  0.21126127272E+04  0.21128317947E+04  0.00000000000E+00 0. -1.
         22    1    3    3    0    0 -0.45404079783E+02 -0.37822686226E+01 -0.34075594769E+01  0.45688592433E+02  0.00000000000E+00 0. -1.
         22    1    3    3    0    0  0.71796359572E+02  0.50337839472E+02  0.31405140483E+02  0.93139133446E+02  0.00000000000E+00 0. -1.
</event>
<event>
 7    1  0.5127424E-006  0.2229819E+02  0.7818608E-02  0.1713292E+00
          2   -1    0    0  502    0  0.00000000000E+00  0.00000000000E+00  0.15069362381E+04  0.15069362381E+04  0.00000000000E+00 0. -1.
          1   -1    0    0  501    0 -0.00000000000E+00 -0.00000000000E+00 -0.69485954755E+03  0.69485954755E+03  0.00000000000E+00 0. -1.
         25    2    1    2    0    0  0.10172818508E+01 -0.15798353122E+01  0.25717866303E+02  0.12762893195E+03  0.12499681949E+03 0.  0.
          2    1    1    2  501    0  0.21067543798E+02 -0.17485427719E+01 -0.64364327937E+03  0.64399034921E+03  0.00000000000E+00 0. -1.
          1    1    1    2  502    0 -0.22084825649E+02  0.33283780841E+01  0.14300021036E+04  0.14301765045E+04  0.00000000000E+00 0. -1.
         22    1    3    3    0    0 -0.59078444780E+02 -0.19356829060E+02  0.94580653828E+01  0.62884055767E+02  0.00000000000E+00 0.  1.
         22    1    3    3    0    0  0.60095726631E+02  0.17776993748E+02  0.16259800920E+02  0.64744876183E+02  0.00000000000E+00 0.  1.
</event>
<event>
 7    1  0.5127424E-006  0.6696129E+02  0.7818608E-02  0.1447354E+00
          2   -1    0    0  502    0  0.00000000000E+00  0.00000000000E+00  0.24370990236E+04  0.24370990236E+04  0.00000000000E+00 0. -1.
          1   -1    0    0  501    0 -0.00000000000E+00 -0.00000000000E+00 -0.17628482424E+02  0.17628482424E+02  0.00000000000E+00 0. -1.
         25    2    1    2    0    0  0.18772885256E+02 -0.46410937684E+02  0.60906476317E+03  0.62377113876E+03  0.12499660578E+03 0.  0.
          2    1    1    2  501    0  0.36459359026E+02  0.48674115992E+01  0.25603431830E+02  0.44816428659E+02  0.00000000000E+00 0. -1.
          1    1    1    2  502    0 -0.55232244282E+02  0.41543526085E+02  0.17848023462E+04  0.17861399386E+04  0.00000000000E+00 0. -1.
         22    1    3    3    0    0 -0.47465421177E+02 -0.11913401741E+02  0.37241357318E+03  0.37561518185E+03  0.00000000000E+00 0. -1.
         22    1    3    3    0    0  0.66238306433E+02 -0.34497535943E+02  0.23665119000E+03  0.24815595692E+03  0.00000000000E+00 0. -1.
</event>
<event>
 7    1  0.5127424E-006  0.7931896E+02  0.7818608E-02  0.1380800E+00
          2   -1    0    0  502    0  0.00000000000E+00  0.00000000000E+00  0.50705012824E+03  0.50705012824E+03  0.00000000000E+00 0. -1.
          1   -1    0    0  501    0 -0.00000000000E+00 -0.00000000000E+00 -0.21301480964E+04  0.21301480964E+04  0.00000000000E+00 0. -1.
         25    2    1    2    0    0  0.42562391953E+02  0.41850267651E+02 -0.24342163313E+03  0.28007405686E+03  0.12499753493E+03 0.  0.
          2    1    1    2  501    0  0.37006258674E+02 -0.36602587060E+02 -0.18647819860E+04  0.18655082599E+04  0.00000000000E+00 0. -1.
          1    1    1    2  502    0 -0.79568650627E+02 -0.52476805915E+01  0.48510565094E+03  0.49161590788E+03  0.00000000000E+00 0. -1.
         22    1    3    3    0    0  0.28836129934E+02  0.25372839426E+02 -0.28140486016E+01  0.38512624419E+02  0.00000000000E+00 0. -1.
         22    1    3    3    0    0  0.13726262018E+02  0.16477428226E+02 -0.24060758453E+03  0.24156143244E+03  0.00000000000E+00 0. -1.
</event>
<event>
 7    1  0.5127424E-006  0.1349351E+03  0.7818608E-02  0.1295217E+00
          2   -1    0    0  502    0  0.00000000000E+00  0.00000000000E+00  0.22111753747E+03  0.22111753747E+03  0.00000000000E+00 0. -1.
          1   -1    0    0  501    0 -0.00000000000E+00 -0.00000000000E+00 -0.25408199258E+04  0.25408199258E+04  0.00000000000E+00 0. -1.
         25    2    1    2    0    0 -0.63563744449E+02 -0.57520576081E+02 -0.65757354135E+02  0.16521983161E+03  0.12499838741E+03 0.  0.
          2    1    1    2  501    0 -0.57330577322E+02 -0.29363559051E+02 -0.23924849914E+04  0.23933519272E+04  0.00000000000E+00 0. -1.
          1    1    1    2  502    0  0.12089432177E+03  0.86884135132E+02  0.13853995721E+03  0.20336570438E+03  0.00000000000E+00 0. -1.
         22    1    3    3    0    0 -0.76076360131E+02 -0.88426319623E+02 -0.60698051507E+02  0.13149555137E+03  0.00000000000E+00 0. -1.
         22    1    3    3    0    0  0.12512615681E+02  0.30905743542E+02 -0.50593026277E+01  0.33724280246E+02  0.00000000000E+00 0. -1.
</event>
<event>
 7    1  0.5127424E-006  0.1105337E+03  0.7818608E-02  0.1424222E+00
          2   -1    0    0  502    0  0.00000000000E+00  0.00000000000E+00  0.99574626407E+03  0.99574626407E+03  0.00000000000E+00 0. -1.
          1   -1    0    0  501    0 -0.00000000000E+00 -0.00000000000E+00 -0.43422807438E+03  0.43422807438E+03  0.00000000000E+00 0. -1.
         25    2    1    2    0    0  0.55144977511E+02 -0.74423579606E+02 -0.29480914095E+03  0.33334817730E+03  0.12501495901E+03 0.  0.
          2    1    1    2  501    0  0.26513107134E+02 -0.36305725786E+00 -0.11550323504E+03  0.11850769580E+03  0.00000000000E+00 0. -1.
          1    1    1    2  502    0 -0.81658084645E+02  0.74786636864E+02  0.97183056568E+03  0.97811846534E+03  0.00000000000E+00 0. -1.
         22    1    3    3    0    0  0.45874755072E+01 -0.87432716758E+02 -0.24882547784E+03  0.26377953544E+03  0.00000000000E+00 0.  1.
         22    1    3    3    0    0  0.50557502004E+02  0.13009137152E+02 -0.45983663112E+02  0.69568641869E+02  0.00000000000E+00 0.  1.
</event>
<event>
 7    1  0.5127424E-006  0.2232068E+03  0.7818608E-02  0.1175480E+00
          2   -1    0    0  502    0  0.00000000000E+00  0.00000000000E+00  0.11263107044E+04  0.11263107044E+04  0.00000000000E+00 0. -1.
          1   -1    0    0  501    0 -0.00000000000E+00 -0.00000000000E+00 -0.10988986756E+04  0.10988986756E+04  0.00000000000E+00 0. -1.
         25    2    1    2    0    0  0.20482727398E+03 -0.27959154989E+03  0.56445264176E+02  0.37274213485E+03  0.12499993722E+03 0.  0.
          2    1    1    2  501    0 -0.14352464515E+03  0.16157378356E+03 -0.92335629487E+03  0.94831021221E+03  0.00000000000E+00 0. -1.
          1    1    1    2  502    0 -0.61302628829E+02  0.11801776633E+03  0.89432305945E+03  0.90415703290E+03  0.00000000000E+00 0. -1.
         22    1    3    3    0    0  0.13561154406E+03 -0.26258271649E+03  0.59239263922E+02  0.30141244877E+03  0.00000000000E+00 0.  1.
         22    1    3    3    0    0  0.69215729918E+02 -0.17008833403E+02 -0.27939997461E+01  0.71329686081E+02  0.00000000000E+00 0.  1.
</event>
<event>
 7    1  0.5127424E-006  0.1294335E+03  0.7818608E-02  0.1291856E+00
          2   -1    0    0  502    0  0.00000000000E+00  0.00000000000E+00  0.79494378194E+03  0.79494378194E+03  0.00000000000E+00 0. -1.
          1   -1    0    0  501    0 -0.00000000000E+00 -0.00000000000E+00 -0.18194922488E+03  0.18194922488E+03  0.00000000000E+00 0. -1.
         25    2    1    2    0    0 -0.64303975817E+02  0.16082180345E+03  0.21898868422E+02  0.21472457728E+03  0.12501371876E+03 0.  0.
          2    1    1    2  501    0  0.70915478174E+02 -0.91852569565E+02 -0.43406036357E+02  0.12389505064E+03  0.00000000000E+00 0. -1.
          1    1    1    2  502    0 -0.66115023576E+01 -0.68969233889E+02  0.63450172500E+03  0.63827337890E+03  0.00000000000E+00 0. -1.
         22    1    3    3    0    0 -0.88361379808E+02  0.54775204413E+02  0.20559161924E+02  0.10597516501E+03  0.00000000000E+00 0. -1.
         22    1    3    3    0    0  0.24057403991E+02  0.10604659904E+03  0.13397064977E+01  0.10874941227E+03  0.00000000000E+00 0. -1.
</event>
<event>
 7    1  0.5127424E-006  0.1280560E+03  0.7818608E-02  0.1395091E+00
          2   -1    0    0  502    0  0.00000000000E+00  0.00000000000E+00  0.21634325111E+04  0.21634325111E+04  0.00000000000E+00 0. -1.
          1   -1    0    0  501    0 -0.00000000000E+00 -0.00000000000E+00 -0.52309907363E+02  0.52309907363E+02  0.00000000000E+00 0. -1.
         25    2    1    2    0    0 -0.39866202245E+02  0.12270334121E+03  0.88744774191E+03  0.90544731521E+03  0.12500368784E+03 0.  0.
          2    1    1    2  501    0  0.65712246088E+02 -0.11015135154E+03  0.52216768082E+02  0.13848469375E+03  0.00000000000E+00 0. -1.
          1    1    1    2  502    0 -0.25846043843E+02 -0.12551989668E+02  0.11714580938E+04  0.11718104096E+04  0.00000000000E+00 0. -1.
         22    1    3    3    0    0 -0.70111442726E+02  0.68702111485E+02  0.72487142790E+03  0.73148764959E+03  0.00000000000E+00 0. -1.
         22    1    3    3    0    0  0.30245240481E+02  0.54001229727E+02  0.16257631401E+03  0.17395966562E+03  0.00000000000E+00 0. -1.
</event>
<event>
 7    1  0.5127424E-006  0.6860164E+02  0.7818608E-02  0.1380764E+00
          2   -1    0    0  502    0  0.00000000000E+00  0.00000000000E+00  0.37615763684E+03  0.37615763684E+03  0.00000000000E+00 0. -1.
          1   -1    0    0  501    0 -0.00000000000E+00 -0.00000000000E+00 -0.13716222353E+04  0.13716222353E+04  0.00000000000E+00 0. -1.
         25    2    1    2    0    0 -0.12320522066E+03  0.25482658894E+02 -0.12033632825E+02  0.17775740802E+03  0.12499598188E+03 0.  0.
          2    1    1    2  501    0  0.63005614915E+02 -0.25571769317E+02 -0.12727205247E+04  0.12745356632E+04  0.00000000000E+00 0. -1.
          1    1    1    2  502    0  0.60199605741E+02  0.89110423367E-01  0.28928955909E+03  0.29548680084E+03  0.00000000000E+00 0. -1.
         22    1    3    3    0    0 -0.21948734769E+02  0.64456825605E+02 -0.12655447526E+02  0.69257416044E+02  0.00000000000E+00 0.  1.
         22    1    3    3    0    0 -0.10125648589E+03 -0.38974166711E+02  0.62181470131E+00  0.10849999198E+03  0.00000000000E+00 0.  1.
</event>
<event>
 7    1  0.5127424E-006  0.1176464E+03  0.7818608E-02  0.1350135E+00
          2   -1    0    0  502    0  0.00000000000E+00  0.00000000000E+00  0.60399667158E+03  0.60399667158E+03  0.00000000000E+00 0. -1.
          1   -1    0    0  501    0 -0.00000000000E+00 -0.00000000000E+00 -0.55956274455E+03  0.55956274455E+03  0.00000000000E+00 0. -1.
         25    2    1    2    0    0 -0.16905246296E+02 -0.10084271652E+03 -0.15015090461E+03  0.22051117009E+03  0.12499936461E+03 0.  0.
          2    1    1    2  501    0  0.42869719823E+02 -0.14680418550E+02 -0.36666003947E+03  0.36944947166E+03  0.00000000000E+00 0. -1.
          1    1    1    2  502    0 -0.25964473527E+02  0.11552313507E+03  0.56124487111E+03  0.57359877438E+03  0.00000000000E+00 0. -1.
         22    1    3    3    0    0 -0.98428557327E+01 -0.17621332119E+01  0.20640176484E+02  0.22934772894E+02  0.00000000000E+00 0. -1.
         22    1    3    3    0    0 -0.70623905629E+01 -0.99080583304E+02 -0.17079108109E+03  0.19757639719E+03  0.00000000000E+00 0. -1.
</event>
<event>
 7    1  0.5127424E-006  0.8257244E+02  0.7818608E-02  0.1380408E+00
          2   -1    0    0  502    0  0.00000000000E+00  0.00000000000E+00  0.43430203329E+03  0.43430203329E+03  0.00000000000E+00 0. -1.
          1   -1    0    0  501    0 -0.00000000000E+00 -0.00000000000E+00 -0.30072434100E+04  0.30072434100E+04  0.00000000000E+00 0. -1.
         25    2    1    2    0    0 -0.27463570898E+02 -0.78197606286E+02 -0.51564924779E+03  0.53701811523E+03  0.12500078391E+03 0.  0.
          2    1    1    2  501    0  0.50142174202E+02 -0.13174928171E+01 -0.24766184903E+04  0.24771263835E+04  0.00000000000E+00 0. -1.
          1    1    1    2  502    0 -0.22678603305E+02  0.79515099103E+02  0.41932636139E+03  0.42740094454E+03  0.00000000000E+00 0. -1.
         22    1    3    3    0    0  0.21461391136E+02 -0.76237833473E+02 -0.16564745515E+03  0.18360794634E+03  0.00000000000E+00 0.  1.
         22    1    3    3    0    0 -0.48924962033E+02 -0.19597728135E+01 -0.35000179265E+03  0.35341016889E+03  0.00000000000E+00 0.  1.
</event>
<event>
 7    1  0.5127424E-006  0.4682076E+02  0.7818608E-02  0.1466067E+00
          2   -1    0    0  502    0  0.00000000000E+00  0.00000000000E+00  0.54198063647E+02  0.54198063647E+02  0.00000000000E+00 0. -1.
          1   -1    0    0  501    0 -0.00000000000E+00 -0.00000000000E+00 -0.12655431395E+04  0.12655431395E+04  0.00000000000E+00 0. -1.
         25    2    1    2    0    0  0.65512678245E+02 -0.10575931093E+02 -0.27261460787E+03  0.30715890602E+03  0.12499643112E+03 0.  0.
          2    1    1    2  501    0 -0.28204168228E+02  0.37296359267E+02 -0.96060701611E+03  0.96174442183E+03  0.00000000000E+00 0. -1.
          1    1    1    2  502    0 -0.37308510017E+02 -0.26720428173E+02  0.21876548164E+02  0.50837875261E+02  0.00000000000E+00 0. -1.
         22    1    3    3    0    0  0.80559467546E+02 -0.35145923215E+02 -0.26217353808E+03  0.27651406437E+03  0.00000000000E+00 0.  1.
         22    1    3    3    0    0 -0.15046789301E+02  0.24569992122E+02 -0.10441069798E+02  0.30644841648E+02  0.00000000000E+00 0.  1.
</event>
<event>
 7    1  0.5127424E-006  0.8315808E+02  0.7818608E-02  0.1350081E+00
          2   -1    0    0  502    0  0.00000000000E+00  0.00000000000E+00  0.28456496351E+04  0.28456496351E+04  0.00000000000E+00 0. -1.
          1   -1    0    0  501    0 -0.00000000000E+00 -0.00000000000E+00 -0.12008563237E+04  0.12008563237E+04  0.00000000000E+00 0. -1.
         25    2    1    2    0    0 -0.12272867613E+02 -0.64701531456E+02 -0.89380603699E+03  0.90490414618E+03  0.12500148223E+03 0.  0.
          2    1    1    2  501    0 -0.56436992096E+01  0.12628418147E+03 -0.28787145811E+03  0.31440343863E+03  0.00000000000E+00 0. -1.
          1    1    1    2  502    0  0.17916566822E+02 -0.61582650011E+02  0.28264708065E+04  0.28271983740E+04  0.00000000000E+00 0. -1.
         22    1    3    3    0    0 -0.44838323541E+02  0.17367511660E+02 -0.43748340943E+03  0.44011798332E+03  0.00000000000E+00 0.  1.
         22    1    3    3    0    0  0.32565455928E+02 -0.82069043116E+02 -0.45632262756E+03  0.46478616285E+03  0.00000000000E+00 0.  1.
</event>
<event>
 7    1  0.5127424E-006  0.5259436E+02  0.7818608E-02  0.1443058E+00
          2   -1    0    0  502    0  0.00000000000E+00  0.00000000000E+00  0.65275634080E+02  0.65275634080E+02  0.00000000000E+00 0. -1.
          1   -1    0    0  501    0 -0.00000000000E+00 -0.00000000000E+00 -0.19389506781E+04  0.19389506781E+04  0.00000000000E+00 0. -1.
         25    2    1    2    0    0 -0.66057157774E+02 -0.52749758344E+02 -0.41402633389E+03  0.44066610016E+03  0.12499088597E+03 0.  0.
          2    1    1    2  501    0  0.51482889910E+02  0.66520974093E+01 -0.14998102733E+04  0.15007083641E+04  0.00000000000E+00 0. -1.
          1    1    1    2  502    0  0.14574267864E+02  0.46097660935E+02  0.40161563153E+02  0.62851847883E+02  0.00000000000E+00 0. -1.
         22    1    3    3    0    0 -0.47574508915E+02 -0.89236210524E+02 -0.21654990243E+03  0.23899852596E+03  0.00000000000E+00 0.  1.
         22    1    3    3    0    0 -0.18482648859E+02  0.36486452180E+02 -0.19747643146E+03  0.20166757420E+03  0.00000000000E+00 0.  1.
</event>
<event>
 7    1  0.5127424E-006  0.5879484E+02  0.7818608E-02  0.1415005E+00
          2   -1    0    0  502    0  0.00000000000E+00  0.00000000000E+00  0.59677278441E+03  0.59677278441E+03  0.00000000000E+00 0. -1.
          1   -1    0    0  501    0 -0.00000000000E+00 -0.00000000000E+00 -0.19243568622E+03  0.19243568622E+03  0.00000000000E+00 0. -1.
         25    2    1    2    0    0 -0.73610917635E+02 -0.61656966472E+02  0.17346431164E+03  0.23438027424E+03  0.12499638726E+03 0.  0.
          2    1    1    2  501    0  0.57135979730E+02  0.10742910241E+02 -0.15485369425E+03  0.16540736659E+03  0.00000000000E+00 0. -1.
          1    1    1    2  502    0  0.16474937904E+02  0.50914056231E+02  0.38572648079E+03  0.38942082981E+03  0.00000000000E+00 0. -1.
         22    1    3    3    0    0 -0.10003927187E+03 -0.12412316805E+02  0.12346186597E+03  0.15938868803E+03  0.00000000000E+00 0. -1.
         22    1    3    3    0    0  0.26428354233E+02 -0.49244649667E+02  0.50002445670E+02  0.74991586203E+02  0.00000000000E+00 0. -1.
</event>
<event>
 7    1  0.5127424E-006  0.7273840E+02  0.7818608E-02  0.1503149E+00
          2   -1    0    0  502    0  0.00000000000E+00  0.00000000000E+00  0.95675478169E+03  0.95675478169E+03  0.00000000000E+00 0. -1.
          1   -1    0    0  501    0 -0.00000000000E+00 -0.00000000000E+00 -0.55655456339E+03  0.55655456339E+03  0.00000000000E+00 0. -1.
         25    2    1    2    0    0 -0.39888350213E+02 -0.61125171056E+02  0.27792832087E+03  0.31336342848E+03  0.12500047899E+03 0.  0.
          2    1    1    2  501    0 -0.16951517289E+02  0.15201307188E+02 -0.53657558498E+03  0.53705846244E+03  0.00000000000E+00 0. -1.
          1    1    1    2  502    0  0.56839867502E+02  0.45923863868E+02  0.65884748241E+03  0.66288745416E+03  0.00000000000E+00 0. -1.
         22    1    3    3    0    0 -0.61844477868E+02 -0.25491852439E+02  0.55172916729E+02  0.86710003598E+02  0.00000000000E+00 0.  1.
         22    1    3    3    0    0  0.21956127655E+02 -0.35633318617E+02  0.22275540414E+03  0.22665342488E+03  0.00000000000E+00 0.  1.
</event>
<event>
 7    1  0.5127424E-006  0.8224842E+02  0.7818608E-02  0.1466812E+00
          2   -1    0    0  502    0  0.00000000000E+00  0.00000000000E+00  0.10227359189E+04  0.10227359189E+04  0.00000000000E+00 0. -1.
          1   -1    0    0  501    0 -0.00000000000E+00 -0.00000000000E+00 -0.12188553388E+03  0.12188553388E+03  0.00000000000E+00 0. -1.
         25    2    1    2    0    0 -0.56577530711E+02  0.85137185112E+02  0.27378822001E+03  0.31786265664E+03  0.12500928687E+03 0.  0.
          2    1    1    2  501    0  0.22958324333E+02 -0.12168518108E+02 -0.95894132067E+02  0.99352111472E+02  0.00000000000E+00 0. -1.
          1    1    1    2  502    0  0.33619206378E+02 -0.72968667004E+02  0.72295629712E+03  0.72740668470E+03  0.00000000000E+00 0. -1.
         22    1    3    3    0    0  0.32311967444E+02  0.38731649456E+02  0.15174735424E+03  0.15991079835E+03  0.00000000000E+00 0. -1.
         22    1    3    3    0    0 -0.88889498156E+02  0.46405535656E+02  0.12204086577E+03  0.15795185830E+03  0.00000000000E+00 0. -1.
</event>
<event>
 7    1  0.5127424E-006  0.1144417E+03  0.7818608E-02  0.1424145E+00
          2   -1    0    0  502    0  0.00000000000E+00  0.00000000000E+00  0.97247984567E+03  0.97247984567E+03  0.00000000000E+00 0. -1.
          1   -1    0    0  501    0 -0.00000000000E+00 -0.00000000000E+00 -0.40677256755E+03  0.40677256755E+03  0.00000000000E+00 0. -1.
         25    2    1    2    0    0 -0.68635800903E+02 -0.95588395310E+02  0.74828638527E+02  0.18727435507E+03  0.12499737774E+03 0.  0.
          2    1    1    2  501    0  0.44890720949E+02  0.10522298029E+03 -0.34101392712E+03  0.35969091022E+03  0.00000000000E+00 0. -1.
          1    1    1    2  502    0  0.23745079954E+02 -0.96345849756E+01  0.83189256671E+03  0.83228714793E+03  0.00000000000E+00 0. -1.
         22    1    3    3    0    0  0.26337761426E+02 -0.31919592421E+02 -0.12689171592E+02  0.43284559983E+02  0.00000000000E+00 0. -1.
         22    1    3    3    0    0 -0.94973562328E+02 -0.63668802889E+02  0.87517810119E+02  0.14398979509E+03  0.00000000000E+00 0. -1.
</event>
<event>
 7    1  0.5127424E-006  0.9852589E+02  0.7818608E-02  0.1356436E+00
          2   -1    0    0  502    0  0.00000000000E+00  0.00000000000E+00  0.20616140681E+03  0.20616140681E+03  0.00000000000E+00 0. -1.
          1   -1    0    0  501    0 -0.00000000000E+00 -0.00000000000E+00 -0.13679804478E+04  0.13679804478E+04  0.00000000000E+00 0. -1.
         25    2    1    2    0    0  0.51872493898E+02 -0.15908724973E+02 -0.90158011815E+02  0.16339502599E+03  0.12500249706E+03 0.  0.
          2    1    1    2  501    0  0.51278330257E+02  0.10704043732E+01 -0.12246022244E+04  0.12256758221E+04  0.00000000000E+00 0. -1.
          1    1    1    2  502    0 -0.10315082415E+03  0.14838320600E+02  0.15294119518E+03  0.18507100655E+03  0.00000000000E+00 0. -1.
         22    1    3    3    0    0  0.56462221114E+02 -0.43827397763E+02 -0.10831786050E+03  0.12977512131E+03  0.00000000000E+00 0.  1.
         22    1    3    3    0    0 -0.45897272159E+01  0.27918672790E+02  0.18159848688E+02  0.33619904680E+02  0.00000000000E+00 0.  1.
</event>
<event>
 7    1  0.5127424E-006  0.8416276E+02  0.7818608E-02  0.1421536E+00
          2   -1    0    0  502    0  0.00000000000E+00  0.00000000000E+00  0.12084597904E+03  0.12084597904E+03  0.00000000000E+00 0. -1.
          1   -1    0    0  501    0 -0.00000000000E+00 -0.00000000000E+00 -0.10883272423E+04  0.10883272423E+04  0.00000000000E+00 0. -1.
         25    2    1    2    0    0  0.62644422300E+02  0.36579362132E+02 -0.30827557573E+03  0.34047086169E+03  0.12499681472E+03 0.  0.
          2    1    1    2  501    0 -0.86211152490E+02 -0.99663634858E+01 -0.75839043388E+03  0.76333985971E+03  0.00000000000E+00 0. -1.
          1    1    1    2  502    0  0.23566730189E+02 -0.26612998646E+02  0.99184746387E+02  0.10536249990E+03  0.00000000000E+00 0. -1.
         22    1    3    3    0    0 -0.24561819219E+02  0.33150917757E+01 -0.18073490451E+03  0.18242636461E+03  0.00000000000E+00 0. -1.
         22    1    3    3    0    0  0.87206241519E+02  0.33264270356E+02 -0.12754067121E+03  0.15804449708E+03  0.00000000000E+00 0. -1.
</event>
<event>
 7    1  0.5241224E-006  0.7877410E+02  0.7818608E-02  0.1418192E+00
          2   -1    0    0  502    0  0.00000000000E+00  0.00000000000E+00  0.12814529396E+04  0.12814529396E+04  0.00000000000E+00 0. -1.
          1   -1    0    0  501    0 -0.00000000000E+00 -0.00000000000E+00 -0.71441296055E+03  0.71441296055E+03  0.00000000000E+00 0. -1.
         25    2    1    2    0    0 -0.75650698385E+02 -0.77936057698E+02 -0.12364332933E+03  0.20666138859E+03  0.12499679752E+03 0.  0.
          2    1    1    2  501    0  0.65671526012E+02  0.40266413289E+02 -0.54625127825E+03  0.55165622661E+03  0.00000000000E+00 0. -1.
          1    1    1    2  502    0  0.99791723731E+01  0.37669644409E+02  0.12369345866E+04  0.12375482849E+04  0.00000000000E+00 0. -1.
         22    1    3    3    0    0 -0.56941705576E+02 -0.11256778072E+03 -0.96963712697E+02  0.15910947385E+03  0.00000000000E+00 0.  1.
         22    1    3    3    0    0 -0.18708992809E+02  0.34631723022E+02 -0.26679616630E+02  0.47551914735E+02  0.00000000000E+00 0.  1.
</event>
<event>
 7    1  0.5127424E-006  0.1735559E+03  0.7818608E-02  0.1273214E+00
          2   -1    0    0  502    0  0.00000000000E+00  0.00000000000E+00  0.12737868914E+04  0.12737868914E+04  0.00000000000E+00 0. -1.
          1   -1    0    0  501    0 -0.00000000000E+00 -0.00000000000E+00 -0.15974934323E+04  0.15974934323E+04  0.00000000000E+00 0. -1.
         25    2    1    2    0    0  0.15567787601E+03 -0.17048789195E+03  0.14541468519E+02  0.26294009226E+03  0.12499726170E+03 0.  0.
          2    1    1    2  501    0 -0.32577149760E+02  0.52347260838E+02 -0.14662307145E+04  0.14675264953E+04  0.00000000000E+00 0. -1.
          1    1    1    2  502    0 -0.12310072625E+03  0.11814063111E+03  0.11279827051E+04  0.11408137361E+04  0.00000000000E+00 0. -1.
         22    1    3    3    0    0  0.15643760460E+03 -0.14569817309E+03  0.50116565772E+02  0.21957311297E+03  0.00000000000E+00 0.  1.
         22    1    3    3    0    0 -0.75972859023E+00 -0.24789718857E+02 -0.35575097252E+02  0.43366979294E+02  0.00000000000E+00 0.  1.
</event>
<event>
 7    1  0.5127424E-006  0.7073580E+02  0.7818608E-02  0.1376313E+00
          2   -1    0    0  502    0  0.00000000000E+00  0.00000000000E+00  0.34157151079E+04  0.34157151079E+04  0.00000000000E+00 0. -1.
          1   -1    0    0  501    0 -0.00000000000E+00 -0.00000000000E+00 -0.12490088876E+04  0.12490088876E+04  0.00000000000E+00 0. -1.
         25    2    1    2    0    0  0.69368460499E+01 -0.11205802063E+02  0.21550458090E+03  0.24948178196E+03  0.12500098123E+03 0.  0.
          2    1    1    2  501    0  0.53881392057E+02 -0.27616013740E+02 -0.12308672133E+04  0.12323554460E+04  0.00000000000E+00 0. -1.
          1    1    1    2  502    0 -0.60818238107E+02  0.38821815803E+02  0.31820688526E+04  0.31828867675E+04  0.00000000000E+00 0. -1.
         22    1    3    3    0    0 -0.52403218927E+02  0.13993473632E+02  0.14033994591E+03  0.15045668838E+03  0.00000000000E+00 0. -1.
         22    1    3    3    0    0  0.59340064977E+02 -0.25199275695E+02  0.75164634986E+02  0.99025093586E+02  0.00000000000E+00 0. -1.
</event>
<event>
 7    1  0.5127424E-006  0.6823068E+02  0.7818608E-02  0.1395870E+00
          2   -1    0    0  502    0  0.00000000000E+00  0.00000000000E+00  0.44454850132E+04  0.44454850132E+04  0.00000000000E+00 0. -1.
          1   -1    0    0  501    0 -0.00000000000E+00 -0.00000000000E+00 -0.18867023831E+04  0.18867023831E+04  0.00000000000E+00 0. -1.
         25    2    1    2    0    0  0.32121536064E+02  0.45318796337E+01 -0.12079151436E+04  0.12147988061E+04  0.12499925675E+03 0.  0.
          2    1    1    2  501    0 -0.42974391234E+02  0.62830141485E+02 -0.67293745374E+03  0.67722909095E+03  0.00000000000E+00 0. -1.
          1    1    1    2  502    0  0.10852855171E+02 -0.67362021118E+02  0.44396352274E+04  0.44401594992E+04  0.00000000000E+00 0. -1.
         22    1    3    3    0    0  0.71963523281E+02  0.67594717736E+01 -0.10267479071E+04  0.10292889312E+04  0.00000000000E+00 0. -1.
         22    1    3    3    0    0 -0.39841987217E+02 -0.22275921399E+01 -0.18116723645E+03  0.18550987487E+03  0.00000000000E+00 0. -1.
</event>
<event>
 7    1  0.5127424E-006  0.4444080E+02  0.7818608E-02  0.1504603E+00
          2   -1    0    0  502    0  0.00000000000E+00  0.00000000000E+00  0.29148030885E+03  0.29148030885E+03  0.00000000000E+00 0. -1.
          1   -1    0    0  501    0 -0.00000000000E+00 -0.00000000000E+00 -0.28340513556E+04  0.28340513556E+04  0.00000000000E+00 0. -1.
         25    2    1    2    0    0 -0.31208136450E+02 -0.40989617323E+02 -0.13842858699E+03  0.19349792560E+03  0.12499950803E+03 0.  0.
          2    1    1    2  501    0 -0.55556013365E+01  0.44143601744E+02 -0.26666120371E+04  0.26669831793E+04  0.00000000000E+00 0. -1.
          1    1    1    2  502    0  0.36763737786E+02 -0.31539844208E+01  0.26246957739E+03  0.26505055949E+03  0.00000000000E+00 0. -1.
         22    1    3    3    0    0  0.57974445249E+01  0.41715810973E+02 -0.62050337959E+02  0.74993757667E+02  0.00000000000E+00 0.  1.
         22    1    3    3    0    0 -0.37005580975E+02 -0.82705428297E+02 -0.76378249027E+02  0.11850416793E+03  0.00000000000E+00 0.  1.
</event>
<event>
 7    1  0.5127424E-006  0.7878067E+02  0.7818608E-02  0.1335062E+00
          2   -1    0    0  502    0  0.00000000000E+00  0.00000000000E+00  0.46328354946E+03  0.46328354946E+03  0.00000000000E+00 0. -1.
          1   -1    0    0  501    0 -0.00000000000E+00 -0.00000000000E+00 -0.98035337008E+03  0.98035337008E+03  0.00000000000E+00 0. -1.
         25    2    1    2    0    0  0.15750823884E+02 -0.80431487399E+02 -0.33721736274E+03  0.36885960586E+03  0.12499818593E+03 0.  0.
          2    1    1    2  501    0 -0.76790629387E+02  0.33383102316E+02 -0.62116644062E+03  0.62678463545E+03  0.00000000000E+00 0. -1.
          1    1    1    2  502    0  0.61039805503E+02  0.47048385083E+02  0.44131398274E+03  0.44799267824E+03  0.00000000000E+00 0. -1.
         22    1    3    3    0    0  0.31575277361E+02 -0.47116622707E+02 -0.32514057911E+03  0.33005055743E+03  0.00000000000E+00 0. -1.
         22    1    3    3    0    0 -0.15824453477E+02 -0.33314864692E+02 -0.12076783628E+02  0.38809048431E+02  0.00000000000E+00 0. -1.
</event>
<event>
 7    1  0.5127424E-006  0.5625811E+02  0.7818608E-02  0.1474798E+00
          2   -1    0    0  502    0  0.00000000000E+00  0.00000000000E+00  0.33495877605E+03  0.33495877605E+03  0.00000000000E+00 0. -1.
          1   -1    0    0  501    0 -0.00000000000E+00 -0.00000000000E+00 -0.11210907273E+04  0.11210907273E+04  0.00000000000E+00 0. -1.
         25    2    1    2    0    0 -0.74247910745E+02  0.50206753449E+02  0.26866113858E+02  0.15614501473E+03  0.12500402877E+03 0.  0.
          2    1    1    2  501    0  0.32821412355E+02 -0.14491050830E+02 -0.10530696953E+04  0.10536807006E+04  0.00000000000E+00 0. -1.
          1    1    1    2  502    0  0.41426498390E+02 -0.35715702619E+02  0.24007163017E+03  0.24622378804E+03  0.00000000000E+00 0. -1.
         22    1    3    3    0    0 -0.79206084379E+02  0.52560504191E+02  0.66578199276E+02  0.11605544805E+03  0.00000000000E+00 0. -1.
         22    1    3    3    0    0  0.49581736340E+01 -0.23537507424E+01 -0.39712085418E+02  0.40089566680E+02  0.00000000000E+00 0. -1.
</event>
<event>
 7    1  0.5127424E-006  0.1237686E+03  0.7818608E-02  0.1324983E+00
          2   -1    0    0  502    0  0.00000000000E+00  0.00000000000E+00  0.25091914796E+03  0.25091914796E+03  0.00000000000E+00 0. -1.
          1   -1    0    0  501    0 -0.00000000000E+00 -0.00000000000E+00 -0.85140030432E+03  0.85140030432E+03  0.00000000000E+00 0. -1.
         25    2    1    2    0    0  0.27299516381E+02  0.13706829646E+03 -0.99445917895E+02  0.21224318184E+03  0.12499878465E+03 0.  0.
          2    1    1    2  501    0  0.40818424920E+02 -0.34742830277E+02 -0.67496630202E+03  0.67709136528E+03  0.00000000000E+00 0. -1.
          1    1    1    2  502    0 -0.68117941301E+02 -0.10232546618E+03  0.17393106356E+03  0.21298490516E+03  0.00000000000E+00 0. -1.
         22    1    3    3    0    0  0.68499469979E+02  0.34648243724E+02 -0.34500342587E+02  0.84160274591E+02  0.00000000000E+00 0. -1.
         22    1    3    3    0    0 -0.41199953599E+02  0.10242005273E+03 -0.64945575308E+02  0.12808290725E+03  0.00000000000E+00 0. -1.
</event>
<event>
 7    1  0.5127424E-006  0.6823607E+02  0.7818608E-02  0.1406882E+00
          2   -1    0    0  502    0  0.00000000000E+00  0.00000000000E+00  0.26231304009E+04  0.26231304009E+04  0.00000000000E+00 0. -1.
          1   -1    0    0  501    0 -0.00000000000E+00 -0.00000000000E+00 -0.15348472927E+04  0.15348472927E+04  0.00000000000E+00 0. -1.
         25    2    1    2    0    0 -0.19737297907E+02 -0.94536477805E+02  0.60450728276E+03  0.62480315578E+03  0.12499288780E+03 0.  0.
          2    1    1    2  501    0  0.38856772610E+02  0.30051814972E+02 -0.15237403616E+04  0.15245319446E+04  0.00000000000E+00 0. -1.
          1    1    1    2  502    0 -0.19119474704E+02  0.64484662833E+02  0.20075161870E+04  0.20086425932E+04  0.00000000000E+00 0. -1.
         22    1    3    3    0    0 -0.23960040528E+02  0.24314955016E+02  0.21012327951E+03  0.21287811811E+03  0.00000000000E+00 0. -1.
         22    1    3    3    0    0  0.42227426215E+01 -0.11885143282E+03  0.39438400325E+03  0.41192503767E+03  0.00000000000E+00 0. -1.
</event>
<event>
 7    1  0.5127424E-006  0.7671113E+02  0.7818608E-02  0.1494800E+00
          2   -1    0    0  502    0  0.00000000000E+00  0.00000000000E+00  0.11972317877E+04  0.11972317877E+04  0.00000000000E+00 0. -1.
          1   -1    0    0  501    0 -0.00000000000E+00 -0.00000000000E+00 -0.32034075887E+04  0.32034075887E+04  0.00000000000E+00 0. -1.
         25    2    1    2    0    0 -0.72209975816E+02 -0.61516195949E+02  0.44134138191E+03  0.46840755707E+03  0.12499960465E+03 0.  0.
          2    1    1    2  501    0  0.65678234221E+02  0.39602272207E+02 -0.31892372897E+04  0.31901593158E+04  0.00000000000E+00 0. -1.
          1    1    1    2  502    0  0.65317415951E+01  0.21913923742E+02  0.74172010681E+03  0.74207250356E+03  0.00000000000E+00 0. -1.
         22    1    3    3    0    0  0.27913500855E+02 -0.39206955863E+02  0.20831674454E+03  0.21380415098E+03  0.00000000000E+00 0. -1.
         22    1    3    3    0    0 -0.10012347667E+03 -0.22309240086E+02  0.23302463736E+03  0.25460340609E+03  0.00000000000E+00 0. -1.
</event>
<event>
 7    1  0.5127424E-006  0.1721794E+03  0.7818608E-02  0.1398687E+00
          2   -1    0    0  502    0  0.00000000000E+00  0.00000000000E+00  0.10535133876E+04  0.10535133876E+04  0.00000000000E+00 0. -1.
          1   -1    0    0  501    0 -0.00000000000E+00 -0.00000000000E+00 -0.11178427161E+03  0.11178427161E+03  0.00000000000E+00 0. -1.
         25    2    1    2    0    0  0.82875261795E+02  0.16862871982E+03  0.10083131425E+03  0.24717523151E+03  0.12499874788E+03 0.  0.
          2    1    1    2  501    0  0.17610924783E+01 -0.20692103737E+02 -0.26766034305E+02  0.33877502803E+02  0.00000000000E+00 0. -1.
          1    1    1    2  502    0 -0.84636354273E+02 -0.14793661608E+03  0.86766383602E+03  0.88424492488E+03  0.00000000000E+00 0. -1.
         22    1    3    3    0    0  0.10529798693E+03  0.96897973779E+02  0.95072460961E+02  0.17180121131E+03  0.00000000000E+00 0. -1.
         22    1    3    3    0    0 -0.22422725135E+02  0.71730746038E+02  0.57588532872E+01  0.75374020199E+02  0.00000000000E+00 0. -1.
</event>
<event>
 7    1  0.5127424E-006  0.1042607E+03  0.7818608E-02  0.1365669E+00
          2   -1    0    0  502    0  0.00000000000E+00  0.00000000000E+00  0.20483992524E+04  0.20483992524E+04  0.00000000000E+00 0. -1.
          1   -1    0    0  501    0 -0.00000000000E+00 -0.00000000000E+00 -0.10306748070E+04  0.10306748070E+04  0.00000000000E+00 0. -1.
         25    2    1    2    0    0  0.79503340556E+02 -0.70187155499E+02  0.14841135152E+04  0.14931393068E+04  0.12500018210E+03 0.  0.
          2    1    1    2  501    0 -0.35353997552E+02 -0.27606033911E+02 -0.10205230644E+04  0.10215083569E+04  0.00000000000E+00 0. -1.
          1    1    1    2  502    0 -0.44149343004E+02  0.97793189410E+02  0.55413399444E+03  0.56442639571E+03  0.00000000000E+00 0. -1.
         22    1    3    3    0    0  0.22842925893E+02  0.35823936757E+02  0.47351014144E+03  0.47541246066E+03  0.00000000000E+00 0.  1.
         22    1    3    3    0    0  0.56660414663E+02 -0.10601109226E+03  0.10106033738E+04  0.10177268462E+04  0.00000000000E+00 0.  1.
</event>
<event>
 7    1  0.5127424E-006  0.5697633E+02  0.7818608E-02  0.1511522E+00
          2   -1    0    0  502    0  0.00000000000E+00  0.00000000000E+00  0.82759257751E+03  0.82759257751E+03  0.00000000000E+00 0. -1.
          1   -1    0    0  501    0 -0.00000000000E+00 -0.00000000000E+00 -0.63953330268E+03  0.63953330268E+03  0.00000000000E+00 0. -1.
         25    2    1    2    0    0  0.37194619112E+02  0.56176625047E+02 -0.18697468140E+03  0.23478488728E+03  0.12500063567E+03 0.  0.
          2    1    1    2  501    0 -0.27458597588E+02 -0.61429967370E-01 -0.42720318304E+03  0.42808473222E+03  0.00000000000E+00 0. -1.
          1    1    1    2  502    0 -0.97360215245E+01 -0.56115195080E+02  0.80223713928E+03  0.80425626070E+03  0.00000000000E+00 0. -1.
         22    1    3    3    0    0  0.50385340292E+01  0.21615022012E+02  0.15376170222E+02  0.27000418746E+02  0.00000000000E+00 0.  1.
         22    1    3    3    0    0  0.32156085083E+02  0.34561603035E+02 -0.20235085162E+03  0.20778446853E+03  0.00000000000E+00 0.  1.
</event>
<event>
 7    1  0.5127424E-006  0.2696904E+03  0.7818608E-02  0.1210528E+00
          2   -1    0    0  502    0  0.00000000000E+00  0.00000000000E+00  0.15575360087E+04  0.15575360087E+04  0.00000000000E+00 0. -1.
          1   -1    0    0  501    0 -0.00000000000E+00 -0.00000000000E+00 -0.26298566159E+04  0.26298566159E+04  0.00000000000E+00 0. -1.
         25    2    1    2    0    0 -0.15383742183E+02  0.19994166818E+03 -0.10127667565E+03  0.25709028521E+03  0.12500047808E+03 0.  0.
          2    1    1    2  501    0  0.69319922526E+01  0.74553148884E+02 -0.24373504244E+04  0.24385002186E+04  0.00000000000E+00 0. -1.
          1    1    1    2  502    0  0.84517499309E+01 -0.27449481706E+03  0.14663064928E+04  0.14918021208E+04  0.00000000000E+00 0. -1.
         22    1    3    3    0    0 -0.10393065535E+02  0.20075471705E+03 -0.52114760783E+02  0.20766901676E+03  0.00000000000E+00 0.  1.
         22    1    3    3    0    0 -0.49906766490E+01 -0.81304887392E+00 -0.49161914868E+02  0.49421268452E+02  0.00000000000E+00 0.  1.
</event>
<event>
 7    1  0.5127424E-006  0.9684385E+02  0.7818608E-02  0.1331890E+00
          2   -1    0    0  502    0  0.00000000000E+00  0.00000000000E+00  0.16896902209E+04  0.16896902209E+04  0.00000000000E+00 0. -1.
          1   -1    0    0  501    0 -0.00000000000E+00 -0.00000000000E+00 -0.62723240974E+03  0.62723240974E+03  0.00000000000E+00 0. -1.
         25    2    1    2    0    0 -0.10274386417E+03  0.11515777721E+03  0.12486433894E+03  0.23459702835E+03  0.12500818891E+03 0.  0.
          2    1    1    2  501    0  0.77707544147E+02 -0.55761563659E+02 -0.56767591635E+03  0.57567678467E+03  0.00000000000E+00 0. -1.
          1    1    1    2  502    0  0.25036320022E+02 -0.59396213552E+02  0.15052693886E+04  0.15066488177E+04  0.00000000000E+00 0. -1.
         22    1    3    3    0    0 -0.84014033276E+02  0.13828674682E+03  0.12558800285E+03  0.20482658176E+03  0.00000000000E+00 0.  1.
         22    1    3    3    0    0 -0.18729830892E+02 -0.23128969613E+02 -0.72366391230E+00  0.29770446589E+02  0.00000000000E+00 0.  1.
</event>
<event>
 7    1  0.5127424E-006  0.1224213E+03  0.7818608E-02  0.1399586E+00
          2   -1    0    0  502    0  0.00000000000E+00  0.00000000000E+00  0.26331002878E+04  0.26331002878E+04  0.00000000000E+00 0. -1.
          1   -1    0    0  501    0 -0.00000000000E+00 -0.00000000000E+00 -0.52368808806E+03  0.52368808806E+03  0.00000000000E+00 0. -1.
         25    2    1    2    0    0 -0.71532246852E+02  0.71678776648E+02  0.92565638084E+03  0.93952581724E+03  0.12495725871E+03 0.  0.
          2    1    1    2  501    0  0.10049582626E+03 -0.70220907114E+02 -0.50935590189E+03  0.52390249253E+03  0.00000000000E+00 0. -1.
          1    1    1    2  502    0 -0.28963579412E+02 -0.14578695346E+01  0.16931117208E+04  0.16933600661E+04  0.00000000000E+00 0. -1.
         22    1    3    3    0    0 -0.35864703244E+02  0.72460390706E+01  0.72261478692E+03  0.72354053950E+03  0.00000000000E+00 0. -1.
         22    1    3    3    0    0 -0.35667543608E+02  0.64432737578E+02  0.20304159392E+03  0.21598527774E+03  0.00000000000E+00 0. -1.
</event>
<event>
 7    1  0.5127424E-006  0.1010661E+03  0.7818608E-02  0.1388965E+00
          2   -1    0    0  502    0  0.00000000000E+00  0.00000000000E+00  0.19155509184E+04  0.19155509184E+04  0.00000000000E+00 0. -1.
          1   -1    0    0  501    0 -0.00000000000E+00 -0.00000000000E+00 -0.11887464205E+03  0.11887464205E+03  0.00000000000E+00 0. -1.
         25    2    1    2    0    0 -0.13077746937E+02 -0.12511846186E+03  0.28302718803E+02  0.17958830584E+03  0.12500103495E+03 0.  0.
          2    1    1    2  501    0 -0.22748530208E+01  0.90098726620E+02  0.41747052424E+01  0.90224074717E+02  0.00000000000E+00 0. -1.
          1    1    1    2  502    0  0.15352599958E+02  0.35019735243E+02  0.17641988524E+04  0.17646131799E+04  0.00000000000E+00 0. -1.
         22    1    3    3    0    0 -0.18472403175E+02  0.22756593010E+02  0.64266588359E+01  0.30006568419E+02  0.00000000000E+00 0.  1.
         22    1    3    3    0    0  0.53946562379E+01 -0.14787505487E+03  0.21876059967E+02  0.14958173742E+03  0.00000000000E+00 0.  1.
</event>
<event>
 7    1  0.5127424E-006  0.4068264E+02  0.7818608E-02  0.1579290E+00
          2   -1    0    0  502    0  0.00000000000E+00  0.00000000000E+00  0.73748603977E+02  0.73748603977E+02  0.00000000000E+00 0. -1.
          1   -1    0    0  501    0 -0.00000000000E+00 -0.00000000000E+00 -0.66928514957E+03  0.66928514957E+03  0.00000000000E+00 0. -1.
         25    2    1    2    0    0  0.20563811158E+02 -0.21208336836E+01 -0.71709877724E+02  0.14558870123E+03  0.12500558027E+03 0.  0.
          2    1    1    2  501    0 -0.38165557528E+02 -0.15367823797E+02 -0.55560545915E+03  0.55712674144E+03  0.00000000000E+00 0. -1.
          1    1    1    2  502    0  0.17601746370E+02  0.17488657481E+02  0.31778791286E+02  0.40318310870E+02  0.00000000000E+00 0. -1.
         22    1    3    3    0    0  0.19903739219E+02 -0.20047728999E+02  0.30641581654E+02  0.41677053629E+02  0.00000000000E+00 0. -1.
         22    1    3    3    0    0  0.66007193865E+00  0.17926895315E+02 -0.10235145938E+03  0.10391164760E+03  0.00000000000E+00 0. -1.
</event>
<event>
 7    1  0.5127424E-006  0.4407798E+02  0.7818608E-02  0.1548100E+00
          2   -1    0    0  502    0  0.00000000000E+00  0.00000000000E+00  0.91397096313E+02  0.91397096313E+02  0.00000000000E+00 0. -1.
          1   -1    0    0  501    0 -0.00000000000E+00 -0.00000000000E+00 -0.18387456543E+03  0.18387456543E+03  0.00000000000E+00 0. -1.
         25    2    1    2    0    0 -0.28169633718E+02  0.35291347494E+01 -0.41284765057E+02  0.13466418059E+03  0.12499610655E+03 0.  0.
          2    1    1    2  501    0  0.41758052923E+02  0.20816718289E+02 -0.84891948961E+02  0.96869570778E+02  0.00000000000E+00 0. -1.
          1    1    1    2  502    0 -0.13588419205E+02 -0.24345853038E+02  0.33699244902E+02  0.43737910371E+02  0.00000000000E+00 0. -1.
         22    1    3    3    0    0 -0.45331532033E+02  0.14610428436E+02  0.32790175282E+02  0.57823939771E+02  0.00000000000E+00 0.  1.
         22    1    3    3    0    0  0.17161898315E+02 -0.11081293686E+02 -0.74074940339E+02  0.76840240823E+02  0.00000000000E+00 0.  1.
</event>
<event>
 7    1  0.5127424E-006  0.6989830E+02  0.7818608E-02  0.1499011E+00
          2   -1    0    0  502    0  0.00000000000E+00  0.00000000000E+00  0.17938029363E+04  0.17938029363E+04  0.00000000000E+00 0. -1.
          1   -1    0    0  501    0 -0.00000000000E+00 -0.00000000000E+00 -0.27001931746E+02  0.27001931746E+02  0.00000000000E+00 0. -1.
         25    2    1    2    0    0  0.54125793902E+02  0.13054898186E+02  0.27648695561E+03  0.30849727597E+03  0.12500200291E+03 0.  0.
          2    1    1    2  501    0 -0.70063692528E+02 -0.31499422372E+02  0.12460822057E+03  0.14638423158E+03  0.00000000000E+00 0. -1.
          1    1    1    2  502    0  0.15937898627E+02  0.18444524186E+02  0.13657058284E+04  0.13659233605E+04  0.00000000000E+00 0. -1.
         22    1    3    3    0    0  0.68777862070E+02  0.86288807083E+01  0.60609895078E+02  0.92078288833E+02  0.00000000000E+00 0.  1.
         22    1    3    3    0    0 -0.14652068168E+02  0.44260174778E+01  0.21587706053E+03  0.21641898714E+03  0.00000000000E+00 0.  1.
</event>
<event>
 7    1  0.5127424E-006  0.4920052E+02  0.7818608E-02  0.1522573E+00
          2   -1    0    0  502    0  0.00000000000E+00  0.00000000000E+00  0.27594508564E+02  0.27594508564E+02  0.00000000000E+00 0. -1.
          1   -1    0    0  501    0 -0.00000000000E+00 -0.00000000000E+00 -0.46962824948E+03  0.46962824948E+03  0.00000000000E+00 0. -1.
         25    2    1    2    0    0  0.73829603535E+02 -0.10120092652E+02 -0.34079024366E+03  0.37056323167E+03  0.12500356738E+03 0.  0.
          2    1    1    2  501    0 -0.29460055495E+02  0.19492382477E+01 -0.52566082741E+02  0.60290027817E+02  0.00000000000E+00 0. -1.
          1    1    1    2  502    0 -0.44369548041E+02  0.81708544041E+01 -0.48677414513E+02  0.66369498557E+02  0.00000000000E+00 0. -1.
         22    1    3    3    0    0 -0.25730757057E+02  0.12415194494E+02 -0.22683636108E+02  0.36479532071E+02  0.00000000000E+00 0.  1.
         22    1    3    3    0    0  0.99560360592E+02 -0.22535287146E+02 -0.31810660755E+03  0.33408369960E+03  0.00000000000E+00 0.  1.
</event>
<event>
 7    1  0.5127424E-006  0.6637269E+02  0.7818608E-02  0.1419435E+00
          2   -1    0    0  502    0  0.00000000000E+00  0.00000000000E+00  0.82123005705E+02  0.82123005705E+02  0.00000000000E+00 0. -1.
          1   -1    0    0  501    0 -0.00000000000E+00 -0.00000000000E+00 -0.77773292390E+03  0.77773292390E+03  0.00000000000E+00 0. -1.
         25    2    1    2    0    0 -0.49376379821E+02  0.98603722543E+02 -0.13161418063E+03  0.21238605603E+03  0.12499929307E+03 0.  0.
          2    1    1    2  501    0  0.28725469502E+02 -0.57713194083E+02 -0.59085866345E+03  0.59436514496E+03  0.00000000000E+00 0. -1.
          1    1    1    2  502    0  0.20650910319E+02 -0.40890528459E+02  0.26862925883E+02  0.53104728619E+02  0.00000000000E+00 0. -1.
         22    1    3    3    0    0  0.24782791089E+01  0.11287798990E+03 -0.88753182068E+02  0.14361305581E+03  0.00000000000E+00 0. -1.
         22    1    3    3    0    0 -0.51854658930E+02 -0.14274267360E+02 -0.42860998564E+02  0.68773000220E+02  0.00000000000E+00 0. -1.
</event>
<event>
 7    1  0.5127424E-006  0.7757385E+02  0.7818608E-02  0.1422163E+00
          2   -1    0    0  502    0  0.00000000000E+00  0.00000000000E+00  0.87197348452E+02  0.87197348452E+02  0.00000000000E+00 0. -1.
          1   -1    0    0  501    0 -0.00000000000E+00 -0.00000000000E+00 -0.12065872848E+04  0.12065872848E+04  0.00000000000E+00 0. -1.
         25    2    1    2    0    0  0.34356311943E+02  0.48038329328E+02 -0.13042842117E+03  0.19006069215E+03  0.12499382544E+03 0.  0.
          2    1    1    2  501    0 -0.20185081334E+02  0.32645573030E+02 -0.10165574312E+04  0.10172817613E+04  0.00000000000E+00 0. -1.
          1    1    1    2  502    0 -0.14171230608E+02 -0.80683902358E+02  0.27595915978E+02  0.86442179839E+02  0.00000000000E+00 0. -1.
         22    1    3    3    0    0 -0.40753086657E+02 -0.53935555631E+01 -0.65431085142E+02  0.77273096331E+02  0.00000000000E+00 0. -1.
         22    1    3    3    0    0  0.75109398600E+02  0.53431884891E+02 -0.64997336024E+02  0.11278759582E+03  0.00000000000E+00 0. -1.
</event>
<event>
 7    1  0.5127424E-006  0.3146949E+03  0.7818608E-02  0.1178567E+00
          2   -1    0    0  502    0  0.00000000000E+00  0.00000000000E+00  0.23966902405E+04  0.23966902405E+04  0.00000000000E+00 0. -1.
          1   -1    0    0  501    0 -0.00000000000E+00 -0.00000000000E+00 -0.38993995695E+03  0.38993995695E+03  0.00000000000E+00 0. -1.
         25    2    1    2    0    0 -0.20484743144E+03 -0.34603676816E+03 -0.14609841837E+03  0.44572821778E+03  0.12499992475E+03 0.  0.
          2    1    1    2  501    0  0.53024237887E+02  0.74069974546E+02 -0.58150358832E+02  0.10807125041E+03  0.00000000000E+00 0. -1.
          1    1    1    2  502    0  0.15182319356E+03  0.27196679362E+03  0.22109990608E+04  0.22328307293E+04  0.00000000000E+00 0. -1.
         22    1    3    3    0    0 -0.83340302947E+02 -0.25686471732E+03 -0.10233010850E+03  0.28878459135E+03  0.00000000000E+00 0. -1.
         22    1    3    3    0    0 -0.12150712850E+03 -0.89172050847E+02 -0.43768309863E+02  0.15694362643E+03  0.00000000000E+00 0. -1.
</event>
<event>
 7    1  0.5528939E-006  0.1508172E+03  0.7818608E-02  0.1295142E+00
          2   -1    0    0  502    0  0.00000000000E+00  0.00000000000E+00  0.17795192434E+04  0.17795192434E+04  0.00000000000E+00 0. -1.
          1   -1    0    0  501    0 -0.00000000000E+00 -0.00000000000E+00 -0.99541697174E+03  0.99541697174E+03  0.00000000000E+00 0. -1.
         25    2    1    2    0    0  0.94229291334E+02 -0.65935926452E+02 -0.11838768215E+03  0.20704304550E+03  0.12499789464E+03 0.  0.
          2    1    1    2  501    0 -0.58969530803E+01 -0.57367300754E+02 -0.82838254661E+03  0.83038751482E+03  0.00000000000E+00 0. -1.
          1    1    1    2  502    0 -0.88332338253E+02  0.12330322721E+03  0.17308725004E+04  0.17375056548E+04  0.00000000000E+00 0. -1.
         22    1    3    3    0    0  0.11006169063E+02 -0.83854548771E+02 -0.54617167111E+02  0.10067649204E+03  0.00000000000E+00 0. -1.
         22    1    3    3    0    0  0.83223122271E+02  0.17918622318E+02 -0.63770515038E+02  0.10636655346E+03  0.00000000000E+00 0. -1.
</event>
<event>
 7    1  0.5127424E-006  0.4446656E+02  0.7818608E-02  0.1546782E+00
          2   -1    0    0  502    0  0.00000000000E+00  0.00000000000E+00  0.20737682955E+04  0.20737682955E+04  0.00000000000E+00 0. -1.
          1   -1    0    0  501    0 -0.00000000000E+00 -0.00000000000E+00 -0.36897118776E+03  0.36897118776E+03  0.00000000000E+00 0. -1.
         25    2    1    2    0    0 -0.31749498324E+02  0.64681997401E+02  0.99613834231E+03  0.10065323308E+04  0.12499577795E+03 0.  0.
          2    1    1    2  501    0  0.22152642148E+02 -0.38512721789E+02 -0.36223558367E+03  0.36495011628E+03  0.00000000000E+00 0. -1.
          1    1    1    2  502    0  0.95968561760E+01 -0.26169275612E+02  0.10708943491E+04  0.10712570362E+04  0.00000000000E+00 0. -1.
         22    1    3    3    0    0  0.25757226948E+01  0.92956946445E+02  0.80158480023E+03  0.80696085419E+03  0.00000000000E+00 0.  1.
         22    1    3    3    0    0 -0.34325221018E+02 -0.28274949044E+02  0.19455354208E+03  0.19957147661E+03  0.00000000000E+00 0.  1.
</event>
<event>
 7    1  0.5127424E-006  0.3939665E+03  0.7818608E-02  0.1176484E+00
          2   -1    0    0  502    0  0.00000000000E+00  0.00000000000E+00  0.11555950900E+04  0.11555950900E+04  0.00000000000E+00 0. -1.
          1   -1    0    0  501    0 -0.00000000000E+00 -0.00000000000E+00 -0.69124507001E+03  0.69124507001E+03  0.00000000000E+00 0. -1.
         25    2    1    2    0    0 -0.16320797442E+03 -0.40162561299E+03 -0.33155486954E+02  0.45239081468E+03  0.12497274491E+03 0.  0.
          2    1    1    2  501    0  0.18633845445E+03  0.33081205222E+03 -0.36621926146E+03  0.52751794374E+03  0.00000000000E+00 0. -1.
          1    1    1    2  502    0 -0.23130480038E+02  0.70813560773E+02  0.86372476845E+03  0.86693140163E+03  0.00000000000E+00 0. -1.
         22    1    3    3    0    0 -0.15622474253E+03 -0.37917079740E+03 -0.62454573471E+02  0.41482193472E+03  0.00000000000E+00 0.  1.
         22    1    3    3    0    0 -0.69832318863E+01 -0.22454815593E+02  0.29299086516E+02  0.37568879962E+02  0.00000000000E+00 0.  1.
</event>
<event>
 7    1  0.5127424E-006  0.7307799E+02  0.7818608E-02  0.1453030E+00
          2   -1    0    0  502    0  0.00000000000E+00  0.00000000000E+00  0.97705800162E+02  0.97705800162E+02  0.00000000000E+00 0. -1.
          1   -1    0    0  501    0 -0.00000000000E+00 -0.00000000000E+00 -0.90321645399E+03  0.90321645399E+03  0.00000000000E+00 0. -1.
         25    2    1    2    0    0  0.97045682160E+01  0.54266668087E+02 -0.13707997144E+03  0.19353013370E+03  0.12499577661E+03 0.  0.
          2    1    1    2  501    0  0.30799143611E+02  0.98107538499E+01 -0.71676171145E+03  0.71749020142E+03  0.00000000000E+00 0. -1.
          1    1    1    2  502    0 -0.40503711827E+02 -0.64077421937E+02  0.48331029064E+02  0.89901919024E+02  0.00000000000E+00 0. -1.
         22    1    3    3    0    0 -0.29100995005E+02  0.50167619771E+01  0.11942840097E+02  0.31853841850E+02  0.00000000000E+00 0.  1.
         22    1    3    3    0    0  0.38805563221E+02  0.49249906110E+02 -0.14902281154E+03  0.16167629185E+03  0.00000000000E+00 0.  1.
</event>
<event>
 7    1  0.5127424E-006  0.2345166E+03  0.7818608E-02  0.1289098E+00
          2   -1    0    0  502    0  0.00000000000E+00  0.00000000000E+00  0.31738516706E+03  0.31738516706E+03  0.00000000000E+00 0. -1.
          1   -1    0    0  501    0 -0.00000000000E+00 -0.00000000000E+00 -0.19517571107E+04  0.19517571107E+04  0.00000000000E+00 0. -1.
         25    2    1    2    0    0  0.13373963655E+03 -0.16127633071E+03 -0.58234644794E+03  0.63138677899E+03  0.12500213607E+03 0.  0.
          2    1    1    2  501    0 -0.16855383141E+03  0.17937935204E+03 -0.13322495256E+04  0.13547974551E+04  0.00000000000E+00 0. -1.
          1    1    1    2  502    0  0.34814194855E+02 -0.18103021332E+02  0.28022402987E+03  0.28295804364E+03  0.00000000000E+00 0. -1.
         22    1    3    3    0    0  0.21874784494E+02 -0.12076411547E+02 -0.24212823301E+03  0.24341410627E+03  0.00000000000E+00 0.  1.
         22    1    3    3    0    0  0.11186485206E+03 -0.14919991916E+03 -0.34021821493E+03  0.38797267272E+03  0.00000000000E+00 0.  1.
</event>
<event>
 7    1  0.5127424E-006  0.9115971E+02  0.7818608E-02  0.1310929E+00
          2   -1    0    0  502    0  0.00000000000E+00  0.00000000000E+00  0.55244989364E+03  0.55244989364E+03  0.00000000000E+00 0. -1.
          1   -1    0    0  501    0 -0.00000000000E+00 -0.00000000000E+00 -0.58590130370E+03  0.58590130370E+03  0.00000000000E+00 0. -1.
         25    2    1    2    0    0  0.27798200056E+02  0.62360306375E+01  0.65481739459E+01  0.12837147123E+03  0.12499891216E+03 0.  0.
          2    1    1    2  501    0  0.13991537230E+02  0.81351356251E+02 -0.51682671738E+03  0.52337717000E+03  0.00000000000E+00 0. -1.
          1    1    1    2  502    0 -0.41789737286E+02 -0.87587386888E+02  0.47682713337E+03  0.48660255610E+03  0.00000000000E+00 0. -1.
         22    1    3    3    0    0 -0.11720946966E+02 -0.49471563752E+02 -0.20621981330E+02  0.54864217226E+02  0.00000000000E+00 0. -1.
         22    1    3    3    0    0  0.39519147023E+02  0.55707594389E+02  0.27170155276E+02  0.73507254008E+02  0.00000000000E+00 0. -1.
</event>
<event>
 7    1  0.5127424E-006  0.8778569E+02  0.7818608E-02  0.1373303E+00
          2   -1    0    0  502    0  0.00000000000E+00  0.00000000000E+00  0.21028074304E+03  0.21028074304E+03  0.00000000000E+00 0. -1.
          1   -1    0    0  501    0 -0.00000000000E+00 -0.00000000000E+00 -0.78701856555E+03  0.78701856555E+03  0.00000000000E+00 0. -1.
         25    2    1    2    0    0  0.10899430584E+03 -0.33354035381E+02 -0.14143351446E+03  0.22050880498E+03  0.12501377396E+03 0.  0.
          2    1    1    2  501    0 -0.43883211142E+02 -0.23981571967E+02 -0.59390761730E+03  0.59600932032E+03  0.00000000000E+00 0. -1.
          1    1    1    2  502    0 -0.65111094700E+02  0.57335607348E+02  0.15860330926E+03  0.18078118328E+03  0.00000000000E+00 0. -1.
         22    1    3    3    0    0  0.91106724661E+02 -0.77418191559E+02 -0.84915070958E+02  0.14664440302E+03  0.00000000000E+00 0. -1.
         22    1    3    3    0    0  0.17887581181E+02  0.44064156178E+02 -0.56518443505E+02  0.73864401957E+02  0.00000000000E+00 0. -1.
</event>
<event>
 7    1  0.5127424E-006  0.7304358E+02  0.7818608E-02  0.1482967E+00
          2   -1    0    0  502    0  0.00000000000E+00  0.00000000000E+00  0.81943944328E+03  0.81943944328E+03  0.00000000000E+00 0. -1.
          1   -1    0    0  501    0 -0.00000000000E+00 -0.00000000000E+00 -0.27558491757E+03  0.27558491757E+03  0.00000000000E+00 0. -1.
         25    2    1    2    0    0 -0.82825475430E+02  0.19774655586E+02  0.88804210585E+02  0.17538563553E+03  0.12499134749E+03 0.  0.
          2    1    1    2  501    0  0.62827964664E+02 -0.36518315247E+02 -0.22635514824E+03  0.23773429207E+03  0.00000000000E+00 0. -1.
          1    1    1    2  502    0  0.19997510765E+02  0.16743659662E+02  0.68140546337E+03  0.68190443325E+03  0.00000000000E+00 0. -1.
         22    1    3    3    0    0 -0.17528087732E+02  0.67879763207E+02  0.42945937013E+02  0.82214655740E+02  0.00000000000E+00 0.  1.
         22    1    3    3    0    0 -0.65297387698E+02 -0.48105107621E+02  0.45858273572E+02  0.93170979787E+02  0.00000000000E+00 0.  1.
</event>
<event>
 7    1  0.5127424E-006  0.4491082E+02  0.7818608E-02  0.1537726E+00
          2   -1    0    0  502    0  0.00000000000E+00  0.00000000000E+00  0.25442570493E+03  0.25442570493E+03  0.00000000000E+00 0. -1.
          1   -1    0    0  501    0 -0.00000000000E+00 -0.00000000000E+00 -0.20520254554E+03  0.20520254554E+03  0.00000000000E+00 0. -1.
         25    2    1    2    0    0 -0.19852025812E+02  0.69429533843E+02  0.25569829241E+02  0.14660286937E+03  0.12499608811E+03 0.  0.
          2    1    1    2  501    0  0.64988957972E+01 -0.43384913569E+02 -0.14003259461E+03  0.14674336075E+03  0.00000000000E+00 0. -1.
          1    1    1    2  502    0  0.13353130015E+02 -0.26044620274E+02  0.16368592475E+03  0.16628202034E+03  0.00000000000E+00 0. -1.
         22    1    3    3    0    0  0.39728863035E+02  0.31464465404E+01 -0.22057292938E+02  0.45550047812E+02  0.00000000000E+00 0. -1.
         22    1    3    3    0    0 -0.59580888848E+02  0.66283087303E+02  0.47627122179E+02  0.10105282156E+03  0.00000000000E+00 0. -1.
</event>
<event>
 7    1  0.5127424E-006  0.1050034E+03  0.7818608E-02  0.1314435E+00
          2   -1    0    0  502    0  0.00000000000E+00  0.00000000000E+00  0.11246516845E+04  0.11246516845E+04  0.00000000000E+00 0. -1.
          1   -1    0    0  501    0 -0.00000000000E+00 -0.00000000000E+00 -0.51392784714E+03  0.51392784714E+03  0.00000000000E+00 0. -1.
         25    2    1    2    0    0 -0.12120720332E+02 -0.71976436920E+02 -0.18241169655E+02  0.14589578598E+03  0.12500128304E+03 0.  0.
          2    1    1    2  501    0  0.66584301322E+02 -0.19667520961E+02 -0.42636606130E+03  0.43198182692E+03  0.00000000000E+00 0. -1.
          1    1    1    2  502    0 -0.54463580990E+02  0.91643957881E+02  0.10553310684E+04  0.10607019188E+04  0.00000000000E+00 0. -1.
         22    1    3    3    0    0 -0.46058015165E+02 -0.35168646689E+02 -0.57981027179E+02  0.81975447444E+02  0.00000000000E+00 0.  1.
         22    1    3    3    0    0  0.33937294833E+02 -0.36807790231E+02  0.39739857525E+02  0.63920338534E+02  0.00000000000E+00 0.  1.
</event>
<event>
 7    1  0.5127424E-006  0.1129542E+03  0.7818608E-02  0.1394321E+00
          2   -1    0    0  502    0  0.00000000000E+00  0.00000000000E+00  0.48347942138E+03  0.48347942138E+03  0.00000000000E+00 0. -1.
          1   -1    0    0  501    0 -0.00000000000E+00 -0.00000000000E+00 -0.40232678898E+03  0.40232678898E+03  0.00000000000E+00 0. -1.
         25    2    1    2    0    0 -0.10354450806E+03  0.49753643003E+02 -0.18283378796E+03  0.24950135251E+03  0.12500336294E+03 0.  0.
          2    1    1    2  501    0  0.19768819973E+02  0.26141722732E+02 -0.17753868757E+03  0.18053858728E+03  0.00000000000E+00 0. -1.
          1    1    1    2  502    0  0.83775688088E+02 -0.75895365735E+02  0.44152510793E+03  0.45576627057E+03  0.00000000000E+00 0. -1.
         22    1    3    3    0    0 -0.31695515040E+02  0.65182134247E+02 -0.15465586713E+03  0.17079740495E+03  0.00000000000E+00 0. -1.
         22    1    3    3    0    0 -0.71848993020E+02 -0.15428491245E+02 -0.28177920823E+02  0.78703947563E+02  0.00000000000E+00 0. -1.
</event>
<event>
 7    1  0.5127424E-006  0.1170110E+03  0.7818608E-02  0.1301773E+00
          2   -1    0    0  502    0  0.00000000000E+00  0.00000000000E+00  0.53380632513E+03  0.53380632513E+03  0.00000000000E+00 0. -1.
          1   -1    0    0  501    0 -0.00000000000E+00 -0.00000000000E+00 -0.22662175230E+03  0.22662175230E+03  0.00000000000E+00 0. -1.
         25    2    1    2    0    0 -0.60483419112E+02  0.82059840216E+01  0.71437014995E+02  0.15637683395E+03  0.12499953969E+03 0.  0.
          2    1    1    2  501    0 -0.69913104017E+02  0.24613085333E+00 -0.16678238068E+03  0.18084320612E+03  0.00000000000E+00 0. -1.
          1    1    1    2  502    0  0.13039652313E+03 -0.84521148750E+01  0.40252993851E+03  0.42320803736E+03  0.00000000000E+00 0. -1.
         22    1    3    3    0    0 -0.71157632245E+02 -0.40770460055E+02  0.19706669571E+02  0.84344483313E+02  0.00000000000E+00 0.  1.
         22    1    3    3    0    0  0.10674213132E+02  0.48976444077E+02  0.51730345424E+02  0.72032350635E+02  0.00000000000E+00 0.  1.
</event>
<event>
 7    1  0.5127424E-006  0.1705320E+03  0.7818608E-02  0.1325221E+00
          2   -1    0    0  502    0  0.00000000000E+00  0.00000000000E+00  0.88536155344E+03  0.88536155344E+03  0.00000000000E+00 0. -1.
          1   -1    0    0  501    0 -0.00000000000E+00 -0.00000000000E+00 -0.25803283827E+03  0.25803283827E+03  0.00000000000E+00 0. -1.
         25    2    1    2    0    0 -0.14579329904E+03 -0.27586931539E+02  0.97713334676E+02  0.21723038336E+03  0.12499767537E+03 0.  0.
          2    1    1    2  501    0 -0.17545922512E+02 -0.34630253011E+02 -0.18574562698E+03  0.18975919415E+03  0.00000000000E+00 0. -1.
          1    1    1    2  502    0  0.16333922155E+03  0.62217184551E+02  0.71536100747E+03  0.73640481419E+03  0.00000000000E+00 0. -1.
         22    1    3    3    0    0 -0.86221534083E+02 -0.77030948443E+02  0.69095213466E+02  0.13469249601E+03  0.00000000000E+00 0.  1.
         22    1    3    3    0    0 -0.59571764952E+02  0.49444016904E+02  0.28618121210E+02  0.82537887353E+02  0.00000000000E+00 0.  1.
</event>
<event>
 7    1  0.5127424E-006  0.1336060E+03  0.7818608E-02  0.1230671E+00
          2   -1    0    0  502    0  0.00000000000E+00  0.00000000000E+00  0.43362998086E+03  0.43362998086E+03  0.00000000000E+00 0. -1.
          1   -1    0    0  501    0 -0.00000000000E+00 -0.00000000000E+00 -0.18159105004E+03  0.18159105004E+03  0.00000000000E+00 0. -1.
         25    2    1    2    0    0  0.16398573860E+02  0.10593211947E+03  0.30724939670E+02  0.16750486263E+03  0.12499331954E+03 0.  0.
          2    1    1    2  501    0 -0.13086072114E+03 -0.26945269415E+02 -0.50145675204E+02  0.14270656825E+03  0.00000000000E+00 0. -1.
          1    1    1    2  502    0  0.11446214728E+03 -0.78986850053E+02  0.27145966636E+03  0.30500960001E+03  0.00000000000E+00 0. -1.
         22    1    3    3    0    0  0.55139472963E+02  0.61274401355E+01 -0.21217144067E+01  0.55519444101E+02  0.00000000000E+00 0.  1.
         22    1    3    3    0    0 -0.38740899103E+02  0.99804679333E+02  0.32846654077E+02  0.11198541853E+03  0.00000000000E+00 0.  1.
</event>
<event>
 7    1  0.5127424E-006  0.8464348E+02  0.7818608E-02  0.1396603E+00
          2   -1    0    0  502    0  0.00000000000E+00  0.00000000000E+00  0.68135279991E+03  0.68135279991E+03  0.00000000000E+00 0. -1.
          1   -1    0    0  501    0 -0.00000000000E+00 -0.00000000000E+00 -0.10186671214E+04  0.10186671214E+04  0.00000000000E+00 0. -1.
         25    2    1    2    0    0  0.79586681449E+02 -0.24580382658E+02  0.11719899129E+02  0.15066558031E+03  0.12499810390E+03 0.  0.
          2    1    1    2  501    0  0.35962247191E+01  0.42798190935E+02 -0.94568387305E+03  0.94665865323E+03  0.00000000000E+00 0. -1.
          1    1    1    2  502    0 -0.83182906168E+02 -0.18217808277E+02  0.59664965239E+03  0.60269568781E+03  0.00000000000E+00 0. -1.
         22    1    3    3    0    0  0.11190261955E+03 -0.32505297367E+02  0.44834290412E+01  0.11661428624E+03  0.00000000000E+00 0.  1.
         22    1    3    3    0    0 -0.32315938102E+02  0.79249147086E+01  0.72364700881E+01  0.34051294071E+02  0.00000000000E+00 0.  1.
</event>
<event>
 7    1  0.5127424E-006  0.1504953E+03  0.7818608E-02  0.1245651E+00
          2   -1    0    0  502    0  0.00000000000E+00  0.00000000000E+00  0.25414375985E+04  0.25414375985E+04  0.00000000000E+00 0. -1.
          1   -1    0    0  501    0 -0.00000000000E+00 -0.00000000000E+00 -0.21614675204E+02  0.21614675204E+02  0.00000000000E+00 0. -1.
         25    2    1    2    0    0  0.11632836142E+03  0.14302288898E+03  0.12553509784E+04  0.12749587789E+04  0.12500389761E+03 0.  0.
          2    1    1    2  501    0  0.14333482032E+02 -0.92144044515E+02  0.32141465941E+03  0.33466902595E+03  0.00000000000E+00 0. -1.
          1    1    1    2  502    0 -0.13066184345E+03 -0.50878844464E+02  0.94305728548E+03  0.95342446887E+03  0.00000000000E+00 0. -1.
         22    1    3    3    0    0  0.80537995733E+02  0.77870612856E+01  0.54380245351E+03  0.54978915551E+03  0.00000000000E+00 0. -1.
         22    1    3    3    0    0  0.35790365686E+02  0.13523582769E+03  0.71154852487E+03  0.72516962334E+03  0.00000000000E+00 0. -1.
</event>
<event>
 7    1  0.5127424E-006  0.2236286E+03  0.7818608E-02  0.1207359E+00
          2   -1    0    0  502    0  0.00000000000E+00  0.00000000000E+00  0.14013798965E+04  0.14013798965E+04  0.00000000000E+00 0. -1.
          1   -1    0    0  501    0 -0.00000000000E+00 -0.00000000000E+00 -0.31860477124E+03  0.31860477124E+03  0.00000000000E+00 0. -1.
         25    2    1    2    0    0 -0.23893722433E+01  0.22684894037E+03 -0.21581622547E+03  0.33714635815E+03  0.12499949116E+03 0.  0.
          2    1    1    2  501    0 -0.88425068063E+02 -0.20498031509E+03  0.27143811308E+03  0.35144639914E+03  0.00000000000E+00 0. -1.
          1    1    1    2  502    0  0.90814440306E+02 -0.21868625283E+02  0.10271532377E+04  0.10313919105E+04  0.00000000000E+00 0. -1.
         22    1    3    3    0    0  0.33128661363E+01  0.98077601659E+02 -0.16098234112E+02  0.99445181737E+02  0.00000000000E+00 0.  1.
         22    1    3    3    0    0 -0.57022383796E+01  0.12877133871E+03 -0.19971799136E+03  0.23770117641E+03  0.00000000000E+00 0.  1.
</event>
<event>
 7    1  0.5127424E-006  0.7975005E+02  0.7818608E-02  0.1369611E+00
          2   -1    0    0  502    0  0.00000000000E+00  0.00000000000E+00  0.39661014990E+03  0.39661014990E+03  0.00000000000E+00 0. -1.
          1   -1    0    0  501    0 -0.00000000000E+00 -0.00000000000E+00 -0.46733390965E+03  0.46733390965E+03  0.00000000000E+00 0. -1.
         25    2    1    2    0    0 -0.30664126701E+02 -0.47870138974E+02 -0.28884618048E+03  0.31982674463E+03  0.12500076694E+03 0.  0.
          2    1    1    2  501    0  0.82657606507E+02  0.70618431729E+02 -0.14239944127E+03  0.17915592004E+03  0.00000000000E+00 0. -1.
          1    1    1    2  502    0 -0.51993479806E+02 -0.22748292755E+02  0.36052186200E+03  0.36496139487E+03  0.00000000000E+00 0. -1.
         22    1    3    3    0    0 -0.52381043623E+02 -0.73605946380E+02 -0.26079558177E+03  0.27599989953E+03  0.00000000000E+00 0. -1.
         22    1    3    3    0    0  0.21716916922E+02  0.25735807405E+02 -0.28050598710E+02  0.43826845100E+02  0.00000000000E+00 0. -1.
</event>
<event>
 7    1  0.5127424E-006  0.8131724E+02  0.7818608E-02  0.1344856E+00
          2   -1    0    0  502    0  0.00000000000E+00  0.00000000000E+00  0.15807099011E+04  0.15807099011E+04  0.00000000000E+00 0. -1.
          1   -1    0    0  501    0 -0.00000000000E+00 -0.00000000000E+00 -0.48433034851E+03  0.48433034851E+03  0.00000000000E+00 0. -1.
         25    2    1    2    0    0  0.71592706759E+02 -0.84969299360E+02  0.28476987287E+02  0.16964971546E+03  0.12499915862E+03 0.  0.
          2    1    1    2  501    0 -0.79255400450E+02  0.16809154794E+02 -0.40897420501E+03  0.41692189503E+03  0.00000000000E+00 0. -1.
          1    1    1    2  502    0  0.76626936911E+01  0.68160144566E+02  0.14768767703E+04  0.14784686391E+04  0.00000000000E+00 0. -1.
         22    1    3    3    0    0 -0.32234443455E+02 -0.18165741861E+02 -0.13289047882E+02  0.39314784952E+02  0.00000000000E+00 0.  1.
         22    1    3    3    0    0  0.10382715021E+03 -0.66803557499E+02  0.41766035169E+02  0.13033493050E+03  0.00000000000E+00 0.  1.
</event>
<event>
 7    1  0.5127424E-006  0.6836458E+02  0.7818608E-02  0.1410074E+00
          2   -1    0    0  502    0  0.00000000000E+00  0.00000000000E+00  0.14255987091E+03  0.14255987091E+03  0.00000000000E+00 0. -1.
          1   -1    0    0  501    0 -0.00000000000E+00 -0.00000000000E+00 -0.81776718813E+03  0.81776718813E+03  0.00000000000E+00 0. -1.
         25    2    1    2    0    0  0.71391282802E+02 -0.65558577759E+02 -0.17157913213E+03  0.23336434796E+03  0.12499951177E+03 0.  0.
          2    1    1    2  501    0 -0.47759491134E+02  0.24214323769E+01 -0.60408891287E+03  0.60597875126E+03  0.00000000000E+00 0. -1.
          1    1    1    2  502    0 -0.23631791667E+02  0.63137145382E+02  0.10046072779E+03  0.12098395981E+03  0.00000000000E+00 0. -1.
         22    1    3    3    0    0 -0.25639817986E+02  0.80584318315E+01 -0.55369058612E+01  0.27440771062E+02  0.00000000000E+00 0. -1.
         22    1    3    3    0    0  0.97031100788E+02 -0.73617009591E+02 -0.16604222627E+03  0.20592357690E+03  0.00000000000E+00 0. -1.
</event>
<event>
 7    1  0.5127424E-006  0.6585923E+02  0.7818608E-02  0.1486887E+00
          2   -1    0    0  502    0  0.00000000000E+00  0.00000000000E+00  0.43305946781E+03  0.43305946781E+03  0.00000000000E+00 0. -1.
          1   -1    0    0  501    0 -0.00000000000E+00 -0.00000000000E+00 -0.83429381708E+03  0.83429381708E+03  0.00000000000E+00 0. -1.
         25    2    1    2    0    0  0.46941226109E+02  0.22672213221E+02  0.91431769669E+02  0.16340872194E+03  0.12500053575E+03 0.  0.
          2    1    1    2  501    0 -0.42605011043E+02 -0.50478182796E+02 -0.79628710777E+03  0.79902214731E+03  0.00000000000E+00 0. -1.
          1    1    1    2  502    0 -0.43362150667E+01  0.27805969575E+02  0.30362098883E+03  0.30492241564E+03  0.00000000000E+00 0. -1.
         22    1    3    3    0    0 -0.73212408633E+00  0.54991797784E+02  0.90386292996E+02  0.10580319367E+03  0.00000000000E+00 0. -1.
         22    1    3    3    0    0  0.47673350196E+02 -0.32319584564E+02  0.10454766729E+01  0.57605528265E+02  0.00000000000E+00 0. -1.
</event>
<event>
 7    1  0.5127424E-006  0.1505200E+03  0.7818608E-02  0.1246412E+00
          2   -1    0    0  502    0  0.00000000000E+00  0.00000000000E+00  0.22454550927E+03  0.22454550927E+03  0.00000000000E+00 0. -1.
          1   -1    0    0  501    0 -0.00000000000E+00 -0.00000000000E+00 -0.15314224362E+04  0.15314224362E+04  0.00000000000E+00 0. -1.
         25    2    1    2    0    0  0.53879765051E+02 -0.52384922894E+02 -0.26908490595E+03  0.30607072996E+03  0.12500158358E+03 0.  0.
          2    1    1    2  501    0  0.14246306081E+02 -0.91422892114E+02 -0.12110920223E+04  0.12146213356E+04  0.00000000000E+00 0. -1.
          1    1    1    2  502    0 -0.68126071132E+02  0.14380781501E+03  0.17330000129E+03  0.23527587992E+03  0.00000000000E+00 0. -1.
         22    1    3    3    0    0  0.79383037563E+02 -0.15462577704E+02 -0.23830590502E+03  0.25165544367E+03  0.00000000000E+00 0.  1.
         22    1    3    3    0    0 -0.25503272512E+02 -0.36922345190E+02 -0.30779000928E+02  0.54415286283E+02  0.00000000000E+00 0.  1.
</event>
<event>
 7    1  0.6132155E-006  0.1099935E+03  0.7818608E-02  0.1289023E+00
          2   -1    0    0  502    0  0.00000000000E+00  0.00000000000E+00  0.31213993723E+04  0.31213993723E+04  0.00000000000E+00 0. -1.
          1   -1    0    0  501    0 -0.00000000000E+00 -0.00000000000E+00 -0.22661948811E+04  0.22661948811E+04  0.00000000000E+00 0. -1.
         25    2    1    2    0    0  0.18148847503E+03 -0.37553814101E+02 -0.59930328912E+03  0.63963970754E+03  0.12500467027E+03 0.  0.
          2    1    1    2  501    0 -0.10379857705E+03  0.63513694776E+01 -0.16445156582E+04  0.16478004231E+04  0.00000000000E+00 0. -1.
          1    1    1    2  502    0 -0.77689897983E+02  0.31202444623E+02  0.30990234385E+04  0.31001541228E+04  0.00000000000E+00 0. -1.
         22    1    3    3    0    0  0.82444606245E+02  0.29007911378E+02 -0.38052381789E+03  0.39043174564E+03  0.00000000000E+00 0. -1.
         22    1    3    3    0    0  0.99043868787E+02 -0.66561725479E+02 -0.21877947123E+03  0.24920796190E+03  0.00000000000E+00 0. -1.
</event>
<event>
 7    1  0.5127424E-006  0.4613276E+02  0.7818608E-02  0.1528833E+00
          2   -1    0    0  502    0  0.00000000000E+00  0.00000000000E+00  0.92909718767E+03  0.92909718767E+03  0.00000000000E+00 0. -1.
          1   -1    0    0  501    0 -0.00000000000E+00 -0.00000000000E+00 -0.11181762470E+03  0.11181762470E+03  0.00000000000E+00 0. -1.
         25    2    1    2    0    0 -0.31214947460E+02  0.21880625983E+02  0.41058488539E+03  0.43088129102E+03  0.12500241638E+03 0.  0.
          2    1    1    2  501    0  0.46140142392E+02  0.43812375505E+01 -0.95910218560E+02  0.10652172551E+03  0.00000000000E+00 0. -1.
          1    1    1    2  502    0 -0.14925194932E+02 -0.26261863533E+02  0.50260489615E+03  0.50351179584E+03  0.00000000000E+00 0. -1.
         22    1    3    3    0    0 -0.17000122543E+02 -0.49694099382E+02  0.11506283175E+03  0.12648305393E+03  0.00000000000E+00 0.  1.
         22    1    3    3    0    0 -0.14214824917E+02  0.71574725365E+02  0.29552205363E+03  0.30439823709E+03  0.00000000000E+00 0.  1.
</event>
<event>
 7    1  0.5127424E-006  0.9351848E+02  0.7818608E-02  0.1323669E+00
          2   -1    0    0  502    0  0.00000000000E+00  0.00000000000E+00  0.25118050348E+04  0.25118050348E+04  0.00000000000E+00 0. -1.
          1   -1    0    0  501    0 -0.00000000000E+00 -0.00000000000E+00 -0.88240767535E+03  0.88240767535E+03  0.00000000000E+00 0. -1.
         25    2    1    2    0    0  0.59153252796E+02 -0.17269217656E+02  0.71247504611E+03  0.72597812065E+03  0.12500482849E+03 0.  0.
          2    1    1    2  501    0 -0.77956195111E+02 -0.51997194851E+02 -0.87242769519E+03  0.87744570201E+03  0.00000000000E+00 0. -1.
          1    1    1    2  502    0  0.18802942315E+02  0.69266412507E+02  0.17893500086E+04  0.17907888875E+04  0.00000000000E+00 0. -1.
         22    1    3    3    0    0  0.52011748271E+02  0.49652018300E+02  0.38540974965E+03  0.39206022497E+03  0.00000000000E+00 0.  1.
         22    1    3    3    0    0  0.71415045246E+01 -0.66921235956E+02  0.32706529646E+03  0.33391789568E+03  0.00000000000E+00 0.  1.
</event>
<event>
 7    1  0.5127424E-006  0.5093363E+02  0.7818608E-02  0.1490000E+00
          2   -1    0    0  502    0  0.00000000000E+00  0.00000000000E+00  0.18641933952E+04  0.18641933952E+04  0.00000000000E+00 0. -1.
          1   -1    0    0  501    0 -0.00000000000E+00 -0.00000000000E+00 -0.36247691730E+02  0.36247691730E+02  0.00000000000E+00 0. -1.
         25    2    1    2    0    0  0.50269213010E+02  0.58288502940E+01  0.17087755128E+03  0.21768196111E+03  0.12500131755E+03 0.  0.
          2    1    1    2  501    0 -0.15765109339E+02  0.31926311446E+02  0.13015130757E+02  0.37910706452E+02  0.00000000000E+00 0. -1.
          1    1    1    2  502    0 -0.34504103671E+02 -0.37755161740E+02  0.16440530214E+04  0.16448484194E+04  0.00000000000E+00 0. -1.
         22    1    3    3    0    0  0.34230667006E+02 -0.57820505737E+02  0.10519489965E+03  0.12482354089E+03  0.00000000000E+00 0.  1.
         22    1    3    3    0    0  0.16038546004E+02  0.63649356031E+02  0.65682651627E+02  0.92858420221E+02  0.00000000000E+00 0.  1.
</event>
<event>
 7    1  0.5127424E-006  0.5357642E+02  0.7818608E-02  0.1437101E+00
          2   -1    0    0  502    0  0.00000000000E+00  0.00000000000E+00  0.47716685905E+03  0.47716685905E+03  0.00000000000E+00 0. -1.
          1   -1    0    0  501    0 -0.00000000000E+00 -0.00000000000E+00 -0.59943060176E+03  0.59943060176E+03  0.00000000000E+00 0. -1.
         25    2    1    2    0    0 -0.70912713964E+02  0.19587237003E+02 -0.17816878866E+03  0.22974248531E+03  0.12500087779E+03 0.  0.
          2    1    1    2  501    0  0.47610964537E+02  0.24221954556E+02 -0.39229564285E+03  0.39591587291E+03  0.00000000000E+00 0. -1.
          1    1    1    2  502    0  0.23301749428E+02 -0.43809191559E+02  0.44820068880E+03  0.45093910258E+03  0.00000000000E+00 0. -1.
         22    1    3    3    0    0 -0.93452199829E+02  0.50328373792E+02 -0.14115723532E+03  0.17661150570E+03  0.00000000000E+00 0. -1.
         22    1    3    3    0    0  0.22539485865E+02 -0.30741136789E+02 -0.37011553343E+02  0.53130979616E+02  0.00000000000E+00 0. -1.
</event>
<event>
 7    1  0.5127424E-006  0.1491190E+03  0.7818608E-02  0.1244116E+00
          2   -1    0    0  502    0  0.00000000000E+00  0.00000000000E+00  0.24383035529E+03  0.24383035529E+03  0.00000000000E+00 0. -1.
          1   -1    0    0  501    0 -0.00000000000E+00 -0.00000000000E+00 -0.38382213509E+03  0.38382213509E+03  0.00000000000E+00 0. -1.
         25    2    1    2    0    0 -0.11329476189E+03  0.43067702520E+02 -0.65183129822E+02  0.18591659008E+03  0.12500243190E+03 0.  0.
          2    1    1    2  501    0  0.22610086358E+02  0.92865836832E+02 -0.20930625940E+03  0.23009647951E+03  0.00000000000E+00 0. -1.
          1    1    1    2  502    0  0.90684675530E+02 -0.13593353935E+03  0.13449760942E+03  0.21163942080E+03  0.00000000000E+00 0. -1.
         22    1    3    3    0    0 -0.40496072955E+02  0.51132588140E+02  0.24897477434E+02  0.69816601731E+02  0.00000000000E+00 0.  1.
         22    1    3    3    0    0 -0.72798688933E+02 -0.80648856199E+01 -0.90080607256E+02  0.11609998835E+03  0.00000000000E+00 0.  1.
</event>
<event>
 7    1  0.5127424E-006  0.6829063E+02  0.7818608E-02  0.1418812E+00
          2   -1    0    0  502    0  0.00000000000E+00  0.00000000000E+00  0.70120191431E+03  0.70120191431E+03  0.00000000000E+00 0. -1.
          1   -1    0    0  501    0 -0.00000000000E+00 -0.00000000000E+00 -0.33156463829E+03  0.33156463829E+03  0.00000000000E+00 0. -1.
         25    2    1    2    0    0  0.21666621881E+02 -0.89400874320E+02 -0.19984523766E+03  0.25303116554E+03  0.12499877152E+03 0.  0.
          2    1    1    2  501    0 -0.38219883923E+02  0.23251724133E+02 -0.98551461836E+02  0.10823027687E+03  0.00000000000E+00 0. -1.
          1    1    1    2  502    0  0.16553262043E+02  0.66149150188E+02  0.66803397552E+03  0.67150511018E+03  0.00000000000E+00 0. -1.
         22    1    3    3    0    0 -0.14388951546E+02 -0.15824701536E+02 -0.16089185877E+03  0.16230728057E+03  0.00000000000E+00 0. -1.
         22    1    3    3    0    0  0.36055573427E+02 -0.73576172785E+02 -0.38953378890E+02  0.90723884969E+02  0.00000000000E+00 0. -1.
</event>
<event>
 7    1  0.5127424E-006  0.1489743E+03  0.7818608E-02  0.1259253E+00
          2   -1    0    0  502    0  0.00000000000E+00  0.00000000000E+00  0.18325878040E+03  0.18325878040E+03  0.00000000000E+00 0. -1.
          1   -1    0    0  501    0 -0.00000000000E+00 -0.00000000000E+00 -0.79887005116E+03  0.79887005116E+03  0.00000000000E+00 0. -1.
         25    2    1    2    0    0 -0.68324452038E+02 -0.78658911163E+02 -0.20633811519E+03  0.26279156447E+03  0.12501413331E+03 0.  0.
          2    1    1    2  501    0  0.62898768592E+02  0.16076010999E+03 -0.53885982080E+03  0.56583564268E+03  0.00000000000E+00 0. -1.
          1    1    1    2  502    0  0.54256834463E+01 -0.82101198823E+02  0.12958666524E+03  0.15350162441E+03  0.00000000000E+00 0. -1.
         22    1    3    3    0    0 -0.59212548992E+02 -0.33650430331E+02 -0.20589608192E+03  0.21686787214E+03  0.00000000000E+00 0. -1.
         22    1    3    3    0    0 -0.91119030464E+01 -0.45008480832E+02 -0.44203327572E+00  0.45923692331E+02  0.00000000000E+00 0. -1.
</event>
<event>
 7    1  0.5127424E-006  0.3966729E+03  0.7818608E-02  0.1073529E+00
          2   -1    0    0  502    0  0.00000000000E+00  0.00000000000E+00  0.28714923231E+04  0.28714923231E+04  0.00000000000E+00 0. -1.
          1   -1    0    0  501    0 -0.00000000000E+00 -0.00000000000E+00 -0.45886743113E+03  0.45886743113E+03  0.00000000000E+00 0. -1.
         25    2    1    2    0    0  0.21140398948E+03 -0.56387595858E+03  0.95525205406E+03  0.11361246185E+04  0.12499967409E+03 0.  0.
          2    1    1    2  501    0 -0.16397221600E+03  0.20907506252E+03 -0.30001644822E+03  0.40076069991E+03  0.00000000000E+00 0. -1.
          1    1    1    2  502    0 -0.47431773480E+02  0.35480089605E+03  0.17573892862E+04  0.17934744359E+04  0.00000000000E+00 0. -1.
         22    1    3    3    0    0  0.75955588156E+01 -0.16536059370E+03  0.21963931147E+03  0.27503317183E+03  0.00000000000E+00 0. -1.
         22    1    3    3    0    0  0.20380843066E+03 -0.39851536487E+03  0.73561274258E+03  0.86109144665E+03  0.00000000000E+00 0. -1.
</event>
<event>
 7    1  0.5127424E-006  0.1144744E+03  0.7818608E-02  0.1319598E+00
          2   -1    0    0  502    0  0.00000000000E+00  0.00000000000E+00  0.62332342877E+03  0.62332342877E+03  0.00000000000E+00 0. -1.
          1   -1    0    0  501    0 -0.00000000000E+00 -0.00000000000E+00 -0.14882352468E+04  0.14882352468E+04  0.00000000000E+00 0. -1.
         25    2    1    2    0    0  0.16789271579E+02  0.14566800683E+03  0.79557031943E+02  0.20846506464E+03  0.12500925562E+03 0.  0.
          2    1    1    2  501    0 -0.56184769010E+02 -0.99357766047E+02 -0.14195530643E+04  0.14241346834E+04  0.00000000000E+00 0. -1.
          1    1    1    2  502    0  0.39395497431E+02 -0.46310240779E+02  0.47508421432E+03  0.47895892759E+03  0.00000000000E+00 0. -1.
         22    1    3    3    0    0  0.16074414496E+02 -0.20656744950E+02  0.77249972913E+01  0.27290355375E+02  0.00000000000E+00 0. -1.
         22    1    3    3    0    0  0.71485708233E+00  0.16632475178E+03  0.71832034651E+02  0.18117470926E+03  0.00000000000E+00 0. -1.
</event>
<event>
 7    1  0.5127424E-006  0.6780853E+02  0.7818608E-02  0.1368389E+00
          2   -1    0    0  502    0  0.00000000000E+00  0.00000000000E+00  0.67856172247E+02  0.67856172247E+02  0.00000000000E+00 0. -1.
          1   -1    0    0  501    0 -0.00000000000E+00 -0.00000000000E+00 -0.31708102623E+03  0.31708102623E+03  0.00000000000E+00 0. -1.
         25    2    1    2    0    0 -0.15450755623E+02 -0.12457916251E+02 -0.14922284716E+03  0.19566190035E+03  0.12498878192E+03 0.  0.
          2    1    1    2  501    0 -0.67660455331E+02  0.44787175524E+01 -0.77144579108E+02  0.10270969873E+03  0.00000000000E+00 0. -1.
          1    1    1    2  502    0  0.83111210954E+02  0.79791986988E+01 -0.22857427712E+02  0.86565599401E+02  0.00000000000E+00 0. -1.
         22    1    3    3    0    0 -0.38845502686E+01  0.21385509730E+02  0.15759407778E+02  0.26847508091E+02  0.00000000000E+00 0. -1.
         22    1    3    3    0    0 -0.11566205355E+02 -0.33843425981E+02 -0.16498225494E+03  0.16881439226E+03  0.00000000000E+00 0. -1.
</event>
<event>
 7    1  0.5127424E-006  0.1154341E+03  0.7818608E-02  0.1320031E+00
          2   -1    0    0  502    0  0.00000000000E+00  0.00000000000E+00  0.60622486866E+03  0.60622486866E+03  0.00000000000E+00 0. -1.
          1   -1    0    0  501    0 -0.00000000000E+00 -0.00000000000E+00 -0.33309496694E+03  0.33309496694E+03  0.00000000000E+00 0. -1.
         25    2    1    2    0    0  0.71311249608E+02  0.47107322795E+02  0.10385648001E+03  0.18362194950E+03  0.12500583072E+03 0.  0.
          2    1    1    2  501    0 -0.11839193490E+03 -0.98132485554E+01 -0.27909395051E+03  0.30332554015E+03  0.00000000000E+00 0. -1.
          1    1    1    2  502    0  0.47080685290E+02 -0.37294074239E+02  0.44836737222E+03  0.45237234595E+03  0.00000000000E+00 0. -1.
         22    1    3    3    0    0  0.49849976944E+02 -0.34281245631E+02  0.17383326838E+02  0.62947629465E+02  0.00000000000E+00 0. -1.
         22    1    3    3    0    0  0.21461272664E+02  0.81388568426E+02  0.86473153177E+02  0.12067432003E+03  0.00000000000E+00 0. -1.
</event>
<event>
 7    1  0.5127424E-006  0.6844047E+02  0.7818608E-02  0.1386577E+00
          2   -1    0    0  502    0  0.00000000000E+00  0.00000000000E+00  0.18997030252E+04  0.18997030252E+04  0.00000000000E+00 0. -1.
          1   -1    0    0  501    0 -0.00000000000E+00 -0.00000000000E+00 -0.18528365567E+03  0.18528365567E+03  0.00000000000E+00 0. -1.
         25    2    1    2    0    0 -0.68478446032E+02  0.96998527759E+02  0.87122981881E+03  0.88812523402E+03  0.12500808840E+03 0.  0.
          2    1    1    2  501    0  0.40752646820E+02 -0.40652420935E+02 -0.17115477312E+03  0.18057506448E+03  0.00000000000E+00 0. -1.
          1    1    1    2  502    0  0.27725799212E+02 -0.56346106825E+02  0.10143443239E+04  0.10162863824E+04  0.00000000000E+00 0. -1.
         22    1    3    3    0    0 -0.64381590537E+02  0.92528548337E+01  0.18107184336E+03  0.19239962833E+03  0.00000000000E+00 0.  1.
         22    1    3    3    0    0 -0.40968554948E+01  0.87745672926E+02  0.69015797544E+03  0.69572560569E+03  0.00000000000E+00 0.  1.
</event>
<event>
 7    1  0.5127424E-006  0.6633872E+02  0.7818608E-02  0.1453920E+00
          2   -1    0    0  502    0  0.00000000000E+00  0.00000000000E+00  0.30024638762E+03  0.30024638762E+03  0.00000000000E+00 0. -1.
          1   -1    0    0  501    0 -0.00000000000E+00 -0.00000000000E+00 -0.72816874982E+03  0.72816874982E+03  0.00000000000E+00 0. -1.
         25    2    1    2    0    0  0.56632837408E+02  0.33792844643E+01 -0.35558674787E+03  0.38116380285E+03  0.12500084604E+03 0.  0.
          2    1    1    2  501    0 -0.63294282490E+02  0.31364187316E+02 -0.35521390680E+03  0.36216957082E+03  0.00000000000E+00 0. -1.
          1    1    1    2  502    0  0.66614450822E+01 -0.34743471780E+02  0.28287829247E+03  0.28508176376E+03  0.00000000000E+00 0. -1.
         22    1    3    3    0    0  0.26657746335E+02 -0.45326307675E+02 -0.58656983390E+02  0.78776591114E+02  0.00000000000E+00 0. -1.
         22    1    3    3    0    0  0.29975091073E+02  0.48705592140E+02 -0.29692976448E+03  0.30238721174E+03  0.00000000000E+00 0. -1.
</event>
<event>
 7    1  0.5127424E-006  0.9332805E+02  0.7818608E-02  0.1405923E+00
          2   -1    0    0  502    0  0.00000000000E+00  0.00000000000E+00  0.79684995111E+03  0.79684995111E+03  0.00000000000E+00 0. -1.
          1   -1    0    0  501    0 -0.00000000000E+00 -0.00000000000E+00 -0.69619127346E+03  0.69619127346E+03  0.00000000000E+00 0. -1.
         25    2    1    2    0    0 -0.73106681607E+02  0.64672163521E+02 -0.13552186996E+03  0.20861053309E+03  0.12500040660E+03 0.  0.
          2    1    1    2  501    0  0.31001062651E+02  0.18665071842E+02 -0.52062807235E+03  0.52188412556E+03  0.00000000000E+00 0. -1.
          1    1    1    2  502    0  0.42105618956E+02 -0.83337235364E+02  0.75680861996E+03  0.76254656591E+03  0.00000000000E+00 0. -1.
         22    1    3    3    0    0 -0.25055638352E+01  0.77470009257E+02 -0.34847864061E+02  0.84983844429E+02  0.00000000000E+00 0. -1.
         22    1    3    3    0    0 -0.70601117772E+02 -0.12797845735E+02 -0.10067400590E+03  0.12362668866E+03  0.00000000000E+00 0. -1.
</event>
<event>
 7    1  0.5127424E-006  0.7109187E+02  0.7818608E-02  0.1406177E+00
          2   -1    0    0  502    0  0.00000000000E+00  0.00000000000E+00  0.33596271276E+03  0.33596271276E+03  0.00000000000E+00 0. -1.
          1   -1    0    0  501    0 -0.00000000000E+00 -0.00000000000E+00 -0.95684637164E+03  0.95684637164E+03  0.00000000000E+00 0. -1.
         25    2    1    2    0    0  0.10047038514E+03 -0.29899798355E+02  0.47974088611E+02  0.17003949045E+03  0.12499447550E+03 0.  0.
          2    1    1    2  501    0 -0.45897554189E+02 -0.11880009930E+02 -0.88996483077E+03  0.89122675011E+03  0.00000000000E+00 0. -1.
          1    1    1    2  502    0 -0.54572830949E+02  0.41779808284E+02  0.22110708327E+03  0.23154284384E+03  0.00000000000E+00 0. -1.
         22    1    3    3    0    0  0.12431081449E+03 -0.37602354376E+01  0.51241726685E+02  0.13451034355E+03  0.00000000000E+00 0. -1.
         22    1    3    3    0    0 -0.23840429348E+02 -0.26139562917E+02 -0.32676380743E+01  0.35529146902E+02  0.00000000000E+00 0. -1.
</event>
<event>
 7    1  0.5127424E-006  0.7132966E+02  0.7818608E-02  0.1434080E+00
          2   -1    0    0  502    0  0.00000000000E+00  0.00000000000E+00  0.34394260875E+03  0.34394260875E+03  0.00000000000E+00 0. -1.
          1   -1    0    0  501    0 -0.00000000000E+00 -0.00000000000E+00 -0.98124914871E+03  0.98124914871E+03  0.00000000000E+00 0. -1.
         25    2    1    2    0    0 -0.35146847556E+02 -0.31610508728E+02  0.17975038786E+03  0.22398468270E+03  0.12499764395E+03 0.  0.
          2    1    1    2  501    0 -0.25994491500E+02 -0.27892096595E+02 -0.94590517890E+03  0.94667327527E+03  0.00000000000E+00 0. -1.
          1    1    1    2  502    0  0.61141339056E+02  0.59502605323E+02  0.12884825107E+03  0.15453379950E+03  0.00000000000E+00 0. -1.
         22    1    3    3    0    0  0.11729394036E+02 -0.70956469731E+02  0.10687125102E+03  0.12881717112E+03  0.00000000000E+00 0. -1.
         22    1    3    3    0    0 -0.46876241592E+02  0.39345961003E+02  0.72879136839E+02  0.95167511575E+02  0.00000000000E+00 0. -1.
</event>
<event>
 7    1  0.5127424E-006  0.4899115E+02  0.7818608E-02  0.1468937E+00
          2   -1    0    0  502    0  0.00000000000E+00  0.00000000000E+00  0.21306602769E+04  0.21306602769E+04  0.00000000000E+00 0. -1.
          1   -1    0    0  501    0 -0.00000000000E+00 -0.00000000000E+00 -0.51449263383E+03  0.51449263383E+03  0.00000000000E+00 0. -1.
         25    2    1    2    0    0  0.39178063440E+01  0.56586050135E+02  0.17409012159E+02  0.13836950787E+03  0.12500286687E+03 0.  0.
          2    1    1    2  501    0 -0.38300202914E+02 -0.30826635757E+02 -0.45245578541E+03  0.45511913250E+03  0.00000000000E+00 0. -1.
          1    1    1    2  502    0  0.34382396570E+02 -0.25759414378E+02  0.20512144163E+04  0.20516642704E+04  0.00000000000E+00 0. -1.
         22    1    3    3    0    0  0.55425390995E+02  0.59820744113E+02  0.26945261367E+02  0.85886800518E+02  0.00000000000E+00 0.  1.
         22    1    3    3    0    0 -0.51507584651E+02 -0.32346939773E+01 -0.95362492085E+01  0.52482707349E+02  0.00000000000E+00 0.  1.
</event>
<event>
 7    1  0.5127424E-006  0.5085910E+02  0.7818608E-02  0.1566980E+00
          2   -1    0    0  502    0  0.00000000000E+00  0.00000000000E+00  0.22149803546E+04  0.22149803546E+04  0.00000000000E+00 0. -1.
          1   -1    0    0  501    0 -0.00000000000E+00 -0.00000000000E+00 -0.46946316147E+02  0.46946316147E+02  0.00000000000E+00 0. -1.
         25    2    1    2    0    0 -0.64683263234E+02 -0.14139098389E+02  0.10295884304E+04  0.10392603201E+04  0.12500335322E+03 0.  0.
          2    1    1    2  501    0  0.50622711420E+02 -0.20334611753E+01 -0.26737615596E+02  0.57286071288E+02  0.00000000000E+00 0. -1.
          1    1    1    2  502    0  0.14060551814E+02  0.16172559564E+02  0.11651832237E+04  0.11653802794E+04  0.00000000000E+00 0. -1.
         22    1    3    3    0    0 -0.17176333666E+02 -0.36180167243E+02  0.93608975971E+02  0.10181685186E+03  0.00000000000E+00 0. -1.
         22    1    3    3    0    0 -0.47506929568E+02  0.22041068854E+02  0.93597945441E+03  0.93744346824E+03  0.00000000000E+00 0. -1.
</event>
<event>
 7    1  0.5127424E-006  0.7656092E+02  0.7818608E-02  0.1376840E+00
          2   -1    0    0  502    0  0.00000000000E+00  0.00000000000E+00  0.26924850942E+04  0.26924850942E+04  0.00000000000E+00 0. -1.
          1   -1    0    0  501    0 -0.00000000000E+00 -0.00000000000E+00 -0.37444213460E+02  0.37444213460E+02  0.00000000000E+00 0. -1.
         25    2    1    2    0    0  0.81838662063E+01 -0.94291646720E+02  0.33928731390E+03  0.37376308599E+03  0.12500029107E+03 0.  0.
          2    1    1    2  501    0  0.42038399176E+02  0.36538504299E+02  0.20064904593E+02  0.59202108898E+02  0.00000000000E+00 0. -1.
          1    1    1    2  502    0 -0.50222265382E+02  0.57753142421E+02  0.22956886622E+04  0.22969641127E+04  0.00000000000E+00 0. -1.
         22    1    3    3    0    0  0.61495038384E+02 -0.68379801765E+02  0.25196211010E+03  0.26822069637E+03  0.00000000000E+00 0.  1.
         22    1    3    3    0    0 -0.53311172178E+02 -0.25911844955E+02  0.87325203807E+02  0.10554238963E+03  0.00000000000E+00 0.  1.
</event>
<event>
 7    1  0.5127424E-006  0.9340415E+02  0.7818608E-02  0.1484800E+00
          2   -1    0    0  502    0  0.00000000000E+00  0.00000000000E+00  0.15966839341E+04  0.15966839341E+04  0.00000000000E+00 0. -1.
          1   -1    0    0  501    0 -0.00000000000E+00 -0.00000000000E+00 -0.43542961378E+02  0.43542961378E+02  0.00000000000E+00 0. -1.
         25    2    1    2    0    0 -0.44297671139E+02 -0.64146367927E+02  0.31498249142E+03  0.34772883124E+03  0.12499731993E+03 0.  0.
          2    1    1    2  501    0  0.12487506708E+00 -0.20134789908E+02 -0.21380839561E+02  0.29369468139E+02  0.00000000000E+00 0. -1.
          1    1    1    2  502    0  0.44172796072E+02  0.84281157835E+02  0.12595393208E+04  0.12631285960E+04  0.00000000000E+00 0. -1.
         22    1    3    3    0    0 -0.42539753683E+01 -0.78859652104E+02  0.28460070550E+03  0.29535487571E+03  0.00000000000E+00 0. -1.
         22    1    3    3    0    0 -0.40043695771E+02  0.14713284177E+02  0.30381785925E+02  0.52373955533E+02  0.00000000000E+00 0. -1.
</event>
<event>
 7    1  0.5127424E-006  0.9364120E+02  0.7818608E-02  0.1340325E+00
          2   -1    0    0  502    0  0.00000000000E+00  0.00000000000E+00  0.69766692609E+02  0.69766692609E+02  0.00000000000E+00 0. -1.
          1   -1    0    0  501    0 -0.00000000000E+00 -0.00000000000E+00 -0.13276973154E+04  0.13276973154E+04  0.00000000000E+00 0. -1.
         25    2    1    2    0    0  0.10775499660E+03 -0.94146740363E+02 -0.27980670035E+03  0.33821797194E+03  0.12499943588E+03 0.  0.
          2    1    1    2  501    0 -0.82316025837E+02  0.37674290607E+02 -0.99171203324E+03  0.99583534641E+03  0.00000000000E+00 0. -1.
          1    1    1    2  502    0 -0.25438970766E+02  0.56472449755E+02  0.13588110752E+02  0.63410689705E+02  0.00000000000E+00 0. -1.
         22    1    3    3    0    0  0.78025799997E+02  0.19840236442E+01 -0.67168959730E+02  0.10297393343E+03  0.00000000000E+00 0.  1.
         22    1    3    3    0    0  0.29729196606E+02 -0.96130764007E+02 -0.21263774062E+03  0.23524403851E+03  0.00000000000E+00 0.  1.
</event>
<event>
 7    1  0.5127424E-006  0.8513164E+02  0.7818608E-02  0.1317134E+00
          2   -1    0    0  502    0  0.00000000000E+00  0.00000000000E+00  0.11003165123E+03  0.11003165123E+03  0.00000000000E+00 0. -1.
          1   -1    0    0  501    0 -0.00000000000E+00 -0.00000000000E+00 -0.21071428338E+04  0.21071428338E+04  0.00000000000E+00 0. -1.
         25    2    1    2    0    0 -0.81576845498E+02 -0.39143390992E+02 -0.91436450430E+03  0.92729496237E+03  0.12500605478E+03 0.  0.
          2    1    1    2  501    0  0.15953117188E+02  0.90904747482E+02 -0.11673268929E+04  0.11709697903E+04  0.00000000000E+00 0. -1.
          1    1    1    2  502    0  0.65623728310E+02 -0.51761356490E+02  0.84580214597E+02  0.11890973234E+03  0.00000000000E+00 0. -1.
         22    1    3    3    0    0 -0.22000858651E+01 -0.10654423263E+02 -0.20251781263E+01  0.11066095035E+02  0.00000000000E+00 0.  1.
         22    1    3    3    0    0 -0.79376759633E+02 -0.28488967729E+02 -0.91233932617E+03  0.91622886733E+03  0.00000000000E+00 0.  1.
</event>
<event>
 7    1  0.5127424E-006  0.1012071E+03  0.7818608E-02  0.1344252E+00
          2   -1    0    0  502    0  0.00000000000E+00  0.00000000000E+00  0.11751055125E+04  0.11751055125E+04  0.00000000000E+00 0. -1.
          1   -1    0    0  501    0 -0.00000000000E+00 -0.00000000000E+00 -0.30200614040E+03  0.30200614040E+03  0.00000000000E+00 0. -1.
         25    2    1    2    0    0 -0.42591232918E+02 -0.30309180431E+02  0.13623312770E+03  0.19213765512E+03  0.12499901557E+03 0.  0.
          2    1    1    2  501    0  0.66603868410E+02  0.80231389340E+02 -0.26334078815E+03  0.28323404072E+03  0.00000000000E+00 0. -1.
          1    1    1    2  502    0 -0.24012635492E+02 -0.49922208909E+02  0.10002070326E+04  0.10017399571E+04  0.00000000000E+00 0. -1.
         22    1    3    3    0    0 -0.33145576984E+02  0.42549937285E+02  0.26535915264E+02  0.60110575072E+02  0.00000000000E+00 0. -1.
         22    1    3    3    0    0 -0.94456559342E+01 -0.72859117716E+02  0.10969721243E+03  0.13202708005E+03  0.00000000000E+00 0. -1.
</event>
<event>
 7    1  0.5127424E-006  0.5293275E+02  0.7818608E-02  0.1430458E+00
          2   -1    0    0  502    0  0.00000000000E+00  0.00000000000E+00  0.23348506645E+04  0.23348506645E+04  0.00000000000E+00 0. -1.
          1   -1    0    0  501    0 -0.00000000000E+00 -0.00000000000E+00 -0.29297366228E+02  0.29297366228E+02  0.00000000000E+00 0. -1.
         25    2    1    2    0    0  0.31692904397E+02  0.41352033124E+02  0.10584076175E+04  0.10670380604E+04  0.12501642627E+03 0.  0.
          2    1    1    2  501    0  0.24377491976E+02 -0.46839597181E+02  0.42893909654E+01  0.52977437216E+02  0.00000000000E+00 0. -1.
          1    1    1    2  502    0 -0.56070396373E+02  0.54875640574E+01  0.12428562898E+04  0.12441325331E+04  0.00000000000E+00 0. -1.
         22    1    3    3    0    0 -0.38534501381E+02  0.34373420182E+02  0.69014730860E+03  0.69207640285E+03  0.00000000000E+00 0.  1.
         22    1    3    3    0    0  0.70227405778E+02  0.69786129417E+01  0.36826030888E+03  0.37496165759E+03  0.00000000000E+00 0.  1.
</event>
<event>
 7    1  0.5127424E-006  0.4382284E+02  0.7818608E-02  0.1548534E+00
          2   -1    0    0  502    0  0.00000000000E+00  0.00000000000E+00  0.13777696715E+04  0.13777696715E+04  0.00000000000E+00 0. -1.
          1   -1    0    0  501    0 -0.00000000000E+00 -0.00000000000E+00 -0.43069846339E+03  0.43069846339E+03  0.00000000000E+00 0. -1.
         25    2    1    2    0    0  0.50287977308E+02 -0.42961198826E+02  0.19537784032E+03  0.24118700132E+03  0.12499649537E+03 0.  0.
          2    1    1    2  501    0 -0.40355407326E+02  0.16819052868E+02 -0.40645278624E+03  0.40879739099E+03  0.00000000000E+00 0. -1.
          1    1    1    2  502    0 -0.99325699823E+01  0.26142145958E+02  0.11581461541E+04  0.11584837426E+04  0.00000000000E+00 0. -1.
         22    1    3    3    0    0  0.13076274770E+02 -0.81296095259E+02  0.83831091370E+02  0.11750615280E+03  0.00000000000E+00 0.  1.
         22    1    3    3    0    0  0.37211702539E+02  0.38334896433E+02  0.11154674895E+03  0.12368084852E+03  0.00000000000E+00 0.  1.
</event>
<event>
 7    1  0.5127424E-006  0.1267026E+03  0.7818608E-02  0.1388462E+00
          2   -1    0    0  502    0  0.00000000000E+00  0.00000000000E+00  0.12092924445E+03  0.12092924445E+03  0.00000000000E+00 0. -1.
          1   -1    0    0  501    0 -0.00000000000E+00 -0.00000000000E+00 -0.65628101390E+03  0.65628101390E+03  0.00000000000E+00 0. -1.
         25    2    1    2    0    0  0.14224394447E+03 -0.26694620439E+02 -0.24508024649E+03  0.31086634703E+03  0.12501046354E+03 0.  0.
          2    1    1    2  501    0 -0.11480355645E+03  0.40290980807E+02 -0.36544788174E+03  0.38516927964E+03  0.00000000000E+00 0. -1.
          1    1    1    2  502    0 -0.27440388021E+02 -0.13596360368E+02  0.75176358778E+02  0.81174631684E+02  0.00000000000E+00 0. -1.
         22    1    3    3    0    0  0.34497589317E+02  0.85763114940E+01 -0.17278722208E+03  0.17640595484E+03  0.00000000000E+00 0. -1.
         22    1    3    3    0    0  0.10774635516E+03 -0.35270931933E+02 -0.72293024407E+02  0.13446039219E+03  0.00000000000E+00 0. -1.
</event>
<event>
 7    1  0.5127424E-006  0.2719006E+03  0.7818608E-02  0.1101573E+00
          2   -1    0    0  502    0  0.00000000000E+00  0.00000000000E+00  0.45089242243E+03  0.45089242243E+03  0.00000000000E+00 0. -1.
          1   -1    0    0  501    0 -0.00000000000E+00 -0.00000000000E+00 -0.10749253788E+04  0.10749253788E+04  0.00000000000E+00 0. -1.
         25    2    1    2    0    0  0.14111396345E+02  0.27798869912E+02 -0.65325892358E+03  0.66584072970E+03  0.12499898970E+03 0.  0.
          2    1    1    2  501    0  0.24344831180E+03  0.10987598371E+03 -0.31208289494E+03  0.41077432445E+03  0.00000000000E+00 0. -1.
          1    1    1    2  502    0 -0.25755970815E+03 -0.13767485362E+03  0.34130886216E+03  0.44920274706E+03  0.00000000000E+00 0. -1.
         22    1    3    3    0    0  0.27310402621E+02  0.24067192707E+02 -0.47103118993E+02  0.59529754535E+02  0.00000000000E+00 0. -1.
         22    1    3    3    0    0 -0.13199006277E+02  0.37316772047E+01 -0.60615580458E+03  0.60631097517E+03  0.00000000000E+00 0. -1.
</event>
<event>
 7    1  0.5127424E-006  0.6023508E+02  0.7818608E-02  0.1517618E+00
          2   -1    0    0  502    0  0.00000000000E+00  0.00000000000E+00  0.88988794977E+01  0.88988794977E+01  0.00000000000E+00 0. -1.
          1   -1    0    0  501    0 -0.00000000000E+00 -0.00000000000E+00 -0.15514925523E+04  0.15514925523E+04  0.00000000000E+00 0. -1.
         25    2    1    2    0    0 -0.50937310337E+02 -0.21113742436E+02 -0.84958741776E+03  0.86050168247E+03  0.12499586158E+03 0.  0.
          2    1    1    2  501    0  0.43803242938E+02  0.44999209353E+02 -0.60992293921E+03  0.61314732708E+03  0.00000000000E+00 0. -1.
          1    1    1    2  502    0  0.71340673995E+01 -0.23885466917E+02 -0.83083315842E+02  0.86742422256E+02  0.00000000000E+00 0. -1.
         22    1    3    3    0    0  0.87889178560E+01  0.18456971970E+01 -0.66639946022E+03  0.66645997049E+03  0.00000000000E+00 0. -1.
         22    1    3    3    0    0 -0.59726228193E+02 -0.22959439633E+02 -0.18318795754E+03  0.19404171198E+03  0.00000000000E+00 0. -1.
</event>
<event>
 7    1  0.5127424E-006  0.8936066E+02  0.7818608E-02  0.1329696E+00
          2   -1    0    0  502    0  0.00000000000E+00  0.00000000000E+00  0.47822321120E+03  0.47822321120E+03  0.00000000000E+00 0. -1.
          1   -1    0    0  501    0 -0.00000000000E+00 -0.00000000000E+00 -0.19213127267E+03  0.19213127267E+03  0.00000000000E+00 0. -1.
         25    2    1    2    0    0 -0.13142588289E+02  0.14243845739E+03  0.22433253331E+03  0.29395809495E+03  0.12499933725E+03 0.  0.
          2    1    1    2  501    0  0.28835976119E+02 -0.65114966294E+02 -0.14147296673E+03  0.15838583481E+03  0.00000000000E+00 0. -1.
          1    1    1    2  502    0 -0.15693387830E+02 -0.77323491098E+02  0.20323237195E+03  0.21801055411E+03  0.00000000000E+00 0. -1.
         22    1    3    3    0    0  0.46171456426E+02  0.85899920700E+02  0.72834896496E+02  0.12171902856E+03  0.00000000000E+00 0. -1.
         22    1    3    3    0    0 -0.59314044715E+02  0.56538536692E+02  0.15149763681E+03  0.17223906639E+03  0.00000000000E+00 0. -1.
</event>
<event>
 7    1  0.5127424E-006  0.1096461E+03  0.7818608E-02  0.1283113E+00
          2   -1    0    0  502    0  0.00000000000E+00  0.00000000000E+00  0.20409678163E+04  0.20409678163E+04  0.00000000000E+00 0. -1.
          1   -1    0    0  501    0 -0.00000000000E+00 -0.00000000000E+00 -0.34707333980E+02  0.34707333980E+02  0.00000000000E+00 0. -1.
         25    2    1    2    0    0  0.84228990626E+02 -0.92190009786E+02  0.30210248987E+03  0.34997803032E+03  0.12500074620E+03 0.  0.
          2    1    1    2  501    0 -0.11096352485E+03  0.75135785064E+01  0.32155211216E+03  0.34024273474E+03  0.00000000000E+00 0. -1.
          1    1    1    2  502    0  0.26734534221E+02  0.84676431279E+02  0.13826058803E+04  0.13854543852E+04  0.00000000000E+00 0. -1.
         22    1    3    3    0    0 -0.22149577400E+01 -0.86331191586E+02  0.18637282843E+03  0.20540888943E+03  0.00000000000E+00 0. -1.
         22    1    3    3    0    0  0.86443948366E+02 -0.58588181995E+01  0.11572966144E+03  0.14456914089E+03  0.00000000000E+00 0. -1.
</event>
<event>
 7    1  0.5127424E-006  0.6193300E+02  0.7818608E-02  0.1394981E+00
          2   -1    0    0  502    0  0.00000000000E+00  0.00000000000E+00  0.24857296129E+04  0.24857296129E+04  0.00000000000E+00 0. -1.
          1   -1    0    0  501    0 -0.00000000000E+00 -0.00000000000E+00 -0.88974646908E+02  0.88974646908E+02  0.00000000000E+00 0. -1.
         25    2    1    2    0    0 -0.39419839966E+01  0.19955048297E+02  0.71353264722E+03  0.72468391089E+03  0.12499675539E+03 0.  0.
          2    1    1    2  501    0 -0.59261694010E+02  0.48714608213E+01 -0.72059743088E+02  0.93425296796E+02  0.00000000000E+00 0. -1.
          1    1    1    2  502    0  0.63203678007E+02 -0.24826509118E+02  0.17552820618E+04  0.17565950521E+04  0.00000000000E+00 0. -1.
         22    1    3    3    0    0  0.30213034034E+02  0.26180938218E+02  0.73157894093E+02  0.83368737664E+02  0.00000000000E+00 0.  1.
         22    1    3    3    0    0 -0.34155018030E+02 -0.62258899214E+01  0.64037475313E+03  0.64131517322E+03  0.00000000000E+00 0.  1.
</event>
<event>
 7    1  0.5127424E-006  0.6790351E+02  0.7818608E-02  0.1390955E+00
          2   -1    0    0  502    0  0.00000000000E+00  0.00000000000E+00  0.84162461577E+02  0.84162461577E+02  0.00000000000E+00 0. -1.
          1   -1    0    0  501    0 -0.00000000000E+00 -0.00000000000E+00 -0.85534055095E+03  0.85534055095E+03  0.00000000000E+00 0. -1.
         25    2    1    2    0    0  0.11394563741E+03 -0.12562949155E+02 -0.92406310692E+02  0.19314612947E+03  0.12500026038E+03 0.  0.
          2    1    1    2  501    0 -0.56006496955E+02  0.43490729305E+00 -0.68458953300E+03  0.68687680521E+03  0.00000000000E+00 0. -1.
          1    1    1    2  502    0 -0.57939140453E+02  0.12128041862E+02  0.58177543179E+01  0.59480077851E+02  0.00000000000E+00 0. -1.
         22    1    3    3    0    0  0.11579182534E+03 -0.36014635384E+02 -0.27826360826E+02  0.12441505992E+03  0.00000000000E+00 0. -1.
         22    1    3    3    0    0 -0.18461879302E+01  0.23451686230E+02 -0.64579949865E+02  0.68731069550E+02  0.00000000000E+00 0. -1.
</event>
<event>
 7    1  0.5127424E-006  0.6290002E+02  0.7818608E-02  0.1409711E+00
          2   -1    0    0  502    0  0.00000000000E+00  0.00000000000E+00  0.92127614651E+03  0.92127614651E+03  0.00000000000E+00 0. -1.
          1   -1    0    0  501    0 -0.00000000000E+00 -0.00000000000E+00 -0.12475952520E+03  0.12475952520E+03  0.00000000000E+00 0. -1.
         25    2    1    2    0    0 -0.17457518827E+02  0.42678126022E+02  0.27315775497E+02  0.13600821046E+03  0.12500357721E+03 0.  0.
          2    1    1    2  501    0 -0.30879710724E+02 -0.62178922658E+02 -0.52271780147E+02  0.86902899590E+02  0.00000000000E+00 0. -1.
          1    1    1    2  502    0  0.48337229551E+02  0.19500796637E+02  0.82147262595E+03  0.82312456167E+03  0.00000000000E+00 0. -1.
         22    1    3    3    0    0 -0.63325350750E+02  0.42707090077E+02  0.42852511728E+02  0.87580439322E+02  0.00000000000E+00 0. -1.
         22    1    3    3    0    0  0.45867831923E+02 -0.28964055656E-01 -0.15536736231E+02  0.48427771133E+02  0.00000000000E+00 0. -1.
</event>
<event>
 7    1  0.5127424E-006  0.5533407E+02  0.7818608E-02  0.1438702E+00
          2   -1    0    0  502    0  0.00000000000E+00  0.00000000000E+00  0.32383251030E+03  0.32383251030E+03  0.00000000000E+00 0. -1.
          1   -1    0    0  501    0 -0.00000000000E+00 -0.00000000000E+00 -0.68627127918E+03  0.68627127918E+03  0.00000000000E+00 0. -1.
         25    2    1    2    0    0  0.89672564987E+02 -0.85234909972E+01 -0.72415597525E+02  0.17024590722E+03  0.12500332536E+03 0.  0.
          2    1    1    2  501    0 -0.38445474563E+02  0.27847613253E+02 -0.56120250943E+03  0.56320671220E+03  0.00000000000E+00 0. -1.
          1    1    1    2  502    0 -0.51227090424E+02 -0.19324122256E+02  0.27117933808E+03  0.27665117006E+03  0.00000000000E+00 0. -1.
         22    1    3    3    0    0  0.10463035944E+03 -0.14944646735E+02 -0.95198854192E+02  0.14224512794E+03  0.00000000000E+00 0. -1.
         22    1    3    3    0    0 -0.14957794455E+02  0.64211557382E+01  0.22783256667E+02  0.28000779281E+02  0.00000000000E+00 0. -1.
</event>
<event>
 7    1  0.5127424E-006  0.6891278E+02  0.7818608E-02  0.1425650E+00
          2   -1    0    0  502    0  0.00000000000E+00  0.00000000000E+00  0.52239123224E+03  0.52239123224E+03  0.00000000000E+00 0. -1.
          1   -1    0    0  501    0 -0.00000000000E+00 -0.00000000000E+00 -0.73816359348E+03  0.73816359348E+03  0.00000000000E+00 0. -1.
         25    2    1    2    0    0  0.82642413280E+02 -0.30645046636E+02  0.20277440734E+03  0.25399002287E+03  0.12499833635E+03 0.  0.
          2    1    1    2  501    0 -0.37441478722E+02 -0.19181570005E+02 -0.70807491967E+03  0.70932354312E+03  0.00000000000E+00 0. -1.
          1    1    1    2  502    0 -0.45200934559E+02  0.49826616641E+02  0.28952815109E+03  0.29724125973E+03  0.00000000000E+00 0. -1.
         22    1    3    3    0    0  0.65794967682E+02 -0.56214194728E+02  0.20576633961E+03  0.22322365461E+03  0.00000000000E+00 0.  1.
         22    1    3    3    0    0  0.16847445598E+02  0.25569148091E+02 -0.29919322678E+01  0.30766368261E+02  0.00000000000E+00 0.  1.
</event>
<event>
 7    1  0.5127424E-006  0.6013745E+02  0.7818608E-02  0.1493545E+00
          2   -1    0    0  502    0  0.00000000000E+00  0.00000000000E+00  0.11882589893E+04  0.11882589893E+04  0.00000000000E+00 0. -1.
          1   -1    0    0  501    0 -0.00000000000E+00 -0.00000000000E+00 -0.37832082392E+03  0.37832082392E+03  0.00000000000E+00 0. -1.
         25    2    1    2    0    0 -0.49902675620E+02 -0.25310788221E+02  0.58942358115E+03  0.60512403761E+03  0.12499611932E+03 0.  0.
          2    1    1    2  501    0  0.60140358237E+02 -0.22739685812E+01 -0.36765621056E+03  0.37254949038E+03  0.00000000000E+00 0. -1.
          1    1    1    2  502    0 -0.10237682616E+02  0.27584756802E+02  0.58817079474E+03  0.58890628519E+03  0.00000000000E+00 0. -1.
         22    1    3    3    0    0  0.41925224113E+02 -0.27869118574E+01  0.16114932089E+03  0.16653706770E+03  0.00000000000E+00 0. -1.
         22    1    3    3    0    0 -0.91827899733E+02 -0.22523876363E+02  0.42827426026E+03  0.43858696991E+03  0.00000000000E+00 0. -1.
</event>
<event>
 7    1  0.5127424E-006  0.6642373E+02  0.7818608E-02  0.1430766E+00
          2   -1    0    0  502    0  0.00000000000E+00  0.00000000000E+00  0.15676099114E+04  0.15676099114E+04  0.00000000000E+00 0. -1.
          1   -1    0    0  501    0 -0.00000000000E+00 -0.00000000000E+00 -0.29184916542E+03  0.29184916542E+03  0.00000000000E+00 0. -1.
         25    2    1    2    0    0  0.16065994065E+02 -0.35425555729E+02  0.41417970399E+02  0.13731180839E+03  0.12500399308E+03 0.  0.
          2    1    1    2  501    0 -0.58044595761E+02  0.35880750528E+02 -0.23882434075E+03  0.24838210300E+03  0.00000000000E+00 0. -1.
          1    1    1    2  502    0  0.41978601696E+02 -0.45519479826E+00  0.14731671163E+04  0.14737651654E+04  0.00000000000E+00 0. -1.
         22    1    3    3    0    0  0.38326802677E+02  0.89532826930E+01 -0.30588775919E+02  0.49847550458E+02  0.00000000000E+00 0.  1.
         22    1    3    3    0    0 -0.22260808612E+02 -0.44378838422E+02  0.72006746318E+02  0.87464257929E+02  0.00000000000E+00 0.  1.
</event>
<event>
 7    1  0.5127424E-006  0.7968654E+02  0.7818608E-02  0.1434419E+00
          2   -1    0    0  502    0  0.00000000000E+00  0.00000000000E+00  0.20815055003E+03  0.20815055003E+03  0.00000000000E+00 0. -1.
          1   -1    0    0  501    0 -0.00000000000E+00 -0.00000000000E+00 -0.87258999916E+03  0.87258999916E+03  0.00000000000E+00 0. -1.
         25    2    1    2    0    0  0.28391092131E+02 -0.69925437474E+02 -0.67398420795E+03  0.68961787344E+03  0.12498991112E+03 0.  0.
          2    1    1    2  501    0 -0.54330750697E-01  0.88789426591E+02 -0.17885007698E+03  0.19967702738E+03  0.00000000000E+00 0. -1.
          1    1    1    2  502    0 -0.28336761380E+02 -0.18863989117E+02  0.18839483579E+03  0.19144564838E+03  0.00000000000E+00 0. -1.
         22    1    3    3    0    0  0.45509533698E+02 -0.98993131487E+02 -0.56932073010E+03  0.57965235397E+03  0.00000000000E+00 0.  1.
         22    1    3    3    0    0 -0.17118441567E+02  0.29067694013E+02 -0.10466347784E+03  0.10996551947E+03  0.00000000000E+00 0.  1.
</event>
<event>
 7    1  0.5127424E-006  0.1933172E+03  0.7818608E-02  0.1207776E+00
          2   -1    0    0  502    0  0.00000000000E+00  0.00000000000E+00  0.39119325760E+03  0.39119325760E+03  0.00000000000E+00 0. -1.
          1   -1    0    0  501    0 -0.00000000000E+00 -0.00000000000E+00 -0.25884846370E+04  0.25884846370E+04  0.00000000000E+00 0. -1.
         25    2    1    2    0    0 -0.21738718148E+03  0.43938138647E+02 -0.25544547192E+03  0.36064403303E+03  0.12499593088E+03 0.  0.
          2    1    1    2  501    0  0.70469719569E+02  0.81279910620E+02 -0.22515369188E+04  0.22541053440E+04  0.00000000000E+00 0. -1.
          1    1    1    2  502    0  0.14691746191E+03 -0.12521804927E+03  0.30969101128E+03  0.36492851758E+03  0.00000000000E+00 0. -1.
         22    1    3    3    0    0 -0.12052409277E+03 -0.47790489209E+00 -0.21536196319E+03  0.24679355850E+03  0.00000000000E+00 0. -1.
         22    1    3    3    0    0 -0.96863088705E+02  0.44416043540E+02 -0.40083508732E+02  0.11385047452E+03  0.00000000000E+00 0. -1.
</event>
<event>
 7    1  0.5127424E-006  0.5129487E+02  0.7818608E-02  0.1547363E+00
          2   -1    0    0  502    0  0.00000000000E+00  0.00000000000E+00  0.62321057188E+03  0.62321057188E+03  0.00000000000E+00 0. -1.
          1   -1    0    0  501    0 -0.00000000000E+00 -0.00000000000E+00 -0.81651690704E+02  0.81651690704E+02  0.00000000000E+00 0. -1.
         25    2    1    2    0    0  0.28719034588E+02  0.12949849232E+02  0.28754111936E+03  0.31511418680E+03  0.12499829543E+03 0.  0.
          2    1    1    2  501    0  0.17117718420E+02  0.16925612668E+02 -0.63313052619E+02  0.67735037315E+02  0.00000000000E+00 0. -1.
          1    1    1    2  502    0 -0.45836753008E+02 -0.29875461900E+02  0.31733081443E+03  0.32201303846E+03  0.00000000000E+00 0. -1.
         22    1    3    3    0    0 -0.31332469460E+02 -0.37671081042E+02  0.13345522572E+03  0.14216585828E+03  0.00000000000E+00 0. -1.
         22    1    3    3    0    0  0.60051504048E+02  0.50620930274E+02  0.15408589364E+03  0.17294832852E+03  0.00000000000E+00 0. -1.
</event>
<event>
 7    1  0.5127424E-006  0.1019172E+03  0.7818608E-02  0.1287242E+00
          2   -1    0    0  502    0  0.00000000000E+00  0.00000000000E+00  0.34162817834E+04  0.34162817834E+04  0.00000000000E+00 0. -1.
          1   -1    0    0  501    0 -0.00000000000E+00 -0.00000000000E+00 -0.16520686283E+03  0.16520686283E+03  0.00000000000E+00 0. -1.
         25    2    1    2    0    0  0.47524582687E+02  0.39416489931E+02  0.19974768433E+03  0.24359496602E+03  0.12500849746E+03 0.  0.
          2    1    1    2  501    0  0.14446054109E+02 -0.10725164879E+03 -0.12208867701E+03  0.16314793809E+03  0.00000000000E+00 0. -1.
          1    1    1    2  502    0 -0.61970636797E+02  0.67835158859E+02  0.31734159133E+04  0.31747457422E+04  0.00000000000E+00 0. -1.
         22    1    3    3    0    0  0.33270837667E+02 -0.30909248115E+02  0.14884304776E+03  0.15561678291E+03  0.00000000000E+00 0.  1.
         22    1    3    3    0    0  0.14253745020E+02  0.70325738046E+02  0.50904636574E+02  0.87978183111E+02  0.00000000000E+00 0.  1.
</event>
<event>
 7    1  0.5127424E-006  0.8708549E+02  0.7818608E-02  0.1313838E+00
          2   -1    0    0  502    0  0.00000000000E+00  0.00000000000E+00  0.91788095176E+02  0.91788095176E+02  0.00000000000E+00 0. -1.
          1   -1    0    0  501    0 -0.00000000000E+00 -0.00000000000E+00 -0.19501004358E+04  0.19501004358E+04  0.00000000000E+00 0. -1.
         25    2    1    2    0    0  0.79749311016E+02 -0.19001541594E+02 -0.17655080802E+03  0.23133335706E+03  0.12499569226E+03 0.  0.
          2    1    1    2  501    0 -0.62385984938E+02 -0.63353006294E+02 -0.17170074692E+04  0.17193080771E+04  0.00000000000E+00 0. -1.
          1    1    1    2  502    0 -0.17363326078E+02  0.82354547889E+02  0.35245936555E+02  0.91247096908E+02  0.00000000000E+00 0. -1.
         22    1    3    3    0    0  0.97957916840E+01 -0.52848119463E+02 -0.21482785861E+02  0.57882565198E+02  0.00000000000E+00 0.  1.
         22    1    3    3    0    0  0.69953519332E+02  0.33846577869E+02 -0.15506802216E+03  0.17345079186E+03  0.00000000000E+00 0.  1.
</event>
<event>
 7    1  0.5127424E-006  0.5446810E+02  0.7818608E-02  0.1444177E+00
          2   -1    0    0  502    0  0.00000000000E+00  0.00000000000E+00  0.91322406700E+02  0.91322406700E+02  0.00000000000E+00 0. -1.
          1   -1    0    0  501    0 -0.00000000000E+00 -0.00000000000E+00 -0.46669407661E+03  0.46669407661E+03  0.00000000000E+00 0. -1.
         25    2    1    2    0    0  0.81355271490E+02 -0.20046510588E+02 -0.64278716585E+02  0.16364017411E+03  0.12500324153E+03 0.  0.
          2    1    1    2  501    0 -0.31725530024E+02  0.33717774546E+02 -0.33459792725E+03  0.33778568723E+03  0.00000000000E+00 0. -1.
          1    1    1    2  502    0 -0.49629741465E+02 -0.13671263958E+02  0.23504973921E+02  0.56590621972E+02  0.00000000000E+00 0. -1.
         22    1    3    3    0    0 -0.31436676634E+02  0.97585664336E+01 -0.21814186231E+02  0.39488643653E+02  0.00000000000E+00 0. -1.
         22    1    3    3    0    0  0.11279194812E+03 -0.29805077022E+02 -0.42464530354E+02  0.12415153046E+03  0.00000000000E+00 0. -1.
</event>
<event>
 7    1  0.5127424E-006  0.5490555E+02  0.7818608E-02  0.1553190E+00
          2   -1    0    0  502    0  0.00000000000E+00  0.00000000000E+00  0.33786125027E+03  0.33786125027E+03  0.00000000000E+00 0. -1.
          1   -1    0    0  501    0 -0.00000000000E+00 -0.00000000000E+00 -0.42885872871E+03  0.42885872871E+03  0.00000000000E+00 0. -1.
         25    2    1    2    0    0 -0.24063167816E+02  0.68087684032E+02 -0.99638366361E+02  0.17540687417E+03  0.12499919477E+03 0.  0.
          2    1    1    2  501    0  0.16540602384E+02 -0.13990153426E+02 -0.28844040537E+03  0.28925280184E+03  0.00000000000E+00 0. -1.
          1    1    1    2  502    0  0.75225654317E+01 -0.54097530606E+02  0.29708129329E+03  0.30206030297E+03  0.00000000000E+00 0. -1.
         22    1    3    3    0    0  0.46971163742E+02  0.49544660868E+02 -0.64868319519E+02  0.94174638417E+02  0.00000000000E+00 0.  1.
         22    1    3    3    0    0 -0.71034331558E+02  0.18543023165E+02 -0.34770046842E+02  0.81232235753E+02  0.00000000000E+00 0.  1.
</event>
<event>
 7    1  0.5127424E-006  0.3316285E+03  0.7818608E-02  0.1205811E+00
          2   -1    0    0  502    0  0.00000000000E+00  0.00000000000E+00  0.22247344492E+04  0.22247344492E+04  0.00000000000E+00 0. -1.
          1   -1    0    0  501    0 -0.00000000000E+00 -0.00000000000E+00 -0.44502417708E+03  0.44502417708E+03  0.00000000000E+00 0. -1.
         25    2    1    2    0    0  0.67122691796E+02 -0.29667885018E+03  0.13673842459E+04  0.14063741761E+04  0.12499940558E+03 0.  0.
          2    1    1    2  501    0 -0.13040134596E+03  0.30656295166E+03 -0.35879328005E+03  0.48961002049E+03  0.00000000000E+00 0. -1.
          1    1    1    2  502    0  0.63278654167E+02 -0.98841014837E+01  0.77111930626E+03  0.77377442968E+03  0.00000000000E+00 0. -1.
         22    1    3    3    0    0  0.77588600169E+02 -0.26672612555E+03  0.13228044449E+04  0.13516561753E+04  0.00000000000E+00 0. -1.
         22    1    3    3    0    0 -0.10465908373E+02 -0.29952724625E+02  0.44579801065E+02  0.54718000818E+02  0.00000000000E+00 0. -1.
</event>
<event>
 7    1  0.5127424E-006  0.5946894E+02  0.7818608E-02  0.1552170E+00
          2   -1    0    0  502    0  0.00000000000E+00  0.00000000000E+00  0.27416267942E+03  0.27416267942E+03  0.00000000000E+00 0. -1.
          1   -1    0    0  501    0 -0.00000000000E+00 -0.00000000000E+00 -0.27597652549E+03  0.27597652549E+03  0.00000000000E+00 0. -1.
         25    2    1    2    0    0  0.83757645586E+01  0.72365484059E+02  0.13782896067E+03  0.19982102511E+03  0.12499881184E+03 0.  0.
          2    1    1    2  501    0  0.81326741347E+01 -0.18416573810E+02 -0.23696861954E+03  0.23782228076E+03  0.00000000000E+00 0. -1.
          1    1    1    2  502    0 -0.16508438693E+02 -0.53948910249E+02  0.97325812795E+02  0.11249589904E+03  0.00000000000E+00 0. -1.
         22    1    3    3    0    0  0.43121234635E+01 -0.35949215331E+02  0.37425924454E+02  0.52073412726E+02  0.00000000000E+00 0. -1.
         22    1    3    3    0    0  0.40636410951E+01  0.10831469939E+03  0.10040303622E+03  0.14774761238E+03  0.00000000000E+00 0. -1.
</event>
<event>
 7    1  0.5127424E-006  0.1244257E+03  0.7818608E-02  0.1347539E+00
          2   -1    0    0  502    0  0.00000000000E+00  0.00000000000E+00  0.17366502341E+04  0.17366502341E+04  0.00000000000E+00 0. -1.
          1   -1    0    0  501    0 -0.00000000000E+00 -0.00000000000E+00 -0.49451925391E+02  0.49451925391E+02  0.00000000000E+00 0. -1.
         25    2    1    2    0    0 -0.28907018298E+02  0.13985721979E+03  0.11240131942E+04  0.11399242553E+04  0.12500395798E+03 0.  0.
          2    1    1    2  501    0 -0.11459063870E+02 -0.12284149100E+03  0.53268837240E+02  0.13438344792E+03  0.00000000000E+00 0. -1.
          1    1    1    2  502    0  0.40366082169E+02 -0.17015728792E+02  0.50991627731E+03  0.51179445628E+03  0.00000000000E+00 0. -1.
         22    1    3    3    0    0 -0.59288176842E+02  0.57022158022E+02  0.79643986517E+03  0.80067663464E+03  0.00000000000E+00 0.  1.
         22    1    3    3    0    0  0.30381158543E+02  0.82835061766E+02  0.32757332900E+03  0.33924762066E+03  0.00000000000E+00 0.  1.
</event>
<event>
 7    1  0.5127424E-006  0.2861367E+03  0.7818608E-02  0.1206681E+00
          2   -1    0    0  502    0  0.00000000000E+00  0.00000000000E+00  0.40122281110E+04  0.40122281110E+04  0.00000000000E+00 0. -1.
          1   -1    0    0  501    0 -0.00000000000E+00 -0.00000000000E+00 -0.43724949070E+03  0.43724949070E+03  0.00000000000E+00 0. -1.
         25    2    1    2    0    0  0.26206318091E+03  0.14307561355E+03 -0.39897830102E+02  0.32613590805E+03  0.12500020675E+03 0.  0.
          2    1    1    2  501    0 -0.27356034898E+03 -0.70442769038E+02 -0.17529679332E+03  0.33245513080E+03  0.00000000000E+00 0. -1.
          1    1    1    2  502    0  0.11497168064E+02 -0.72632844516E+02  0.37901732437E+04  0.37908865629E+04  0.00000000000E+00 0. -1.
         22    1    3    3    0    0  0.11368077122E+03  0.13296658350E+03 -0.23438908172E+02  0.17650159345E+03  0.00000000000E+00 0.  1.
         22    1    3    3    0    0  0.14838240969E+03  0.10109030053E+02 -0.16458921931E+02  0.14963431460E+03  0.00000000000E+00 0.  1.
</event>
<event>
 7    1  0.5127424E-006  0.3041732E+03  0.7818608E-02  0.1139703E+00
          2   -1    0    0  502    0  0.00000000000E+00  0.00000000000E+00  0.53573163249E+03  0.53573163249E+03  0.00000000000E+00 0. -1.
          1   -1    0    0  501    0 -0.00000000000E+00 -0.00000000000E+00 -0.88520186601E+03  0.88520186601E+03  0.00000000000E+00 0. -1.
         25    2    1    2    0    0 -0.11059693948E+03 -0.18234481030E+03 -0.12123822009E+03  0.27532573435E+03  0.12499696444E+03 0.  0.
          2    1    1    2  501    0  0.19434731024E+03  0.30470150629E+03 -0.62503921875E+03  0.72200270769E+03  0.00000000000E+00 0. -1.
          1    1    1    2  502    0 -0.83750370764E+02 -0.12235669599E+03  0.39680720533E+03  0.42360505646E+03  0.00000000000E+00 0. -1.
         22    1    3    3    0    0  0.27669641380E+02 -0.24569512775E+02 -0.23946689061E+02  0.44076228617E+02  0.00000000000E+00 0. -1.
         22    1    3    3    0    0 -0.13826658086E+03 -0.15777529753E+03 -0.97291531030E+02  0.23124950573E+03  0.00000000000E+00 0. -1.
</event>
<event>
 7    1  0.5127424E-006  0.5573974E+02  0.7818608E-02  0.1484313E+00
          2   -1    0    0  502    0  0.00000000000E+00  0.00000000000E+00  0.29465485435E+03  0.29465485435E+03  0.00000000000E+00 0. -1.
          1   -1    0    0  501    0 -0.00000000000E+00 -0.00000000000E+00 -0.29054637444E+03  0.29054637444E+03  0.00000000000E+00 0. -1.
         25    2    1    2    0    0 -0.57926096064E+02 -0.57423487137E+02  0.15956477000E+02  0.15010800187E+03  0.12499965435E+03 0.  0.
          2    1    1    2  501    0  0.25213016376E+02  0.48698660316E+02 -0.21870934827E+03  0.22547956611E+03  0.00000000000E+00 0. -1.
          1    1    1    2  502    0  0.32713079688E+02  0.87248268214E+01  0.20686135118E+03  0.20961366081E+03  0.00000000000E+00 0. -1.
         22    1    3    3    0    0 -0.18383537512E+02 -0.93699756383E+02  0.74510409228E+01  0.95776389619E+02  0.00000000000E+00 0. -1.
         22    1    3    3    0    0 -0.39542558552E+02  0.36276269246E+02  0.85054360772E+01  0.54331612254E+02  0.00000000000E+00 0. -1.
</event>
<event>
 7    1  0.5127424E-006  0.1216527E+03  0.7818608E-02  0.1287286E+00
          2   -1    0    0  502    0  0.00000000000E+00  0.00000000000E+00  0.33908852689E+04  0.33908852689E+04  0.00000000000E+00 0. -1.
          1   -1    0    0  501    0 -0.00000000000E+00 -0.00000000000E+00 -0.15074210816E+03  0.15074210816E+03  0.00000000000E+00 0. -1.
         25    2    1    2    0    0 -0.73193198879E+02 -0.88360306040E+02  0.10713599543E+03  0.20066705898E+03  0.12499743596E+03 0.  0.
          2    1    1    2  501    0  0.69034592110E+02 -0.33976537163E+02 -0.88418849924E+02  0.11720952609E+03  0.00000000000E+00 0. -1.
          1    1    1    2  502    0  0.41586067692E+01  0.12233684320E+03  0.32214260152E+04  0.32237507920E+04  0.00000000000E+00 0. -1.
         22    1    3    3    0    0 -0.29898055318E+02 -0.11486848998E+03  0.70389568508E+02  0.13799766323E+03  0.00000000000E+00 0.  1.
         22    1    3    3    0    0 -0.43295143561E+02  0.26508183942E+02  0.36746426925E+02  0.62669395750E+02  0.00000000000E+00 0.  1.
</event>
<event>
 7    1  0.5127424E-006  0.1792214E+03  0.7818608E-02  0.1334017E+00
          2   -1    0    0  502    0  0.00000000000E+00  0.00000000000E+00  0.86233187332E+03  0.86233187332E+03  0.00000000000E+00 0. -1.
          1   -1    0    0  501    0 -0.00000000000E+00 -0.00000000000E+00 -0.14043867781E+04  0.14043867781E+04  0.00000000000E+00 0. -1.
         25    2    1    2    0    0 -0.54820408961E+01 -0.15003020755E+03 -0.15740597201E+03  0.25088108706E+03  0.12500225547E+03 0.  0.
          2    1    1    2  501    0  0.15721513038E+02 -0.30357867298E+02 -0.11899883288E+04  0.11904793105E+04  0.00000000000E+00 0. -1.
          1    1    1    2  502    0 -0.10239472142E+02  0.18038807485E+03  0.80533939605E+03  0.82535825383E+03  0.00000000000E+00 0. -1.
         22    1    3    3    0    0  0.39813390875E+02 -0.56625020091E+02 -0.90454811563E+01  0.69809166466E+02  0.00000000000E+00 0.  1.
         22    1    3    3    0    0 -0.45295431771E+02 -0.93405187459E+02 -0.14836049085E+03  0.18107192060E+03  0.00000000000E+00 0.  1.
</event>
<event>
 7    1  0.5127424E-006  0.6705889E+02  0.7818608E-02  0.1479167E+00
          2   -1    0    0  502    0  0.00000000000E+00  0.00000000000E+00  0.73670181248E+03  0.73670181248E+03  0.00000000000E+00 0. -1.
          1   -1    0    0  501    0 -0.00000000000E+00 -0.00000000000E+00 -0.91841648507E+03  0.91841648507E+03  0.00000000000E+00 0. -1.
         25    2    1    2    0    0 -0.15123160546E+01  0.59621422015E+02 -0.50949437380E+03  0.52798497860E+03  0.12500647833E+03 0.  0.
          2    1    1    2  501    0  0.30342422734E+02 -0.64132684622E+02 -0.39623199655E+03  0.40253379851E+03  0.00000000000E+00 0. -1.
          1    1    1    2  502    0 -0.28830106679E+02  0.45112626070E+01  0.72401169776E+03  0.72459952045E+03  0.00000000000E+00 0. -1.
         22    1    3    3    0    0  0.33486728949E+02  0.57284478628E+02 -0.12175326983E+03  0.13866048904E+03  0.00000000000E+00 0.  1.
         22    1    3    3    0    0 -0.34999045003E+02  0.23369433878E+01 -0.38774110398E+03  0.38932448956E+03  0.00000000000E+00 0.  1.
</event>
<event>
 7    1  0.5127424E-006  0.7485253E+02  0.7818608E-02  0.1393425E+00
          2   -1    0    0  502    0  0.00000000000E+00  0.00000000000E+00  0.19381803358E+04  0.19381803358E+04  0.00000000000E+00 0. -1.
          1   -1    0    0  501    0 -0.00000000000E+00 -0.00000000000E+00 -0.37628904871E+03  0.37628904871E+03  0.00000000000E+00 0. -1.
         25    2    1    2    0    0 -0.25640677067E+02 -0.10829751429E+03 -0.33817115621E+03  0.37731902119E+03  0.12499646769E+03 0.  0.
          2    1    1    2  501    0  0.36171008127E+02  0.34249721142E+02  0.17046283990E+02  0.52649416189E+02  0.00000000000E+00 0. -1.
          1    1    1    2  502    0 -0.10530331060E+02  0.74047793148E+02  0.18830161593E+04  0.18845009471E+04  0.00000000000E+00 0. -1.
         22    1    3    3    0    0 -0.17024377274E+02 -0.12865652300E+03 -0.20714509420E+03  0.24444103661E+03  0.00000000000E+00 0. -1.
         22    1    3    3    0    0 -0.86162997936E+01  0.20359008707E+02 -0.13102606201E+03  0.13287798457E+03  0.00000000000E+00 0. -1.
</event>
<event>
 7    1  0.5127424E-006  0.1255618E+03  0.7818608E-02  0.1289025E+00
          2   -1    0    0  502    0  0.00000000000E+00  0.00000000000E+00  0.96662205424E+03  0.96662205424E+03  0.00000000000E+00 0. -1.
          1   -1    0    0  501    0 -0.00000000000E+00 -0.00000000000E+00 -0.23841439737E+04  0.23841439737E+04  0.00000000000E+00 0. -1.
         25    2    1    2    0    0 -0.13186407151E+03  0.27157015838E+02  0.91778634456E+02  0.20536454268E+03  0.12500256311E+03 0.  0.
          2    1    1    2  501    0  0.41017280409E+02  0.60796527094E+02 -0.23218822772E+04  0.23230402373E+04  0.00000000000E+00 0. -1.
          1    1    1    2  502    0  0.90846791096E+02 -0.87953542933E+02  0.81258172327E+03  0.82236124797E+03  0.00000000000E+00 0. -1.
         22    1    3    3    0    0 -0.64163203608E+02 -0.24359898403E+01  0.11169996646E+03  0.12883995207E+03  0.00000000000E+00 0. -1.
         22    1    3    3    0    0 -0.67700867897E+02  0.29593005679E+02 -0.19921332000E+02  0.76524590608E+02  0.00000000000E+00 0. -1.
</event>
<event>
 7    1  0.5127424E-006  0.8243866E+02  0.7818608E-02  0.1393632E+00
          2   -1    0    0  502    0  0.00000000000E+00  0.00000000000E+00  0.12276961935E+03  0.12276961935E+03  0.00000000000E+00 0. -1.
          1   -1    0    0  501    0 -0.00000000000E+00 -0.00000000000E+00 -0.13102052599E+04  0.13102052599E+04  0.00000000000E+00 0. -1.
         25    2    1    2    0    0  0.57227538984E+02 -0.71823172559E+02 -0.28424106426E+03  0.32380569173E+03  0.12499433608E+03 0.  0.
          2    1    1    2  501    0 -0.44108341122E+02 -0.96641947101E+01 -0.98904688428E+03  0.99007710898E+03  0.00000000000E+00 0. -1.
          1    1    1    2  502    0 -0.13119197862E+02  0.81487367269E+02  0.85852308001E+02  0.11909207852E+03  0.00000000000E+00 0. -1.
         22    1    3    3    0    0  0.65883738379E+00 -0.93739499794E+02 -0.15732362879E+03  0.18313451904E+03  0.00000000000E+00 0.  1.
         22    1    3    3    0    0  0.56568701600E+02  0.21916327235E+02 -0.12691743547E+03  0.14067117269E+03  0.00000000000E+00 0.  1.
</event>
<event>
 7    1  0.5127424E-006  0.2531315E+03  0.7818608E-02  0.1170030E+00
          2   -1    0    0  502    0  0.00000000000E+00  0.00000000000E+00  0.80043926871E+03  0.80043926871E+03  0.00000000000E+00 0. -1.
          1   -1    0    0  501    0 -0.00000000000E+00 -0.00000000000E+00 -0.27373137588E+04  0.27373137588E+04  0.00000000000E+00 0. -1.
         25    2    1    2    0    0 -0.31037669565E+03 -0.62239144815E+02 -0.29943819666E+03  0.45331606856E+03  0.12499928018E+03 0.  0.
          2    1    1    2  501    0  0.24544334479E+03 -0.44305128346E+02 -0.23489055546E+04  0.23621097951E+04  0.00000000000E+00 0. -1.
          1    1    1    2  502    0  0.64933350864E+02  0.10654427316E+03  0.71146926109E+03  0.72232716388E+03  0.00000000000E+00 0. -1.
         22    1    3    3    0    0 -0.29426039846E+03 -0.89845739732E+02 -0.27929516185E+03  0.41553246141E+03  0.00000000000E+00 0.  1.
         22    1    3    3    0    0 -0.16116297187E+02  0.27606594917E+02 -0.20143034811E+02  0.37783607150E+02  0.00000000000E+00 0.  1.
</event>
<event>
 7    1  0.5127424E-006  0.1617559E+03  0.7818608E-02  0.1275537E+00
          2   -1    0    0  502    0  0.00000000000E+00  0.00000000000E+00  0.12902549426E+04  0.12902549426E+04  0.00000000000E+00 0. -1.
          1   -1    0    0  501    0 -0.00000000000E+00 -0.00000000000E+00 -0.38236561167E+03  0.38236561167E+03  0.00000000000E+00 0. -1.
         25    2    1    2    0    0  0.11028067337E+03  0.18559756700E+02  0.14786304825E+03  0.22359612884E+03  0.12500182521E+03 0.  0.
          2    1    1    2  501    0  0.49618788422E+02  0.41514542617E+02 -0.33477968861E+03  0.34097349064E+03  0.00000000000E+00 0. -1.
          1    1    1    2  502    0 -0.15989946179E+03 -0.60074299317E+02  0.10948059713E+04  0.11080509348E+04  0.00000000000E+00 0. -1.
         22    1    3    3    0    0  0.45624445545E+02 -0.47165561181E+02  0.25533629541E+02  0.70414106756E+02  0.00000000000E+00 0. -1.
         22    1    3    3    0    0  0.64656227823E+02  0.65725317881E+02  0.12232941871E+03  0.15318202208E+03  0.00000000000E+00 0. -1.
</event>
<event>
 7    1  0.5127424E-006  0.7574117E+02  0.7818608E-02  0.1387398E+00
          2   -1    0    0  502    0  0.00000000000E+00  0.00000000000E+00  0.66133467192E+03  0.66133467192E+03  0.00000000000E+00 0. -1.
          1   -1    0    0  501    0 -0.00000000000E+00 -0.00000000000E+00 -0.10989332638E+04  0.10989332638E+04  0.00000000000E+00 0. -1.
         25    2    1    2    0    0 -0.31741596480E+02  0.82320357517E+02 -0.40661013066E+03  0.43444081896E+03  0.12499142616E+03 0.  0.
          2    1    1    2  501    0 -0.19179227911E+02 -0.73551954879E+02 -0.67524103389E+03  0.67950584008E+03  0.00000000000E+00 0. -1.
          1    1    1    2  502    0  0.50920824391E+02 -0.87684026372E+01  0.64425257269E+03  0.64632127666E+03  0.00000000000E+00 0. -1.
         22    1    3    3    0    0 -0.65307512833E+02  0.56322629604E+02 -0.36479436455E+03  0.37484962085E+03  0.00000000000E+00 0.  1.
         22    1    3    3    0    0  0.33565916353E+02  0.25997727913E+02 -0.41815766103E+02  0.59591198109E+02  0.00000000000E+00 0.  1.
</event>
<event>
 7    1  0.5127424E-006  0.3498815E+02  0.7818608E-02  0.1633981E+00
          2   -1    0    0  502    0  0.00000000000E+00  0.00000000000E+00  0.18608084269E+04  0.18608084269E+04  0.00000000000E+00 0. -1.
          1   -1    0    0  501    0 -0.00000000000E+00 -0.00000000000E+00 -0.48073457107E+03  0.48073457107E+03  0.00000000000E+00 0. -1.
         25    2    1    2    0    0  0.33690317039E+02 -0.16774034240E+02  0.15785492691E+04  0.15839378864E+04  0.12500010880E+03 0.  0.
          2    1    1    2  501    0 -0.17743873980E+02  0.30156642105E+02 -0.47701104615E+03  0.47829259484E+03  0.00000000000E+00 0. -1.
          1    1    1    2  502    0 -0.15946443058E+02 -0.13382607865E+02  0.27853563289E+03  0.27931251678E+03  0.00000000000E+00 0. -1.
         22    1    3    3    0    0  0.54585694764E+02 -0.35005126438E+02  0.14837409678E+04  0.14851573037E+04  0.00000000000E+00 0. -1.
         22    1    3    3    0    0 -0.20895377726E+02  0.18231092198E+02  0.94808301274E+02  0.98780582725E+02  0.00000000000E+00 0. -1.
</event>
<event>
 7    1  0.5127424E-006  0.1163850E+03  0.7818608E-02  0.1335815E+00
          2   -1    0    0  502    0  0.00000000000E+00  0.00000000000E+00  0.32265385371E+04  0.32265385371E+04  0.00000000000E+00 0. -1.
          1   -1    0    0  501    0 -0.00000000000E+00 -0.00000000000E+00 -0.13356523035E+04  0.13356523035E+04  0.00000000000E+00 0. -1.
         25    2    1    2    0    0  0.13277253118E+03  0.76592368284E+02  0.14917563299E+04  0.15048112462E+04  0.12500001168E+03 0.  0.
          2    1    1    2  501    0 -0.51430804106E+02 -0.63800102587E+01 -0.13269483141E+04  0.13279599619E+04  0.00000000000E+00 0. -1.
          1    1    1    2  502    0 -0.81341727070E+02 -0.70212358025E+02  0.17260782177E+04  0.17294196325E+04  0.00000000000E+00 0. -1.
         22    1    3    3    0    0  0.11784378348E+01  0.60114753564E+02  0.32243663245E+03  0.32799474730E+03  0.00000000000E+00 0. -1.
         22    1    3    3    0    0  0.13159409334E+03  0.16477614720E+02  0.11693196975E+04  0.11768164989E+04  0.00000000000E+00 0. -1.
</event>
<event>
 7    1  0.6361799E-006  0.5079766E+02  0.7818608E-02  0.1496052E+00
          2   -1    0    0  502    0  0.00000000000E+00  0.00000000000E+00  0.24089361454E+04  0.24089361454E+04  0.00000000000E+00 0. -1.
          1   -1    0    0  501    0 -0.00000000000E+00 -0.00000000000E+00 -0.53065274330E+03  0.53065274330E+03  0.00000000000E+00 0. -1.
         25    2    1    2    0    0 -0.47389241775E+02 -0.37833839780E+02 -0.10013750222E+03  0.17125930145E+03  0.12500035726E+03 0.  0.
          2    1    1    2  501    0  0.14885345480E+02  0.48578996569E+02 -0.39319625144E+03  0.39646536364E+03  0.00000000000E+00 0. -1.
          1    1    1    2  502    0  0.32503896295E+02 -0.10745156789E+02  0.23716171557E+04  0.23718642236E+04  0.00000000000E+00 0. -1.
         22    1    3    3    0    0 -0.27754549131E+02 -0.82939230651E+02 -0.78481436159E+02  0.11750985831E+03  0.00000000000E+00 0.  1.
         22    1    3    3    0    0 -0.19634692644E+02  0.45105390871E+02 -0.21656066065E+02  0.53749443144E+02  0.00000000000E+00 0.  1.
</event>
<event>
 7    1  0.5127424E-006  0.1039522E+03  0.7818608E-02  0.1401228E+00
          2   -1    0    0  502    0  0.00000000000E+00  0.00000000000E+00  0.64313428645E+02  0.64313428645E+02  0.00000000000E+00 0. -1.
          1   -1    0    0  501    0 -0.00000000000E+00 -0.00000000000E+00 -0.11743619090E+04  0.11743619090E+04  0.00000000000E+00 0. -1.
         25    2    1    2    0    0  0.66093397063E+01  0.76638808221E+02 -0.21366533354E+03  0.25922567771E+03  0.12501154719E+03 0.  0.
          2    1    1    2  501    0 -0.25170428363E+02 -0.10478064325E+03 -0.92740013290E+03  0.93363994140E+03  0.00000000000E+00 0. -1.
          1    1    1    2  502    0  0.18561088656E+02  0.28141835028E+02  0.31016986059E+02  0.45809718565E+02  0.00000000000E+00 0. -1.
         22    1    3    3    0    0  0.37844152373E+02 -0.58974109018E+01 -0.13742053169E+02  0.40691563616E+02  0.00000000000E+00 0.  1.
         22    1    3    3    0    0 -0.31234812667E+02  0.82536219123E+02 -0.19992328037E+03  0.21853411410E+03  0.00000000000E+00 0.  1.
</event>
<event>
 7    1  0.5127424E-006  0.2306297E+03  0.7818608E-02  0.1185922E+00
          2   -1    0    0  502    0  0.00000000000E+00  0.00000000000E+00  0.22173522688E+04  0.22173522688E+04  0.00000000000E+00 0. -1.
          1   -1    0    0  501    0 -0.00000000000E+00 -0.00000000000E+00 -0.71078772040E+03  0.71078772040E+03  0.00000000000E+00 0. -1.
         25    2    1    2    0    0 -0.22830191105E+03 -0.69434319552E+02  0.18729881735E+03  0.32809776145E+03  0.12499762705E+03 0.  0.
          2    1    1    2  501    0  0.34532178901E+00  0.11447173757E+03 -0.62831062176E+03  0.63865337654E+03  0.00000000000E+00 0. -1.
          1    1    1    2  502    0  0.22795658926E+03 -0.45037418021E+02  0.19475763528E+04  0.19613888512E+04  0.00000000000E+00 0. -1.
         22    1    3    3    0    0 -0.49740522519E+02 -0.49684000811E+02  0.24715774948E+01  0.70347197615E+02  0.00000000000E+00 0.  1.
         22    1    3    3    0    0 -0.17856138853E+03 -0.19750318741E+02  0.18482723986E+03  0.25775056384E+03  0.00000000000E+00 0.  1.
</event>
<event>
 7    1  0.5127424E-006  0.6271314E+02  0.7818608E-02  0.1397265E+00
          2   -1    0    0  502    0  0.00000000000E+00  0.00000000000E+00  0.89317819173E+03  0.89317819173E+03  0.00000000000E+00 0. -1.
          1   -1    0    0  501    0 -0.00000000000E+00 -0.00000000000E+00 -0.53106054707E+02  0.53106054707E+02  0.00000000000E+00 0. -1.
         25    2    1    2    0    0 -0.31605882892E+02 -0.13144942253E+02  0.41809587183E+03  0.43772305759E+03  0.12500238306E+03 0.  0.
          2    1    1    2  501    0  0.50928826646E+02 -0.41184384497E+02 -0.15495613821E+02  0.67305370942E+02  0.00000000000E+00 0. -1.
          1    1    1    2  502    0 -0.19322943754E+02  0.54329326750E+02  0.43747187902E+03  0.44125581790E+03  0.00000000000E+00 0. -1.
         22    1    3    3    0    0 -0.84980515189E+01  0.32786473173E+02  0.35370293135E+03  0.35532088786E+03  0.00000000000E+00 0. -1.
         22    1    3    3    0    0 -0.23107831373E+02 -0.45931415426E+02  0.64392940475E+02  0.82402169734E+02  0.00000000000E+00 0. -1.
</event>
<event>
 7    1  0.5127424E-006  0.1664416E+03  0.7818608E-02  0.1310788E+00
          2   -1    0    0  502    0  0.00000000000E+00  0.00000000000E+00  0.48561876874E+03  0.48561876874E+03  0.00000000000E+00 0. -1.
          1   -1    0    0  501    0 -0.00000000000E+00 -0.00000000000E+00 -0.11213875455E+04  0.11213875455E+04  0.00000000000E+00 0. -1.
         25    2    1    2    0    0 -0.14507345475E+03  0.67300307623E+02 -0.46632666596E+03  0.50858893528E+03  0.12500602792E+03 0.  0.
          2    1    1    2  501    0  0.13183554845E+03 -0.11058936815E+03 -0.62110003710E+03  0.64449660687E+03  0.00000000000E+00 0. -1.
          1    1    1    2  502    0  0.13237906300E+02  0.43289060529E+02  0.45165792631E+03  0.45392077208E+03  0.00000000000E+00 0. -1.
         22    1    3    3    0    0 -0.77200853674E+02  0.77260560890E+02 -0.15388759962E+03  0.18870760290E+03  0.00000000000E+00 0.  1.
         22    1    3    3    0    0 -0.67872601080E+02 -0.99602532664E+01 -0.31243906635E+03  0.31988133237E+03  0.00000000000E+00 0.  1.
</event>
<event>
 7    1  0.5127424E-006  0.1468511E+03  0.7818608E-02  0.1362198E+00
          2   -1    0    0  502    0  0.00000000000E+00  0.00000000000E+00  0.48380321158E+03  0.48380321158E+03  0.00000000000E+00 0. -1.
          1   -1    0    0  501    0 -0.00000000000E+00 -0.00000000000E+00 -0.21082801131E+04  0.21082801131E+04  0.00000000000E+00 0. -1.
         25    2    1    2    0    0 -0.74226700893E+02  0.87860730398E+02  0.16833369198E+02  0.17070177510E+03  0.12500649036E+03 0.  0.
          2    1    1    2  501    0  0.94004588674E+02 -0.11400575328E+03 -0.20279641910E+04  0.20333403390E+04  0.00000000000E+00 0. -1.
          1    1    1    2  502    0 -0.19777887781E+02  0.26145022879E+02  0.38665392024E+03  0.38804121057E+03  0.00000000000E+00 0. -1.
         22    1    3    3    0    0 -0.23350508084E+02  0.64720182992E+02 -0.48906092037E+02  0.84414182177E+02  0.00000000000E+00 0. -1.
         22    1    3    3    0    0 -0.50876192809E+02  0.23140547405E+02  0.65739461235E+02  0.86287592923E+02  0.00000000000E+00 0. -1.
</event>
<event>
 7    1  0.5127424E-006  0.7682061E+02  0.7818608E-02  0.1349185E+00
          2   -1    0    0  502    0  0.00000000000E+00  0.00000000000E+00  0.55507415126E+02  0.55507415126E+02  0.00000000000E+00 0. -1.
          1   -1    0    0  501    0 -0.00000000000E+00 -0.00000000000E+00 -0.21713465511E+04  0.21713465511E+04  0.00000000000E+00 0. -1.
         25    2    1    2    0    0 -0.10298482561E+03 -0.82051631412E+02 -0.11092781114E+04  0.11240368542E+04  0.12499030669E+03 0.  0.
          2    1    1    2  501    0  0.68375016317E+02  0.14809350817E+02 -0.10230290576E+04  0.10254184084E+04  0.00000000000E+00 0. -1.
          1    1    1    2  502    0  0.34609809291E+02  0.67242280595E+02  0.16468032994E+02  0.77398703538E+02  0.00000000000E+00 0. -1.
         22    1    3    3    0    0 -0.25668845728E+02 -0.26690855575E+02 -0.79076796920E+03  0.79163455744E+03  0.00000000000E+00 0.  1.
         22    1    3    3    0    0 -0.77315979879E+02 -0.55360775836E+02 -0.31851014218E+03  0.33240229680E+03  0.00000000000E+00 0.  1.
</event>
<event>
 7    1  0.5127424E-006  0.5985702E+02  0.7818608E-02  0.1415795E+00
          2   -1    0    0  502    0  0.00000000000E+00  0.00000000000E+00  0.72738195945E+03  0.72738195945E+03  0.00000000000E+00 0. -1.
          1   -1    0    0  501    0 -0.00000000000E+00 -0.00000000000E+00 -0.59811450444E+03  0.59811450444E+03  0.00000000000E+00 0. -1.
         25    2    1    2    0    0  0.61651926608E+01  0.43850545591E+02  0.44294548104E+03  0.46237177598E+03  0.12500432034E+03 0.  0.
          2    1    1    2  501    0 -0.59130828137E+02 -0.92956081043E+01 -0.58320965313E+03  0.58627328326E+03  0.00000000000E+00 0. -1.
          1    1    1    2  502    0  0.52965635476E+02 -0.34554937487E+02  0.26953162710E+03  0.27685140465E+03  0.00000000000E+00 0. -1.
         22    1    3    3    0    0  0.43524964895E+02  0.70694164568E+02  0.33294379495E+03  0.34313795778E+03  0.00000000000E+00 0.  1.
         22    1    3    3    0    0 -0.37359772234E+02 -0.26843618976E+02  0.11000168609E+03  0.11923381820E+03  0.00000000000E+00 0.  1.
</event>
<event>
 7    1  0.5127424E-006  0.1211820E+03  0.7818608E-02  0.1303229E+00
          2   -1    0    0  502    0  0.00000000000E+00  0.00000000000E+00  0.18282838950E+04  0.18282838950E+04  0.00000000000E+00 0. -1.
          1   -1    0    0  501    0 -0.00000000000E+00 -0.00000000000E+00 -0.10511158861E+03  0.10511158861E+03  0.00000000000E+00 0. -1.
         25    2    1    2    0    0  0.15695742474E+02  0.12808656765E+03  0.52816376975E+03  0.55788335156E+03  0.12499736451E+03 0.  0.
          2    1    1    2  501    0  0.59016372881E+02 -0.30887157181E+02 -0.74592985473E+02  0.10000531100E+03  0.00000000000E+00 0. -1.
          1    1    1    2  502    0 -0.74712115355E+02 -0.97199410473E+02  0.12696015221E+04  0.12755068211E+04  0.00000000000E+00 0. -1.
         22    1    3    3    0    0  0.39658224920E+02  0.12679261882E+03  0.51198820760E+03  0.52894335020E+03  0.00000000000E+00 0.  1.
         22    1    3    3    0    0 -0.23962482446E+02  0.12939488341E+01  0.16175562141E+02  0.28940001367E+02  0.00000000000E+00 0.  1.
</event>
<event>
 7    1  0.5127424E-006  0.1879063E+03  0.7818608E-02  0.1351179E+00
          2   -1    0    0  502    0  0.00000000000E+00  0.00000000000E+00  0.16973634714E+04  0.16973634714E+04  0.00000000000E+00 0. -1.
          1   -1    0    0  501    0 -0.00000000000E+00 -0.00000000000E+00 -0.92900665640E+02  0.92900665640E+02  0.00000000000E+00 0. -1.
         25    2    1    2    0    0  0.13427753879E+03 -0.15890192789E+03  0.84738167486E+03  0.88145412381E+03  0.12500155756E+03 0.  0.
          2    1    1    2  501    0 -0.13116179471E+03  0.13095593622E+03  0.38026698970E+02  0.18920598156E+03  0.00000000000E+00 0. -1.
          1    1    1    2  502    0 -0.31157440793E+01  0.27945991671E+02  0.71905443190E+03  0.71960403164E+03  0.00000000000E+00 0. -1.
         22    1    3    3    0    0  0.74047718752E+02 -0.11550736370E+03  0.31048168617E+03  0.33944645111E+03  0.00000000000E+00 0.  1.
         22    1    3    3    0    0  0.60229820037E+02 -0.43394564196E+02  0.53689998869E+03  0.54200767271E+03  0.00000000000E+00 0.  1.
</event>
<event>
 7    1  0.5127424E-006  0.2750875E+02  0.7818608E-02  0.1634600E+00
          2   -1    0    0  502    0  0.00000000000E+00  0.00000000000E+00  0.68464415331E+03  0.68464415331E+03  0.00000000000E+00 0. -1.
          1   -1    0    0  501    0 -0.00000000000E+00 -0.00000000000E+00 -0.10987003517E+04  0.10987003517E+04  0.00000000000E+00 0. -1.
         25    2    1    2    0    0 -0.23102769557E+02 -0.88380518777E+01  0.15462513462E+03  0.20036393531E+03  0.12499970079E+03 0.  0.
          2    1    1    2  501    0  0.21259606777E+02 -0.17481243269E+02 -0.10753115896E+04  0.10756637855E+04  0.00000000000E+00 0. -1.
          1    1    1    2  502    0  0.18431627807E+01  0.26319295147E+02  0.50663025663E+03  0.50731678415E+03  0.00000000000E+00 0. -1.
         22    1    3    3    0    0  0.56445255975E+01 -0.56255004577E+02  0.12568426339E+03  0.13781516707E+03  0.00000000000E+00 0.  1.
         22    1    3    3    0    0 -0.28747295155E+02  0.47416952699E+02  0.28940871223E+02  0.62548768247E+02  0.00000000000E+00 0.  1.
</event>
<event>
 7    1  0.5127424E-006  0.1487463E+03  0.7818608E-02  0.1246949E+00
          2   -1    0    0  502    0  0.00000000000E+00  0.00000000000E+00  0.20747355269E+03  0.20747355269E+03  0.00000000000E+00 0. -1.
          1   -1    0    0  501    0 -0.00000000000E+00 -0.00000000000E+00 -0.12718688378E+04  0.12718688378E+04  0.00000000000E+00 0. -1.
         25    2    1    2    0    0 -0.91799126647E+02 -0.19634670752E+03 -0.63952958212E+03  0.68673283903E+03  0.12499918635E+03 0.  0.
          2    1    1    2  501    0 -0.11118297351E+02  0.92459159026E+02 -0.57531368860E+03  0.58280198431E+03  0.00000000000E+00 0. -1.
          1    1    1    2  502    0  0.10291742400E+03  0.10388754849E+03  0.15044798557E+03  0.20980756720E+03  0.00000000000E+00 0. -1.
         22    1    3    3    0    0  0.88691879131E+00  0.11696358501E+02 -0.53435477135E+01  0.12889721847E+02  0.00000000000E+00 0.  1.
         22    1    3    3    0    0 -0.92686045439E+02 -0.20804306602E+03 -0.63418603441E+03  0.67384311718E+03  0.00000000000E+00 0.  1.
</event>
<event>
 7    1  0.5127424E-006  0.7579757E+02  0.7818608E-02  0.1422936E+00
          2   -1    0    0  502    0  0.00000000000E+00  0.00000000000E+00  0.22961604150E+04  0.22961604150E+04  0.00000000000E+00 0. -1.
          1   -1    0    0  501    0 -0.00000000000E+00 -0.00000000000E+00 -0.20508440021E+03  0.20508440021E+03  0.00000000000E+00 0. -1.
         25    2    1    2    0    0  0.94310171272E+02  0.63126239751E+02  0.43290126289E+03  0.46465867097E+03  0.12499938618E+03 0.  0.
          2    1    1    2  501    0 -0.58845341249E+02 -0.46782969999E+02 -0.18152302079E+03  0.19647398694E+03  0.00000000000E+00 0. -1.
          1    1    1    2  502    0 -0.35464830024E+02 -0.16343269752E+02  0.18396977727E+04  0.18401121573E+04  0.00000000000E+00 0. -1.
         22    1    3    3    0    0  0.89121509465E+02  0.87459296524E+02  0.24368904408E+03  0.27381768059E+03  0.00000000000E+00 0. -1.
         22    1    3    3    0    0  0.51886618074E+01 -0.24333056774E+02  0.18921221881E+03  0.19084099038E+03  0.00000000000E+00 0. -1.
</event>
<event>
 7    1  0.5127424E-006  0.4481741E+02  0.7818608E-02  0.1560451E+00
          2   -1    0    0  502    0  0.00000000000E+00  0.00000000000E+00  0.44564525103E+04  0.44564525103E+04  0.00000000000E+00 0. -1.
          1   -1    0    0  501    0 -0.00000000000E+00 -0.00000000000E+00 -0.15472874442E+02  0.15472874442E+02  0.00000000000E+00 0. -1.
         25    2    1    2    0    0  0.18313535785E+02  0.27371912561E+02  0.11795679267E+04  0.11866296611E+04  0.12499940725E+03 0.  0.
          2    1    1    2  501    0 -0.17624978792E+02  0.18208423922E+02  0.18430647147E+01  0.25408334591E+02  0.00000000000E+00 0. -1.
          1    1    1    2  502    0 -0.68855699326E+00 -0.45580336484E+02  0.32595686444E+04  0.32598873890E+04  0.00000000000E+00 0. -1.
         22    1    3    3    0    0  0.48918119476E+02  0.43958168476E+02  0.10615434887E+04  0.10635788083E+04  0.00000000000E+00 0. -1.
         22    1    3    3    0    0 -0.30604583691E+02 -0.16586255915E+02  0.11802443796E+03  0.12305085284E+03  0.00000000000E+00 0. -1.
</event>
<event>
 7    1  0.5127424E-006  0.4515712E+02  0.7818608E-02  0.1579387E+00
          2   -1    0    0  502    0  0.00000000000E+00  0.00000000000E+00  0.37606659135E+03  0.37606659135E+03  0.00000000000E+00 0. -1.
          1   -1    0    0  501    0 -0.00000000000E+00 -0.00000000000E+00 -0.65671445192E+02  0.65671445192E+02  0.00000000000E+00 0. -1.
         25    2    1    2    0    0  0.26894678215E+02 -0.23127107639E+02  0.12423239607E+03  0.17977520557E+03  0.12500899760E+03 0.  0.
          2    1    1    2  501    0 -0.17068046856E+02  0.43190824678E+02 -0.22851053639E+02  0.51758440976E+02  0.00000000000E+00 0. -1.
          1    1    1    2  502    0 -0.98266313591E+01 -0.20063717039E+02  0.20901380372E+03  0.21020438999E+03  0.00000000000E+00 0. -1.
         22    1    3    3    0    0  0.47715061263E+02 -0.10691552731E+02 -0.41952646287E+01  0.49077862794E+02  0.00000000000E+00 0.  1.
         22    1    3    3    0    0 -0.20820383048E+02 -0.12435554909E+02  0.12842766070E+03  0.13069734278E+03  0.00000000000E+00 0.  1.
</event>
<event>
 7    1  0.5127424E-006  0.3800378E+02  0.7818608E-02  0.1604948E+00
          2   -1    0    0  502    0  0.00000000000E+00  0.00000000000E+00  0.15065488308E+04  0.15065488308E+04  0.00000000000E+00 0. -1.
          1   -1    0    0  501    0 -0.00000000000E+00 -0.00000000000E+00 -0.78364878229E+03  0.78364878229E+03  0.00000000000E+00 0. -1.
         25    2    1    2    0    0  0.48032356995E+02  0.14591395352E+02 -0.41629989704E+03  0.43755224572E+03  0.12500538917E+03 0.  0.
          2    1    1    2  501    0 -0.27761698412E+02 -0.24866769307E+02 -0.35566261091E+03  0.35761006825E+03  0.00000000000E+00 0. -1.
          1    1    1    2  502    0 -0.20270658583E+02  0.10275373956E+02  0.14948625565E+04  0.14950352992E+04  0.00000000000E+00 0. -1.
         22    1    3    3    0    0  0.66222838022E+02 -0.61455239403E+00 -0.97457460232E+02  0.11782953155E+03  0.00000000000E+00 0. -1.
         22    1    3    3    0    0 -0.18190481027E+02  0.15205947746E+02 -0.31884243680E+03  0.31972271417E+03  0.00000000000E+00 0. -1.
</event>
<event>
 7    1  0.5127424E-006  0.8693928E+02  0.7818608E-02  0.1385789E+00
          2   -1    0    0  502    0  0.00000000000E+00  0.00000000000E+00  0.59742658617E+03  0.59742658617E+03  0.00000000000E+00 0. -1.
          1   -1    0    0  501    0 -0.00000000000E+00 -0.00000000000E+00 -0.77232148693E+03  0.77232148693E+03  0.00000000000E+00 0. -1.
         25    2    1    2    0    0 -0.71647484606E+02  0.11074373255E+03 -0.20204440667E+03  0.27174360959E+03  0.12500044294E+03 0.  0.
          2    1    1    2  501    0  0.24003986973E+02 -0.38774894395E+02 -0.53113422995E+03  0.53308841110E+03  0.00000000000E+00 0. -1.
          1    1    1    2  502    0  0.47643497634E+02 -0.71968838156E+02  0.55828373587E+03  0.56491605241E+03  0.00000000000E+00 0. -1.
         22    1    3    3    0    0 -0.49955850169E+02 -0.70383847351E+01 -0.10891803703E+03  0.12003443096E+03  0.00000000000E+00 0. -1.
         22    1    3    3    0    0 -0.21691634438E+02  0.11778211729E+03 -0.93126369643E+02  0.15170917863E+03  0.00000000000E+00 0. -1.
</event>
<event>
 7    1  0.5127424E-006  0.4075720E+02  0.7818608E-02  0.1599065E+00
          2   -1    0    0  502    0  0.00000000000E+00  0.00000000000E+00  0.32703373419E+04  0.32703373419E+04  0.00000000000E+00 0. -1.
          1   -1    0    0  501    0 -0.00000000000E+00 -0.00000000000E+00 -0.15121630235E+03  0.15121630235E+03  0.00000000000E+00 0. -1.
         25    2    1    2    0    0  0.32697311347E+02 -0.30911749572E+02  0.53989840025E+03  0.55600340406E+03  0.12499940920E+03 0.  0.
          2    1    1    2  501    0 -0.20447605537E+02 -0.79877467048E+01 -0.14216858436E+03  0.14385344990E+03  0.00000000000E+00 0. -1.
          1    1    1    2  502    0 -0.12249705810E+02  0.38899496277E+02  0.27213912237E+04  0.27216967903E+04  0.00000000000E+00 0. -1.
         22    1    3    3    0    0 -0.33669048616E+02 -0.33941966918E+02  0.37789089881E+03  0.38090312857E+03  0.00000000000E+00 0. -1.
         22    1    3    3    0    0  0.66366359963E+02  0.30302173458E+01  0.16200750144E+03  0.17510027549E+03  0.00000000000E+00 0. -1.
</event>
<event>
 7    1  0.5127424E-006  0.9307878E+02  0.7818608E-02  0.1360013E+00
          2   -1    0    0  502    0  0.00000000000E+00  0.00000000000E+00  0.11265993328E+04  0.11265993328E+04  0.00000000000E+00 0. -1.
          1   -1    0    0  501    0 -0.00000000000E+00 -0.00000000000E+00 -0.11112302125E+03  0.11112302125E+03  0.00000000000E+00 0. -1.
         25    2    1    2    0    0  0.11790542954E+02 -0.63939017423E+02  0.28070475662E+03  0.31408254108E+03  0.12500186946E+03 0.  0.
          2    1    1    2  501    0 -0.42963637980E+02 -0.30482904248E+02 -0.83837297899E+02  0.99014009912E+02  0.00000000000E+00 0. -1.
          1    1    1    2  502    0  0.31173095026E+02  0.94421921672E+02  0.81860885283E+03  0.82462580307E+03  0.00000000000E+00 0. -1.
         22    1    3    3    0    0  0.53443278445E+02 -0.76186909759E+02  0.15172759763E+03  0.17799408168E+03  0.00000000000E+00 0.  1.
         22    1    3    3    0    0 -0.41652735491E+02  0.12247892335E+02  0.12897715899E+03  0.13608845940E+03  0.00000000000E+00 0.  1.
</event>
<event>
 7    1  0.5127424E-006  0.3460863E+03  0.7818608E-02  0.1196883E+00
          2   -1    0    0  502    0  0.00000000000E+00  0.00000000000E+00  0.68073618109E+03  0.68073618109E+03  0.00000000000E+00 0. -1.
          1   -1    0    0  501    0 -0.00000000000E+00 -0.00000000000E+00 -0.28581323698E+03  0.28581323698E+03  0.00000000000E+00 0. -1.
         25    2    1    2    0    0 -0.22705854934E+03  0.20645641966E+03  0.19390152594E+03  0.38393042759E+03  0.12499973369E+03 0.  0.
          2    1    1    2  501    0  0.25996234329E+03 -0.26551213336E+03  0.11128415840E+01  0.37158895477E+03  0.00000000000E+00 0. -1.
          1    1    1    2  502    0 -0.32903793955E+02  0.59055713695E+02  0.19990857658E+03  0.21103003570E+03  0.00000000000E+00 0. -1.
         22    1    3    3    0    0 -0.46466796338E+02  0.64286027726E+02  0.11741851771E+03  0.14170026402E+03  0.00000000000E+00 0.  1.
         22    1    3    3    0    0 -0.18059175300E+03  0.14217039194E+03  0.76483008228E+02  0.24223016357E+03  0.00000000000E+00 0.  1.
</event>
<event>
 7    1  0.8580108E-006  0.6311834E+02  0.7818608E-02  0.1400344E+00
          2   -1    0    0  502    0  0.00000000000E+00  0.00000000000E+00  0.20643833847E+04  0.20643833847E+04  0.00000000000E+00 0. -1.
          1   -1    0    0  501    0 -0.00000000000E+00 -0.00000000000E+00 -0.86538532452E+03  0.86538532452E+03  0.00000000000E+00 0. -1.
         25    2    1    2    0    0  0.24254601118E+02 -0.18822293876E+02 -0.44953471062E+02  0.13633821378E+03  0.12499891821E+03 0.  0.
          2    1    1    2  501    0  0.33619406762E+02  0.44673813218E+02 -0.77323229112E+03  0.77525104974E+03  0.00000000000E+00 0. -1.
          1    1    1    2  502    0 -0.57874007879E+02 -0.25851519342E+02  0.20171838224E+04  0.20181794457E+04  0.00000000000E+00 0. -1.
         22    1    3    3    0    0 -0.17904927572E+02  0.40168579298E+02 -0.46246905351E+02  0.63819099404E+02  0.00000000000E+00 0. -1.
         22    1    3    3    0    0  0.42159528690E+02 -0.58990873175E+02  0.12934342891E+01  0.72519114374E+02  0.00000000000E+00 0. -1.
</event>
<event>
 7    1  0.5127424E-006  0.4945031E+02  0.7818608E-02  0.1509541E+00
          2   -1    0    0  502    0  0.00000000000E+00  0.00000000000E+00  0.23818637610E+04  0.23818637610E+04  0.00000000000E+00 0. -1.
          1   -1    0    0  501    0 -0.00000000000E+00 -0.00000000000E+00 -0.84335905144E+01  0.84335905144E+01  0.00000000000E+00 0. -1.
         25    2    1    2    0    0  0.59316844392E+02 -0.48892214285E+02  0.19021026892E+04  0.19077548958E+04  0.12500066195E+03 0.  0.
          2    1    1    2  501    0 -0.29173581252E+02  0.37958698446E+02  0.11220705257E+03  0.12199337391E+03  0.00000000000E+00 0. -1.
          1    1    1    2  502    0 -0.30143263140E+02  0.10933515840E+02  0.35912042864E+03  0.36054908174E+03  0.00000000000E+00 0. -1.
         22    1    3    3    0    0 -0.16060844362E+02 -0.15088810722E+02  0.62019413511E+02  0.65818163017E+02  0.00000000000E+00 0.  1.
         22    1    3    3    0    0  0.75377688754E+02 -0.33803403563E+02  0.18400832757E+04  0.18419367328E+04  0.00000000000E+00 0.  1.
</event>
<event>
 7    1  0.5127424E-006  0.9959789E+02  0.7818608E-02  0.1429237E+00
          2   -1    0    0  502    0  0.00000000000E+00  0.00000000000E+00  0.21254467963E+04  0.21254467963E+04  0.00000000000E+00 0. -1.
          1   -1    0    0  501    0 -0.00000000000E+00 -0.00000000000E+00 -0.34953642607E+03  0.34953642607E+03  0.00000000000E+00 0. -1.
         25    2    1    2    0    0 -0.15416141092E+02 -0.91431658382E+02 -0.38462982371E+02  0.16032094108E+03  0.12500399024E+03 0.  0.
          2    1    1    2  501    0  0.27289602694E+02 -0.75855050973E+01 -0.24813399263E+03  0.24974535151E+03  0.00000000000E+00 0. -1.
          1    1    1    2  502    0 -0.11873461601E+02  0.99017163479E+02  0.20625073453E+04  0.20649169298E+04  0.00000000000E+00 0. -1.
         22    1    3    3    0    0  0.40326836218E+02 -0.49874073385E+02  0.22379059875E+02  0.67930105523E+02  0.00000000000E+00 0. -1.
         22    1    3    3    0    0 -0.55742977311E+02 -0.41557584996E+02 -0.60842042246E+02  0.92390835557E+02  0.00000000000E+00 0. -1.
</event>
<event>
 7    1  0.5127424E-006  0.2324015E+03  0.7818608E-02  0.1224171E+00
          2   -1    0    0  502    0  0.00000000000E+00  0.00000000000E+00  0.17749602453E+04  0.17749602453E+04  0.00000000000E+00 0. -1.
          1   -1    0    0  501    0 -0.00000000000E+00 -0.00000000000E+00 -0.85708653850E+03  0.85708653850E+03  0.00000000000E+00 0. -1.
         25    2    1    2    0    0 -0.24484469663E+02  0.16537780960E+03  0.36946748065E+02  0.21198941656E+03  0.12500056552E+03 0.  0.
          2    1    1    2  501    0  0.34116338293E+02 -0.24000398068E+03 -0.74958541422E+03  0.78780970322E+03  0.00000000000E+00 0. -1.
          1    1    1    2  502    0 -0.96318686306E+01  0.74626171082E+02  0.16305123730E+04  0.16322476640E+04  0.00000000000E+00 0. -1.
         22    1    3    3    0    0 -0.39294639029E+02  0.17036865952E+03  0.32802470332E+01  0.17487226431E+03  0.00000000000E+00 0. -1.
         22    1    3    3    0    0  0.14810169366E+02 -0.49908499271E+01  0.33666501032E+02  0.37117152253E+02  0.00000000000E+00 0. -1.
</event>
<event>
 7    1  0.5127424E-006  0.1872066E+03  0.7818608E-02  0.1288967E+00
          2   -1    0    0  502    0  0.00000000000E+00  0.00000000000E+00  0.74895466547E+03  0.74895466547E+03  0.00000000000E+00 0. -1.
          1   -1    0    0  501    0 -0.00000000000E+00 -0.00000000000E+00 -0.85337702210E+03  0.85337702210E+03  0.00000000000E+00 0. -1.
         25    2    1    2    0    0  0.15091805635E+03  0.98412940093E+02 -0.46696444521E+03  0.51588983534E+03  0.12500065044E+03 0.  0.
          2    1    1    2  501    0  0.27542579810E+02 -0.40788073599E+02 -0.34805387936E+03  0.35151637741E+03  0.00000000000E+00 0. -1.
          1    1    1    2  502    0 -0.17846063616E+03 -0.57624866494E+02  0.71059596793E+03  0.73492547482E+03  0.00000000000E+00 0. -1.
         22    1    3    3    0    0  0.10855380736E+02  0.55513422741E+02 -0.55988916944E+02  0.79588555810E+02  0.00000000000E+00 0.  1.
         22    1    3    3    0    0  0.14006267561E+03  0.42899517352E+02 -0.41097552826E+03  0.43630127953E+03  0.00000000000E+00 0.  1.
</event>
<event>
 7    1  0.5127424E-006  0.9642006E+02  0.7818608E-02  0.1367349E+00
          2   -1    0    0  502    0  0.00000000000E+00  0.00000000000E+00  0.13857265037E+04  0.13857265037E+04  0.00000000000E+00 0. -1.
          1   -1    0    0  501    0 -0.00000000000E+00 -0.00000000000E+00 -0.15894327781E+03  0.15894327781E+03  0.00000000000E+00 0. -1.
         25    2    1    2    0    0 -0.47075083431E+02 -0.25035888081E+02  0.28256270355E+03  0.31354337027E+03  0.12499961771E+03 0.  0.
          2    1    1    2  501    0  0.76556294624E+02  0.62699179081E+02 -0.12579000450E+03  0.16004742590E+03  0.00000000000E+00 0. -1.
          1    1    1    2  502    0 -0.29481211193E+02 -0.37663291001E+02  0.10700105269E+04  0.10710789854E+04  0.00000000000E+00 0. -1.
         22    1    3    3    0    0  0.18802195582E+01 -0.32421869115E+02  0.65560863258E+01  0.33131481862E+02  0.00000000000E+00 0.  1.
         22    1    3    3    0    0 -0.48955302990E+02  0.73859810343E+01  0.27600661722E+03  0.28041188840E+03  0.00000000000E+00 0.  1.
</event>
<event>
 7    1  0.5127424E-006  0.4925147E+02  0.7818608E-02  0.1457017E+00
          2   -1    0    0  502    0  0.00000000000E+00  0.00000000000E+00  0.24261944884E+02  0.24261944884E+02  0.00000000000E+00 0. -1.
          1   -1    0    0  501    0 -0.00000000000E+00 -0.00000000000E+00 -0.17246579662E+04  0.17246579662E+04  0.00000000000E+00 0. -1.
         25    2    1    2    0    0  0.11707083304E+02  0.13812741646E+02 -0.66887266174E+03  0.68070090702E+03  0.12504095155E+03 0.  0.
          2    1    1    2  501    0 -0.32572506130E+02  0.33301648106E+02 -0.10120695667E+04  0.10131410443E+04  0.00000000000E+00 0. -1.
          1    1    1    2  502    0  0.20865422826E+02 -0.47114389752E+02 -0.19453792922E+02  0.55077959752E+02  0.00000000000E+00 0. -1.
         22    1    3    3    0    0 -0.42044494351E+00  0.37175058337E+02 -0.55724083540E+02  0.66987575136E+02  0.00000000000E+00 0. -1.
         22    1    3    3    0    0  0.12127528247E+02 -0.23362316691E+02 -0.61314857820E+03  0.61371333189E+03  0.00000000000E+00 0. -1.
</event>
<event>
 7    1  0.5127424E-006  0.3757443E+02  0.7818608E-02  0.1592694E+00
          2   -1    0    0  502    0  0.00000000000E+00  0.00000000000E+00  0.29943884591E+03  0.29943884591E+03  0.00000000000E+00 0. -1.
          1   -1    0    0  501    0 -0.00000000000E+00 -0.00000000000E+00 -0.11261515899E+03  0.11261515899E+03  0.00000000000E+00 0. -1.
         25    2    1    2    0    0  0.43491549089E+02  0.10994123183E+02  0.84055613200E+02  0.15717090862E+03  0.12499985127E+03 0.  0.
          2    1    1    2  501    0 -0.18197219370E+02  0.16771923096E+02 -0.71994888785E+02  0.76129496309E+02  0.00000000000E+00 0. -1.
          1    1    1    2  502    0 -0.25294329720E+02 -0.27766046279E+02  0.17476296250E+03  0.17875359998E+03  0.00000000000E+00 0. -1.
         22    1    3    3    0    0 -0.18697489193E+02  0.36872274759E+02 -0.89849271978E+01  0.42307087643E+02  0.00000000000E+00 0. -1.
         22    1    3    3    0    0  0.62189038282E+02 -0.25878151577E+02  0.93040540397E+02  0.11486382097E+03  0.00000000000E+00 0. -1.
</event>
<event>
 7    1  0.5127424E-006  0.5080992E+02  0.7818608E-02  0.1576034E+00
          2   -1    0    0  502    0  0.00000000000E+00  0.00000000000E+00  0.56771078295E+03  0.56771078295E+03  0.00000000000E+00 0. -1.
          1   -1    0    0  501    0 -0.00000000000E+00 -0.00000000000E+00 -0.34998793692E+02  0.34998793692E+02  0.00000000000E+00 0. -1.
         25    2    1    2    0    0  0.30626988260E+02  0.21042883808E+02  0.15039243671E+03  0.19905287376E+03  0.12499338449E+03 0.  0.
          2    1    1    2  501    0 -0.49704826780E+02 -0.27897673314E+02  0.68194595515E+02  0.88878303534E+02  0.00000000000E+00 0. -1.
          1    1    1    2  502    0  0.19077838520E+02  0.68547895069E+01  0.31412495704E+03  0.31477839935E+03  0.00000000000E+00 0. -1.
         22    1    3    3    0    0  0.52158799813E+02 -0.39320067387E+02  0.63645333887E+02  0.91199433237E+02  0.00000000000E+00 0. -1.
         22    1    3    3    0    0 -0.21531811553E+02  0.60362951194E+02  0.86747102822E+02  0.10785344053E+03  0.00000000000E+00 0. -1.
</event>
<event>
 7    1  0.5127424E-006  0.4517860E+02  0.7818608E-02  0.1593344E+00
          2   -1    0    0  502    0  0.00000000000E+00  0.00000000000E+00  0.69413500278E+02  0.69413500278E+02  0.00000000000E+00 0. -1.
          1   -1    0    0  501    0 -0.00000000000E+00 -0.00000000000E+00 -0.63757206509E+03  0.63757206509E+03  0.00000000000E+00 0. -1.
         25    2    1    2    0    0  0.27239139808E+02  0.37753673906E+01 -0.39186952047E+03  0.41224065961E+03  0.12499766490E+03 0.  0.
          2    1    1    2  501    0  0.14553900473E+02  0.14438626044E+02 -0.22621131442E+03  0.22713839111E+03  0.00000000000E+00 0. -1.
          1    1    1    2  502    0 -0.41793040280E+02 -0.18213993435E+02  0.49922270081E+02  0.67606514648E+02  0.00000000000E+00 0. -1.
         22    1    3    3    0    0 -0.21250258711E+02 -0.10093350805E+02 -0.76688083621E+01  0.24743885052E+02  0.00000000000E+00 0.  1.
         22    1    3    3    0    0  0.48489398519E+02  0.13868718195E+02 -0.38420071211E+03  0.38749677456E+03  0.00000000000E+00 0.  1.
</event>
<event>
 7    1  0.5127424E-006  0.2929408E+02  0.7818608E-02  0.1655842E+00
          2   -1    0    0  502    0  0.00000000000E+00  0.00000000000E+00  0.16700357360E+04  0.16700357360E+04  0.00000000000E+00 0. -1.
          1   -1    0    0  501    0 -0.00000000000E+00 -0.00000000000E+00 -0.71911494009E+03  0.71911494009E+03  0.00000000000E+00 0. -1.
         25    2    1    2    0    0 -0.17848226505E+02 -0.14789921101E+02  0.18522458318E+03  0.22465875583E+03  0.12500443753E+03 0.  0.
          2    1    1    2  501    0  0.13510064227E+01  0.29283448482E+02 -0.69900834207E+03  0.69962276111E+03  0.00000000000E+00 0. -1.
          1    1    1    2  502    0  0.16497220083E+02 -0.14493527381E+02  0.14647045548E+04  0.14648691592E+04  0.00000000000E+00 0. -1.
         22    1    3    3    0    0  0.37614132877E+01 -0.68560909799E+02  0.90265629839E+02  0.11341353761E+03  0.00000000000E+00 0. -1.
         22    1    3    3    0    0 -0.21609639793E+02  0.53770988698E+02  0.94958953342E+02  0.11124521822E+03  0.00000000000E+00 0. -1.
</event>
<event>
 7    1  0.5127424E-006  0.7290893E+02  0.7818608E-02  0.1385128E+00
          2   -1    0    0  502    0  0.00000000000E+00  0.00000000000E+00  0.74323835604E+03  0.74323835604E+03  0.00000000000E+00 0. -1.
          1   -1    0    0  501    0 -0.00000000000E+00 -0.00000000000E+00 -0.31326444026E+03  0.31326444026E+03  0.00000000000E+00 0. -1.
         25    2    1    2    0    0  0.12152568573E+02 -0.15122584317E+02  0.21290001288E+03  0.24764372496E+03  0.12499848619E+03 0.  0.
          2    1    1    2  501    0 -0.41668727737E+02  0.61141523564E+02 -0.28977400183E+03  0.29907113018E+03  0.00000000000E+00 0. -1.
          1    1    1    2  502    0  0.29516159164E+02 -0.46018939247E+02  0.50684790472E+03  0.50978794115E+03  0.00000000000E+00 0. -1.
         22    1    3    3    0    0  0.55747101533E+02 -0.27769126262E+01  0.18764734574E+03  0.19577276863E+03  0.00000000000E+00 0. -1.
         22    1    3    3    0    0 -0.43594532960E+02 -0.12345671691E+02  0.25252667137E+02  0.51870956334E+02  0.00000000000E+00 0. -1.
</event>
<event>
 7    1  0.5127424E-006  0.5893688E+02  0.7818608E-02  0.1455779E+00
          2   -1    0    0  502    0  0.00000000000E+00  0.00000000000E+00  0.42993403303E+03  0.42993403303E+03  0.00000000000E+00 0. -1.
          1   -1    0    0  501    0 -0.00000000000E+00 -0.00000000000E+00 -0.25814500385E+03  0.25814500385E+03  0.00000000000E+00 0. -1.
         25    2    1    2    0    0 -0.33268124292E+02 -0.17084540336E+02 -0.55120651998E+02  0.14164199929E+03  0.12500208028E+03 0.  0.
          2    1    1    2  501    0  0.28660627390E+02  0.56094457753E+02 -0.15250081490E+03  0.16499854029E+03  0.00000000000E+00 0. -1.
          1    1    1    2  502    0  0.46074969020E+01 -0.39009917417E+02  0.37941049608E+03  0.38143849730E+03  0.00000000000E+00 0. -1.
         22    1    3    3    0    0  0.24752778240E+02 -0.52831036125E+02 -0.82302827407E+01  0.58919911428E+02  0.00000000000E+00 0.  1.
         22    1    3    3    0    0 -0.58020902532E+02  0.35746495789E+02 -0.46890369257E+02  0.82722087866E+02  0.00000000000E+00 0.  1.
</event>
<event>
 7    1  0.5127424E-006  0.4711071E+02  0.7818608E-02  0.1489700E+00
          2   -1    0    0  502    0  0.00000000000E+00  0.00000000000E+00  0.11818608552E+04  0.11818608552E+04  0.00000000000E+00 0. -1.
          1   -1    0    0  501    0 -0.00000000000E+00 -0.00000000000E+00 -0.25109064879E+03  0.25109064879E+03  0.00000000000E+00 0. -1.
         25    2    1    2    0    0 -0.18124772384E+02 -0.14245523587E+02  0.22663249017E+03  0.25984467907E+03  0.12500211729E+03 0.  0.
          2    1    1    2  501    0 -0.15709475802E+01  0.47415120685E+02 -0.23168351542E+03  0.23649083040E+03  0.00000000000E+00 0. -1.
          1    1    1    2  502    0  0.19695719964E+02 -0.33169597098E+02  0.93582123166E+03  0.93661599451E+03  0.00000000000E+00 0. -1.
         22    1    3    3    0    0  0.15778748797E+02  0.13020592828E+02 -0.74361125151E+01  0.21766959377E+02  0.00000000000E+00 0.  1.
         22    1    3    3    0    0 -0.33903521181E+02 -0.27266116415E+02  0.23406860268E+03  0.23807771970E+03  0.00000000000E+00 0.  1.
</event>
<event>
 7    1  0.5127424E-006  0.1521100E+03  0.7818608E-02  0.1283025E+00
          2   -1    0    0  502    0  0.00000000000E+00  0.00000000000E+00  0.15484694815E+03  0.15484694815E+03  0.00000000000E+00 0. -1.
          1   -1    0    0  501    0 -0.00000000000E+00 -0.00000000000E+00 -0.29130335276E+04  0.29130335276E+04  0.00000000000E+00 0. -1.
         25    2    1    2    0    0 -0.19373054417E+02 -0.15267884185E+03 -0.21227571277E+04  0.21319964736E+04  0.12499998438E+03 0.  0.
          2    1    1    2  501    0 -0.44665209110E+02  0.15097607621E+03 -0.77048427049E+03  0.78640623571E+03  0.00000000000E+00 0. -1.
          1    1    1    2  502    0  0.64038263526E+02  0.17027656408E+01  0.13505481874E+03  0.14947776648E+03  0.00000000000E+00 0. -1.
         22    1    3    3    0    0  0.27927653297E+02 -0.14660476084E+03 -0.17076014232E+04  0.17141107112E+04  0.00000000000E+00 0.  1.
         22    1    3    3    0    0 -0.47300707714E+02 -0.60740810095E+01 -0.41515570450E+03  0.41788576237E+03  0.00000000000E+00 0.  1.
</event>
<event>
 7    1  0.5127424E-006  0.1836261E+03  0.7818608E-02  0.1258502E+00
          2   -1    0    0  502    0  0.00000000000E+00  0.00000000000E+00  0.29209504658E+04  0.29209504658E+04  0.00000000000E+00 0. -1.
          1   -1    0    0  501    0 -0.00000000000E+00 -0.00000000000E+00 -0.36797670755E+03  0.36797670755E+03  0.00000000000E+00 0. -1.
         25    2    1    2    0    0  0.88194677085E+02  0.13538761927E+03  0.36816516214E+03  0.42104708149E+03  0.12500779857E+03 0.  0.
          2    1    1    2  501    0 -0.15015078006E+03 -0.10923767396E+03 -0.31581268871E+03  0.36635471952E+03  0.00000000000E+00 0. -1.
          1    1    1    2  502    0  0.61956102975E+02 -0.26149945313E+02  0.25006212848E+04  0.25015253723E+04  0.00000000000E+00 0. -1.
         22    1    3    3    0    0 -0.26419931112E+02  0.49378191802E+01  0.26280309811E+02  0.37590550700E+02  0.00000000000E+00 0.  1.
         22    1    3    3    0    0  0.11461460820E+03  0.13044980009E+03  0.34188485233E+03  0.38345653079E+03  0.00000000000E+00 0.  1.
</event>
<event>
 7    1  0.5127424E-006  0.1045093E+03  0.7818608E-02  0.1313980E+00
          2   -1    0    0  502    0  0.00000000000E+00  0.00000000000E+00  0.15893087523E+04  0.15893087523E+04  0.00000000000E+00 0. -1.
          1   -1    0    0  501    0 -0.00000000000E+00 -0.00000000000E+00 -0.84987634183E+03  0.84987634183E+03  0.00000000000E+00 0. -1.
         25    2    1    2    0    0  0.10494353066E+02  0.59240117656E+02  0.38984355138E+02  0.14409652919E+03  0.12499802715E+03 0.  0.
          2    1    1    2  501    0 -0.60856101733E+02  0.34677507126E+02 -0.79388073083E+03  0.79696462243E+03  0.00000000000E+00 0. -1.
          1    1    1    2  502    0  0.50361748667E+02 -0.93917624782E+02  0.14943287862E+04  0.14981239425E+04  0.00000000000E+00 0. -1.
         22    1    3    3    0    0 -0.51405939858E+02  0.45636648275E+02 -0.17402314843E+01  0.68762655010E+02  0.00000000000E+00 0. -1.
         22    1    3    3    0    0  0.61900292923E+02  0.13603469381E+02  0.40724586622E+02  0.75333874178E+02  0.00000000000E+00 0. -1.
</event>
<event>
 7    1  0.5127424E-006  0.1660254E+03  0.7818608E-02  0.1189599E+00
          2   -1    0    0  502    0  0.00000000000E+00  0.00000000000E+00  0.32562399741E+04  0.32562399741E+04  0.00000000000E+00 0. -1.
          1   -1    0    0  501    0 -0.00000000000E+00 -0.00000000000E+00 -0.23992741158E+03  0.23992741158E+03  0.00000000000E+00 0. -1.
         25    2    1    2    0    0 -0.93178150213E+01 -0.19936986553E+02  0.42361799055E+02  0.13381200082E+03  0.12500729753E+03 0.  0.
          2    1    1    2  501    0 -0.16595396558E+02 -0.15175713121E+03 -0.16142259744E+03  0.22217760694E+03  0.00000000000E+00 0. -1.
          1    1    1    2  502    0  0.25913211580E+02  0.17169411776E+03  0.31353733609E+04  0.31401777779E+04  0.00000000000E+00 0. -1.
         22    1    3    3    0    0 -0.96670078338E+01 -0.56886062959E+02  0.67741050388E+02  0.88984971243E+02  0.00000000000E+00 0.  1.
         22    1    3    3    0    0  0.34919281252E+00  0.36949076406E+02 -0.25379251333E+02  0.44827029582E+02  0.00000000000E+00 0.  1.
</event>
<event>
 7    1  0.5127424E-006  0.1023866E+03  0.7818608E-02  0.1288775E+00
          2   -1    0    0  502    0  0.00000000000E+00  0.00000000000E+00  0.45517578335E+02  0.45517578335E+02  0.00000000000E+00 0. -1.
          1   -1    0    0  501    0 -0.00000000000E+00 -0.00000000000E+00 -0.11885906039E+04  0.11885906039E+04  0.00000000000E+00 0. -1.
         25    2    1    2    0    0  0.63930959749E+02  0.29419960165E+02 -0.43513927841E+03  0.45817501397E+03  0.12500180054E+03 0.  0.
          2    1    1    2  501    0 -0.47416192720E+02 -0.11804516695E+03 -0.66320631213E+03  0.67529665276E+03  0.00000000000E+00 0. -1.
          1    1    1    2  502    0 -0.16514767029E+02  0.88625206784E+02 -0.44727434997E+02  0.10063651549E+03  0.00000000000E+00 0. -1.
         22    1    3    3    0    0 -0.36667447430E+02 -0.36326704213E+01 -0.13339691277E+03  0.13839232035E+03  0.00000000000E+00 0.  1.
         22    1    3    3    0    0  0.10059840718E+03  0.33052630587E+02 -0.30174236564E+03  0.31978269362E+03  0.00000000000E+00 0.  1.
</event>
<event>
 7    1  0.5127424E-006  0.3138776E+02  0.7818608E-02  0.1597964E+00
          2   -1    0    0  502    0  0.00000000000E+00  0.00000000000E+00  0.33168139105E+02  0.33168139105E+02  0.00000000000E+00 0. -1.
          1   -1    0    0  501    0 -0.00000000000E+00 -0.00000000000E+00 -0.59737232956E+03  0.59737232956E+03  0.00000000000E+00 0. -1.
         25    2    1    2    0    0  0.11184719030E+01 -0.75638282189E+01 -0.47804435060E+03  0.49417592988E+03  0.12499994421E+03 0.  0.
          2    1    1    2  501    0 -0.25471663814E+02 -0.13213926990E+02 -0.98090221792E+02  0.10220129713E+03  0.00000000000E+00 0. -1.
          1    1    1    2  502    0  0.24353191911E+02  0.20777755209E+02  0.11930381933E+02  0.34163241662E+02  0.00000000000E+00 0. -1.
         22    1    3    3    0    0 -0.12365713569E+02  0.53937143166E+02 -0.30620877411E+03  0.31116866749E+03  0.00000000000E+00 0. -1.
         22    1    3    3    0    0  0.13484185472E+02 -0.61500971385E+02 -0.17183557649E+03  0.18300726239E+03  0.00000000000E+00 0. -1.
</event>
<event>
 7    1  0.5127424E-006  0.1276726E+03  0.7818608E-02  0.1425828E+00
          2   -1    0    0  502    0  0.00000000000E+00  0.00000000000E+00  0.76850253575E+03  0.76850253575E+03  0.00000000000E+00 0. -1.
          1   -1    0    0  501    0 -0.00000000000E+00 -0.00000000000E+00 -0.49772026512E+02  0.49772026512E+02  0.00000000000E+00 0. -1.
         25    2    1    2    0    0 -0.10740066928E+03  0.50245040687E+02  0.27350281420E+03  0.32324538691E+03  0.12499729160E+03 0.  0.
          2    1    1    2  501    0  0.11238528872E+03 -0.72366894705E+02  0.15821356145E+03  0.20712062088E+03  0.00000000000E+00 0. -1.
          1    1    1    2  502    0 -0.49846194336E+01  0.22121854018E+02  0.28701413359E+03  0.28790855447E+03  0.00000000000E+00 0. -1.
         22    1    3    3    0    0 -0.12899257174E+03  0.13535381537E+02  0.20612408631E+03  0.24353527275E+03  0.00000000000E+00 0. -1.
         22    1    3    3    0    0  0.21591902460E+02  0.36709659150E+02  0.67378727891E+02  0.79710114157E+02  0.00000000000E+00 0. -1.
</event>
<event>
 7    1  0.5127424E-006  0.7562985E+02  0.7818608E-02  0.1362586E+00
          2   -1    0    0  502    0  0.00000000000E+00  0.00000000000E+00  0.14238293768E+04  0.14238293768E+04  0.00000000000E+00 0. -1.
          1   -1    0    0  501    0 -0.00000000000E+00 -0.00000000000E+00 -0.33669153643E+02  0.33669153643E+02  0.00000000000E+00 0. -1.
         25    2    1    2    0    0 -0.24145641665E+02  0.22101596391E+02  0.33557695087E+03  0.35959246211E+03  0.12499342493E+03 0.  0.
          2    1    1    2  501    0  0.87262698193E+02 -0.15619973185E+02  0.74573759054E+02  0.11584475645E+03  0.00000000000E+00 0. -1.
          1    1    1    2  502    0 -0.63117056528E+02 -0.64816232056E+01  0.98000951321E+03  0.98206131186E+03  0.00000000000E+00 0. -1.
         22    1    3    3    0    0 -0.43712160514E+02  0.52040909271E+02  0.30517466942E+03  0.31265090448E+03  0.00000000000E+00 0.  1.
         22    1    3    3    0    0  0.19566518849E+02 -0.29939312881E+02  0.30402281449E+02  0.46941557632E+02  0.00000000000E+00 0.  1.
</event>
<event>
 7    1  0.5127424E-006  0.6698973E+02  0.7818608E-02  0.1399741E+00
          2   -1    0    0  502    0  0.00000000000E+00  0.00000000000E+00  0.16880201586E+04  0.16880201586E+04  0.00000000000E+00 0. -1.
          1   -1    0    0  501    0 -0.00000000000E+00 -0.00000000000E+00 -0.28357785864E+04  0.28357785864E+04  0.00000000000E+00 0. -1.
         25    2    1    2    0    0  0.64037840652E+02  0.13640385868E+02 -0.74628805201E+01  0.14129564757E+03  0.12498744047E+03 0.  0.
          2    1    1    2  501    0 -0.54979499709E+02  0.38510790651E+02 -0.27605591381E+04  0.27613751251E+04  0.00000000000E+00 0. -1.
          1    1    1    2  502    0 -0.90583409430E+01 -0.52151176519E+02  0.16202635909E+04  0.16211279724E+04  0.00000000000E+00 0. -1.
         22    1    3    3    0    0  0.10862206844E+02 -0.21527716440E+02  0.49972696459E+02  0.55486038820E+02  0.00000000000E+00 0. -1.
         22    1    3    3    0    0  0.53175633808E+02  0.35168102308E+02 -0.57435576979E+02  0.85809608749E+02  0.00000000000E+00 0. -1.
</event>
<event>
 7    1  0.5127424E-006  0.1001870E+03  0.7818608E-02  0.1298288E+00
          2   -1    0    0  502    0  0.00000000000E+00  0.00000000000E+00  0.28520517140E+04  0.28520517140E+04  0.00000000000E+00 0. -1.
          1   -1    0    0  501    0 -0.00000000000E+00 -0.00000000000E+00 -0.13213131832E+02  0.13213131832E+02  0.00000000000E+00 0. -1.
         25    2    1    2    0    0  0.88807351819E+02 -0.41099879876E+02  0.17299036469E+04  0.17371723667E+04  0.12500103228E+03 0.  0.
          2    1    1    2  501    0  0.27287093210E+02  0.79782052012E+02  0.42151219380E+03  0.42986310705E+03  0.00000000000E+00 0. -1.
          1    1    1    2  502    0 -0.11609444503E+03 -0.38682172136E+02  0.68742274145E+03  0.69822937211E+03  0.00000000000E+00 0. -1.
         22    1    3    3    0    0  0.71328195187E+02 -0.84039287472E+02  0.10774830182E+04  0.10831066281E+04  0.00000000000E+00 0.  1.
         22    1    3    3    0    0  0.17479156632E+02  0.42939407596E+02  0.65242062873E+03  0.65406573862E+03  0.00000000000E+00 0.  1.
</event>
<event>
 7    1  0.5127424E-006  0.8461713E+02  0.7818608E-02  0.1460862E+00
          2   -1    0    0  502    0  0.00000000000E+00  0.00000000000E+00  0.22553087366E+04  0.22553087366E+04  0.00000000000E+00 0. -1.
          1   -1    0    0  501    0 -0.00000000000E+00 -0.00000000000E+00 -0.46504505770E+02  0.46504505770E+02  0.00000000000E+00 0. -1.
         25    2    1    2    0    0 -0.59073667721E+02 -0.13138196207E+02  0.99033855465E+03  0.10000290330E+04  0.12500121469E+03 0.  0.
          2    1    1    2  501    0  0.81157715760E+02  0.27541241047E+02  0.27138117081E+01  0.85746484241E+02  0.00000000000E+00 0. -1.
          1    1    1    2  502    0 -0.22084048039E+02 -0.14403044839E+02  0.12157518644E+04  0.12160377250E+04  0.00000000000E+00 0. -1.
         22    1    3    3    0    0  0.20720331829E+02 -0.16974281754E+02  0.64560394227E+03  0.64615935238E+03  0.00000000000E+00 0. -1.
         22    1    3    3    0    0 -0.79793999550E+02  0.38360855471E+01  0.34473461238E+03  0.35386968066E+03  0.00000000000E+00 0. -1.
</event>
<event>
 7    1  0.5127424E-006  0.9565495E+02  0.7818608E-02  0.1322039E+00
          2   -1    0    0  502    0  0.00000000000E+00  0.00000000000E+00  0.84751695547E+03  0.84751695547E+03  0.00000000000E+00 0. -1.
          1   -1    0    0  501    0 -0.00000000000E+00 -0.00000000000E+00 -0.43527056203E+03  0.43527056203E+03  0.00000000000E+00 0. -1.
         25    2    1    2    0    0  0.14522628892E+03  0.68814948306E+02  0.81555327287E+02  0.21932286650E+03  0.12500030502E+03 0.  0.
          2    1    1    2  501    0 -0.90101181088E+02 -0.23760781947E+02 -0.35859889961E+03  0.37050771705E+03  0.00000000000E+00 0. -1.
          1    1    1    2  502    0 -0.55125107836E+02 -0.45054166358E+02  0.68928996576E+03  0.69295693395E+03  0.00000000000E+00 0. -1.
         22    1    3    3    0    0  0.10234555303E+03  0.30832147312E+02 -0.14111989596E+02  0.10781642632E+03  0.00000000000E+00 0.  1.
         22    1    3    3    0    0  0.42880735890E+02  0.37982800994E+02  0.95667316883E+02  0.11150644018E+03  0.00000000000E+00 0.  1.
</event>
<event>
 7    1  0.5127424E-006  0.4441906E+02  0.7818608E-02  0.1478642E+00
          2   -1    0    0  502    0  0.00000000000E+00  0.00000000000E+00  0.13958628204E+04  0.13958628204E+04  0.00000000000E+00 0. -1.
          1   -1    0    0  501    0 -0.00000000000E+00 -0.00000000000E+00 -0.41922171443E+02  0.41922171443E+02  0.00000000000E+00 0. -1.
         25    2    1    2    0    0 -0.15565892953E+02 -0.48562590446E+02  0.20583622295E+03  0.24615354696E+03  0.12498958271E+03 0.  0.
          2    1    1    2  501    0  0.43501846455E+02  0.14287003402E+02  0.32280903621E+01  0.45901521528E+02  0.00000000000E+00 0. -1.
          1    1    1    2  502    0 -0.27935953502E+02  0.34275587044E+02  0.11448763356E+04  0.11457299233E+04  0.00000000000E+00 0. -1.
         22    1    3    3    0    0 -0.12647443236E+02 -0.15388177018E+01  0.19797910057E+03  0.19838863385E+03  0.00000000000E+00 0.  1.
         22    1    3    3    0    0 -0.29184497169E+01 -0.47023772744E+02  0.78571223861E+01  0.47764913106E+02  0.00000000000E+00 0.  1.
</event>
<event>
 7    1  0.5127424E-006  0.3424044E+02  0.7818608E-02  0.1576958E+00
          2   -1    0    0  502    0  0.00000000000E+00  0.00000000000E+00  0.45162177138E+04  0.45162177138E+04  0.00000000000E+00 0. -1.
          1   -1    0    0  501    0 -0.00000000000E+00 -0.00000000000E+00 -0.25053856041E+01  0.25053856041E+01  0.00000000000E+00 0. -1.
         25    2    1    2    0    0 -0.47992331598E+01 -0.12087646271E+01  0.28751731073E+04  0.28778929457E+04  0.12499166460E+03 0.  0.
          2    1    1    2  501    0  0.70272855117E+01 -0.33511566366E+02  0.31900456357E+03  0.32083690468E+03  0.00000000000E+00 0. -1.
          1    1    1    2  502    0 -0.22280523519E+01  0.34720330994E+02  0.13195346573E+04  0.13199932490E+04  0.00000000000E+00 0. -1.
         22    1    3    3    0    0  0.13792343769E+02 -0.53139246889E+02  0.21188777342E+04  0.21195888424E+04  0.00000000000E+00 0.  1.
         22    1    3    3    0    0 -0.18591576929E+02  0.51930482262E+02  0.75629537307E+03  0.75830410328E+03  0.00000000000E+00 0.  1.
</event>
<event>
 7    1  0.5127424E-006  0.1365626E+03  0.7818608E-02  0.1225895E+00
          2   -1    0    0  502    0  0.00000000000E+00  0.00000000000E+00  0.80546306618E+03  0.80546306618E+03  0.00000000000E+00 0. -1.
          1   -1    0    0  501    0 -0.00000000000E+00 -0.00000000000E+00 -0.72301902555E+03  0.72301902555E+03  0.00000000000E+00 0. -1.
         25    2    1    2    0    0 -0.72550953185E+02  0.22963873969E+03 -0.82412103852E+02  0.28357010877E+03  0.12499064027E+03 0.  0.
          2    1    1    2  501    0  0.80741700143E+02 -0.96436526783E+02 -0.52623324753E+03  0.54105513272E+03  0.00000000000E+00 0. -1.
          1    1    1    2  502    0 -0.81907469583E+01 -0.13320221290E+03  0.69108939202E+03  0.70385685023E+03  0.00000000000E+00 0. -1.
         22    1    3    3    0    0 -0.80046851516E+02  0.23242633120E+03 -0.99113397241E+02  0.26505275586E+03  0.00000000000E+00 0.  1.
         22    1    3    3    0    0  0.74958983314E+01 -0.27875915154E+01  0.16701293389E+02  0.18517352919E+02  0.00000000000E+00 0.  1.
</event>
<event>
 7    1  0.5127424E-006  0.1503187E+03  0.7818608E-02  0.1354117E+00
          2   -1    0    0  502    0  0.00000000000E+00  0.00000000000E+00  0.64940537390E+02  0.64940537390E+02  0.00000000000E+00 0. -1.
          1   -1    0    0  501    0 -0.00000000000E+00 -0.00000000000E+00 -0.14541060480E+04  0.14541060480E+04  0.00000000000E+00 0. -1.
         25    2    1    2    0    0  0.16069683826E+01 -0.16745190356E+03 -0.72858892312E+03  0.75796411449E+03  0.12500023045E+03 0.  0.
          2    1    1    2  501    0  0.26306688728E+02  0.21985028824E+02 -0.60012045562E+03  0.60109894745E+03  0.00000000000E+00 0. -1.
          1    1    1    2  502    0 -0.27913657111E+02  0.14546687474E+03 -0.60456131891E+02  0.15998352347E+03  0.00000000000E+00 0. -1.
         22    1    3    3    0    0 -0.14984870507E+02  0.13043531224E+02 -0.28160081888E+02  0.34462592225E+02  0.00000000000E+00 0. -1.
         22    1    3    3    0    0  0.16591838890E+02 -0.18049543479E+03 -0.70042884123E+03  0.72350152227E+03  0.00000000000E+00 0. -1.
</event>
<event>
 7    1  0.5127424E-006  0.5133173E+02  0.7818608E-02  0.1440506E+00
          2   -1    0    0  502    0  0.00000000000E+00  0.00000000000E+00  0.50007301931E+03  0.50007301931E+03  0.00000000000E+00 0. -1.
          1   -1    0    0  501    0 -0.00000000000E+00 -0.00000000000E+00 -0.29649398201E+03  0.29649398201E+03  0.00000000000E+00 0. -1.
         25    2    1    2    0    0  0.71901226600E+00 -0.19978354886E+02  0.29270728079E+03  0.31890819365E+03  0.12500092842E+03 0.  0.
          2    1    1    2  501    0 -0.34233375238E+02 -0.37108474677E+02 -0.27539194556E+03  0.27998158253E+03  0.00000000000E+00 0. -1.
          1    1    1    2  502    0  0.33514362972E+02  0.57086829563E+02  0.18626370206E+03  0.19767722515E+03  0.00000000000E+00 0. -1.
         22    1    3    3    0    0  0.58457241703E+02 -0.24940243201E+02  0.10788476704E+03  0.12521336909E+03  0.00000000000E+00 0. -1.
         22    1    3    3    0    0 -0.57738229437E+02  0.49618883156E+01  0.18482251375E+03  0.19369482456E+03  0.00000000000E+00 0. -1.
</event>
<event>
 7    1  0.5127424E-006  0.4225462E+02  0.7818608E-02  0.1606353E+00
          2   -1    0    0  502    0  0.00000000000E+00  0.00000000000E+00  0.76820983917E+03  0.76820983917E+03  0.00000000000E+00 0. -1.
          1   -1    0    0  501    0 -0.00000000000E+00 -0.00000000000E+00 -0.70035639348E+02  0.70035639348E+02  0.00000000000E+00 0. -1.
         25    2    1    2    0    0 -0.34671309619E+02 -0.35856400441E+02  0.61011390508E+03  0.62478159503E+03  0.12500113261E+03 0.  0.
          2    1    1    2  501    0  0.39038157081E+02  0.16063232353E+02 -0.54799342500E+02  0.69173499842E+02  0.00000000000E+00 0. -1.
          1    1    1    2  502    0 -0.43668474613E+01  0.19793168088E+02  0.14285963724E+03  0.14429038364E+03  0.00000000000E+00 0. -1.
         22    1    3    3    0    0 -0.19345915801E+02 -0.36755541727E+02  0.60784570479E+03  0.60926319037E+03  0.00000000000E+00 0. -1.
         22    1    3    3    0    0 -0.15325393818E+02  0.89914128565E+00  0.22682002912E+01  0.15518404663E+02  0.00000000000E+00 0. -1.
</event>
<event>
 7    1  0.5127424E-006  0.4302983E+02  0.7818608E-02  0.1493549E+00
          2   -1    0    0  502    0  0.00000000000E+00  0.00000000000E+00  0.79461489944E+02  0.79461489944E+02  0.00000000000E+00 0. -1.
          1   -1    0    0  501    0 -0.00000000000E+00 -0.00000000000E+00 -0.48111012616E+03  0.48111012616E+03  0.00000000000E+00 0. -1.
         25    2    1    2    0    0  0.22310186510E+02 -0.28993462101E+02 -0.11479435605E+02  0.13075020846E+03  0.12500189720E+03 0.  0.
          2    1    1    2  501    0 -0.35309360908E+02 -0.21073766206E+02 -0.37308756133E+03  0.37534675036E+03  0.00000000000E+00 0. -1.
          1    1    1    2  502    0  0.12999174399E+02  0.50067228307E+02 -0.17081639283E+02  0.54474657282E+02  0.00000000000E+00 0. -1.
         22    1    3    3    0    0  0.59664495251E+02  0.24945490388E+01 -0.42124521531E+02  0.73079067336E+02  0.00000000000E+00 0. -1.
         22    1    3    3    0    0 -0.37354308741E+02 -0.31488011140E+02  0.30645085926E+02  0.57671141124E+02  0.00000000000E+00 0. -1.
</event>
<event>
 7    1  0.5127424E-006  0.2617540E+03  0.7818608E-02  0.1240852E+00
          2   -1    0    0  502    0  0.00000000000E+00  0.00000000000E+00  0.37260462711E+03  0.37260462711E+03  0.00000000000E+00 0. -1.
          1   -1    0    0  501    0 -0.00000000000E+00 -0.00000000000E+00 -0.39044345420E+03  0.39044345420E+03  0.00000000000E+00 0. -1.
         25    2    1    2    0    0  0.22327020681E+02  0.24589738557E+03  0.17902382332E+03  0.32960174630E+03  0.12499504697E+03 0.  0.
          2    1    1    2  501    0 -0.47714360995E+01  0.56075289726E+02 -0.10189925179E+03  0.11640731178E+03  0.00000000000E+00 0. -1.
          1    1    1    2  502    0 -0.17555584582E+02 -0.30197267529E+03 -0.94963398615E+02  0.31703902323E+03  0.00000000000E+00 0. -1.
         22    1    3    3    0    0 -0.35125934138E+02  0.18902193099E+03  0.10067525114E+03  0.21702218282E+03  0.00000000000E+00 0.  1.
         22    1    3    3    0    0  0.57452954819E+02  0.56875454575E+02  0.78348572178E+02  0.11257956348E+03  0.00000000000E+00 0.  1.
</event>
<event>
 7    1  0.5127424E-006  0.8740425E+02  0.7818608E-02  0.1364473E+00
          2   -1    0    0  502    0  0.00000000000E+00  0.00000000000E+00  0.86495832982E+02  0.86495832982E+02  0.00000000000E+00 0. -1.
          1   -1    0    0  501    0 -0.00000000000E+00 -0.00000000000E+00 -0.50305683160E+03  0.50305683160E+03  0.00000000000E+00 0. -1.
         25    2    1    2    0    0  0.85324861112E+02  0.65669043238E+02 -0.14296269052E+03  0.21830320114E+03  0.12500080633E+03 0.  0.
          2    1    1    2  501    0 -0.52411785367E+02  0.13174087176E+02 -0.28038269161E+03  0.28554335148E+03  0.00000000000E+00 0. -1.
          1    1    1    2  502    0 -0.32913075745E+02 -0.78843130414E+02  0.67843835118E+01  0.85706111965E+02  0.00000000000E+00 0. -1.
         22    1    3    3    0    0  0.45909209696E+02 -0.34387612712E+02 -0.52953964202E+02  0.78065906564E+02  0.00000000000E+00 0.  1.
         22    1    3    3    0    0  0.39415651416E+02  0.10005665595E+03 -0.90008726314E+02  0.14023729457E+03  0.00000000000E+00 0.  1.
</event>
<event>
 7    1  0.5127424E-006  0.6515352E+02  0.7818608E-02  0.1456461E+00
          2   -1    0    0  502    0  0.00000000000E+00  0.00000000000E+00  0.65611842368E+03  0.65611842368E+03  0.00000000000E+00 0. -1.
          1   -1    0    0  501    0 -0.00000000000E+00 -0.00000000000E+00 -0.98761505800E+02  0.98761505800E+02  0.00000000000E+00 0. -1.
         25    2    1    2    0    0 -0.43450636781E+02 -0.42584848374E+01  0.27262275840E+03  0.30307514981E+03  0.12500114202E+03 0.  0.
          2    1    1    2  501    0 -0.23804045886E+02  0.26142941433E+02 -0.76201773494E+02  0.84004739574E+02  0.00000000000E+00 0. -1.
          1    1    1    2  502    0  0.67254682667E+02 -0.21884456596E+02  0.36093593297E+03  0.36780004009E+03  0.00000000000E+00 0. -1.
         22    1    3    3    0    0 -0.34251238848E+02  0.59139402976E+02  0.13981543940E+03  0.15562446286E+03  0.00000000000E+00 0.  1.
         22    1    3    3    0    0 -0.91993979337E+01 -0.63397887813E+02  0.13280731900E+03  0.14745068695E+03  0.00000000000E+00 0.  1.
</event>
<event>
 7    1  0.5127424E-006  0.1107470E+03  0.7818608E-02  0.1352320E+00
          2   -1    0    0  502    0  0.00000000000E+00  0.00000000000E+00  0.22147475947E+03  0.22147475947E+03  0.00000000000E+00 0. -1.
          1   -1    0    0  501    0 -0.00000000000E+00 -0.00000000000E+00 -0.65069653760E+03  0.65069653760E+03  0.00000000000E+00 0. -1.
         25    2    1    2    0    0  0.80076827754E+02  0.13239952983E+03 -0.17743723373E+03  0.26655338681E+03  0.12499920905E+03 0.  0.
          2    1    1    2  501    0 -0.23975491903E+02 -0.40714327588E+02 -0.41089524744E+03  0.41360293163E+03  0.00000000000E+00 0. -1.
          1    1    1    2  502    0 -0.56101335851E+02 -0.91685202241E+02  0.15911070305E+03  0.19201497863E+03  0.00000000000E+00 0. -1.
         22    1    3    3    0    0  0.13244310408E+02 -0.18460016050E+02  0.19729093303E+01  0.22805181911E+02  0.00000000000E+00 0. -1.
         22    1    3    3    0    0  0.66832517346E+02  0.15085954588E+03 -0.17941014306E+03  0.24374820490E+03  0.00000000000E+00 0. -1.
</event>
<event>
 7    1  0.5127424E-006  0.9162280E+02  0.7818608E-02  0.1314730E+00
          2   -1    0    0  502    0  0.00000000000E+00  0.00000000000E+00  0.15485731364E+04  0.15485731364E+04  0.00000000000E+00 0. -1.
          1   -1    0    0  501    0 -0.00000000000E+00 -0.00000000000E+00 -0.10428368194E+04  0.10428368194E+04  0.00000000000E+00 0. -1.
         25    2    1    2    0    0  0.24535825357E+02 -0.13189444183E+03  0.47926194472E+02  0.18952788075E+03  0.12500298778E+03 0.  0.
          2    1    1    2  501    0  0.37976740580E+02  0.83010482617E+02 -0.96878763889E+03  0.97307885719E+03  0.00000000000E+00 0. -1.
          1    1    1    2  502    0 -0.62512565936E+02  0.48883959216E+02  0.14265977614E+04  0.14288032178E+04  0.00000000000E+00 0. -1.
         22    1    3    3    0    0  0.11762616328E+02 -0.12358523481E+03  0.84320674034E+02  0.15007213424E+03  0.00000000000E+00 0.  1.
         22    1    3    3    0    0  0.12773209028E+02 -0.83092070188E+01 -0.36394479562E+02  0.39455746511E+02  0.00000000000E+00 0.  1.
</event>
<event>
 7    1  0.5127424E-006  0.7019983E+02  0.7818608E-02  0.1466541E+00
          2   -1    0    0  502    0  0.00000000000E+00  0.00000000000E+00  0.35351342884E+04  0.35351342884E+04  0.00000000000E+00 0. -1.
          1   -1    0    0  501    0 -0.00000000000E+00 -0.00000000000E+00 -0.61218913613E+02  0.61218913613E+02  0.00000000000E+00 0. -1.
         25    2    1    2    0    0  0.75363453477E+02 -0.61588791499E+02  0.92879430589E+03  0.94220747790E+03  0.12499295736E+03 0.  0.
          2    1    1    2  501    0 -0.27913826608E+02  0.12297847252E+02 -0.49758814686E+02  0.58364016328E+02  0.00000000000E+00 0. -1.
          1    1    1    2  502    0 -0.47449626869E+02  0.49290944247E+02  0.25948798836E+04  0.25957817078E+04  0.00000000000E+00 0. -1.
         22    1    3    3    0    0  0.23762608014E+02 -0.14650147570E+02  0.31037148079E+02  0.41744375960E+02  0.00000000000E+00 0. -1.
         22    1    3    3    0    0  0.51600845464E+02 -0.46938643929E+02  0.89775715781E+03  0.90046310194E+03  0.00000000000E+00 0. -1.
</event>
<event>
 7    1  0.5127424E-006  0.7120679E+02  0.7818608E-02  0.1447500E+00
          2   -1    0    0  502    0  0.00000000000E+00  0.00000000000E+00  0.56175344101E+03  0.56175344101E+03  0.00000000000E+00 0. -1.
          1   -1    0    0  501    0 -0.00000000000E+00 -0.00000000000E+00 -0.49472847581E+03  0.49472847581E+03  0.00000000000E+00 0. -1.
         25    2    1    2    0    0 -0.31020205761E+02 -0.37150767904E+02 -0.60738779918E+02  0.14716672531E+03  0.12500565159E+03 0.  0.
          2    1    1    2  501    0  0.12394205691E+02 -0.32252928282E+02 -0.38751375288E+03  0.38905112311E+03  0.00000000000E+00 0. -1.
          1    1    1    2  502    0  0.18626000070E+02  0.69403696186E+02  0.51527749800E+03  0.52026406840E+03  0.00000000000E+00 0. -1.
         22    1    3    3    0    0 -0.57760180376E+02  0.27281440973E+02 -0.34775281167E+02  0.72731256272E+02  0.00000000000E+00 0.  1.
         22    1    3    3    0    0  0.26739974615E+02 -0.64432208877E+02 -0.25963498750E+02  0.74435469036E+02  0.00000000000E+00 0.  1.
</event>
<event>
 7    1  0.5127424E-006  0.7766882E+02  0.7818608E-02  0.1400716E+00
          2   -1    0    0  502    0  0.00000000000E+00  0.00000000000E+00  0.60038860173E+03  0.60038860173E+03  0.00000000000E+00 0. -1.
          1   -1    0    0  501    0 -0.00000000000E+00 -0.00000000000E+00 -0.13216529681E+04  0.13216529681E+04  0.00000000000E+00 0. -1.
         25    2    1    2    0    0 -0.75424244900E+02  0.54983000883E+02  0.80417387097E+02  0.17551104951E+03  0.12500090099E+03 0.  0.
          2    1    1    2  501    0  0.77020945826E+02 -0.97079856643E+01 -0.12718338205E+04  0.12742008233E+04  0.00000000000E+00 0. -1.
          1    1    1    2  502    0 -0.15967009259E+01 -0.45275015219E+02  0.47015206709E+03  0.47232969697E+03  0.00000000000E+00 0. -1.
         22    1    3    3    0    0 -0.38502628426E+02 -0.12432120582E+02  0.89395188582E+02  0.98124970112E+02  0.00000000000E+00 0. -1.
         22    1    3    3    0    0 -0.36921616473E+02  0.67415121465E+02 -0.89778014850E+01  0.77386079398E+02  0.00000000000E+00 0. -1.
</event>
<event>
 7    1  0.5127424E-006  0.7805745E+02  0.7818608E-02  0.1355791E+00
          2   -1    0    0  502    0  0.00000000000E+00  0.00000000000E+00  0.39920724478E+03  0.39920724478E+03  0.00000000000E+00 0. -1.
          1   -1    0    0  501    0 -0.00000000000E+00 -0.00000000000E+00 -0.29347825962E+03  0.29347825962E+03  0.00000000000E+00 0. -1.
         25    2    1    2    0    0 -0.66161038164E+02  0.11068404111E+03 -0.40450011702E+02  0.18409060883E+03  0.12499963554E+03 0.  0.
          2    1    1    2  501    0  0.56994732613E+02 -0.46240180386E+02 -0.17032606242E+03  0.18546568784E+03  0.00000000000E+00 0. -1.
          1    1    1    2  502    0  0.91663055510E+01 -0.64443860725E+02  0.31650505927E+03  0.32312920773E+03  0.00000000000E+00 0. -1.
         22    1    3    3    0    0 -0.24104697891E+00  0.37532193588E+02  0.41517698498E+02  0.55968231594E+02  0.00000000000E+00 0.  1.
         22    1    3    3    0    0 -0.65919991185E+02  0.73151847523E+02 -0.81967710200E+02  0.12812237724E+03  0.00000000000E+00 0.  1.
</event>
<event>
 7    1  0.5127424E-006  0.5776581E+02  0.7818608E-02  0.1451232E+00
          2   -1    0    0  502    0  0.00000000000E+00  0.00000000000E+00  0.70452859754E+03  0.70452859754E+03  0.00000000000E+00 0. -1.
          1   -1    0    0  501    0 -0.00000000000E+00 -0.00000000000E+00 -0.72856692300E+03  0.72856692300E+03  0.00000000000E+00 0. -1.
         25    2    1    2    0    0 -0.23317716582E+02  0.31156558809E+02 -0.18923311708E+03  0.23010816911E+03  0.12500459922E+03 0.  0.
          2    1    1    2  501    0  0.32177415657E+02  0.26106639289E+02 -0.51683860081E+03  0.51849694500E+03  0.00000000000E+00 0. -1.
          1    1    1    2  502    0 -0.88596990754E+01 -0.57263198098E+02  0.68203339242E+03  0.68449040643E+03  0.00000000000E+00 0. -1.
         22    1    3    3    0    0 -0.27217716130E+01 -0.26151795201E+02  0.48138027561E+01  0.26730079123E+02  0.00000000000E+00 0. -1.
         22    1    3    3    0    0 -0.20595944969E+02  0.57308354010E+02 -0.19404691983E+03  0.20337808998E+03  0.00000000000E+00 0. -1.
</event>
<event>
 7    1  0.5127424E-006  0.8978815E+02  0.7818608E-02  0.1315156E+00
          2   -1    0    0  502    0  0.00000000000E+00  0.00000000000E+00  0.12846305675E+04  0.12846305675E+04  0.00000000000E+00 0. -1.
          1   -1    0    0  501    0 -0.00000000000E+00 -0.00000000000E+00 -0.82072719673E+03  0.82072719673E+03  0.00000000000E+00 0. -1.
         25    2    1    2    0    0 -0.85776848302E+02  0.38574495377E+02  0.42811716451E+03  0.45579164712E+03  0.12496423344E+03 0.  0.
          2    1    1    2  501    0  0.97975578125E+00 -0.80661837566E+02 -0.80220195263E+03  0.80624764481E+03  0.00000000000E+00 0. -1.
          1    1    1    2  502    0  0.84797092520E+02  0.42087342189E+02  0.83798815887E+03  0.84331847227E+03  0.00000000000E+00 0. -1.
         22    1    3    3    0    0 -0.83211124040E+02  0.22572550471E+02  0.43081902955E+03  0.43936163627E+03  0.00000000000E+00 0. -1.
         22    1    3    3    0    0 -0.25657242617E+01  0.16001944906E+02 -0.27018650466E+01  0.16430010849E+02  0.00000000000E+00 0. -1.
</event>
<event>
 7    1  0.5127424E-006  0.6698737E+02  0.7818608E-02  0.1404821E+00
          2   -1    0    0  502    0  0.00000000000E+00  0.00000000000E+00  0.35004393267E+04  0.35004393267E+04  0.00000000000E+00 0. -1.
          1   -1    0    0  501    0 -0.00000000000E+00 -0.00000000000E+00 -0.72548863607E+02  0.72548863607E+02  0.00000000000E+00 0. -1.
         25    2    1    2    0    0  0.28406682327E+02  0.70800147546E+01  0.20148999078E+03  0.23891520177E+03  0.12500076418E+03 0.  0.
          2    1    1    2  501    0  0.30553600312E+02 -0.40651952694E+02 -0.41395932053E+02  0.65572303151E+02  0.00000000000E+00 0. -1.
          1    1    1    2  502    0 -0.58960282640E+02  0.33571937940E+02  0.32677964044E+04  0.32685006854E+04  0.00000000000E+00 0. -1.
         22    1    3    3    0    0  0.61759710212E+02  0.20891006310E+02  0.47280083234E+02  0.80536340994E+02  0.00000000000E+00 0.  1.
         22    1    3    3    0    0 -0.33353027885E+02 -0.13810991555E+02  0.15420990754E+03  0.15837886078E+03  0.00000000000E+00 0.  1.
</event>
<event>
 7    1  0.5127424E-006  0.7884659E+02  0.7818608E-02  0.1478275E+00
          2   -1    0    0  502    0  0.00000000000E+00  0.00000000000E+00  0.55398935656E+02  0.55398935656E+02  0.00000000000E+00 0. -1.
          1   -1    0    0  501    0 -0.00000000000E+00 -0.00000000000E+00 -0.92835982769E+03  0.92835982769E+03  0.00000000000E+00 0. -1.
         25    2    1    2    0    0 -0.31438290330E+02  0.87832214842E+02 -0.12895948573E+03  0.20238357093E+03  0.12500278700E+03 0.  0.
          2    1    1    2  501    0  0.19270380228E+02 -0.15888036228E+02 -0.69036455287E+03  0.69081617896E+03  0.00000000000E+00 0. -1.
          1    1    1    2  502    0  0.12167910103E+02 -0.71944178615E+02 -0.53636853426E+02  0.90559013457E+02  0.00000000000E+00 0. -1.
         22    1    3    3    0    0 -0.50290385178E+02  0.72386224731E+02 -0.19538053423E+02  0.90280805843E+02  0.00000000000E+00 0.  1.
         22    1    3    3    0    0  0.18852094848E+02  0.15445990111E+02 -0.10942143231E+03  0.11210276508E+03  0.00000000000E+00 0.  1.
</event>
<event>
 7    1  0.5127424E-006  0.1019305E+03  0.7818608E-02  0.1296497E+00
          2   -1    0    0  502    0  0.00000000000E+00  0.00000000000E+00  0.27145004898E+03  0.27145004898E+03  0.00000000000E+00 0. -1.
          1   -1    0    0  501    0 -0.00000000000E+00 -0.00000000000E+00 -0.32757852240E+04  0.32757852240E+04  0.00000000000E+00 0. -1.
         25    2    1    2    0    0 -0.11065506634E+03 -0.29979671350E+02 -0.20901590409E+02  0.17089666821E+03  0.12500188127E+03 0.  0.
          2    1    1    2  501    0  0.20095854398E+02  0.81830541293E+02 -0.31654281268E+04  0.31665494322E+04  0.00000000000E+00 0. -1.
          1    1    1    2  502    0  0.90559211943E+02 -0.51850869943E+02  0.18199454212E+03  0.20978917261E+03  0.00000000000E+00 0. -1.
         22    1    3    3    0    0 -0.55093561957E+02  0.37804331744E+02  0.25752183656E+02  0.71607562665E+02  0.00000000000E+00 0. -1.
         22    1    3    3    0    0 -0.55561504384E+02 -0.67784003095E+02 -0.46653774065E+02  0.99289105543E+02  0.00000000000E+00 0. -1.
</event>
<event>
 7    1  0.5127424E-006  0.6058843E+02  0.7818608E-02  0.1513906E+00
          2   -1    0    0  502    0  0.00000000000E+00  0.00000000000E+00  0.45773239315E+03  0.45773239315E+03  0.00000000000E+00 0. -1.
          1   -1    0    0  501    0 -0.00000000000E+00 -0.00000000000E+00 -0.23897874862E+03  0.23897874862E+03  0.00000000000E+00 0. -1.
         25    2    1    2    0    0 -0.29976756499E+02  0.21121219528E+02  0.51994338740E+02  0.14023994866E+03  0.12497647817E+03 0.  0.
          2    1    1    2  501    0 -0.19583486251E+02  0.16190064613E+02 -0.19134938473E+03  0.19302906041E+03  0.00000000000E+00 0. -1.
          1    1    1    2  502    0  0.49560242750E+02 -0.37311284142E+02  0.35810869052E+03  0.36344213269E+03  0.00000000000E+00 0. -1.
         22    1    3    3    0    0 -0.48428694461E+02 -0.25525277551E+02  0.68264590558E+02  0.87503900286E+02  0.00000000000E+00 0.  1.
         22    1    3    3    0    0  0.18451937962E+02  0.46646497079E+02 -0.16270251818E+02  0.52736048378E+02  0.00000000000E+00 0.  1.
</event>
<event>
 7    1  0.5127424E-006  0.1129678E+03  0.7818608E-02  0.1258751E+00
          2   -1    0    0  502    0  0.00000000000E+00  0.00000000000E+00  0.13589729026E+04  0.13589729026E+04  0.00000000000E+00 0. -1.
          1   -1    0    0  501    0 -0.00000000000E+00 -0.00000000000E+00 -0.19082485970E+03  0.19082485970E+03  0.00000000000E+00 0. -1.
         25    2    1    2    0    0 -0.58389775456E+02  0.37115060601E+02  0.27436584638E+03  0.30933547056E+03  0.12499968835E+03 0.  0.
          2    1    1    2  501    0  0.89731027422E+02  0.71418143422E+02 -0.15098724698E+03  0.18960315726E+03  0.00000000000E+00 0. -1.
          1    1    1    2  502    0 -0.31341251966E+02 -0.10853320402E+03  0.10447694435E+04  0.10508591345E+04  0.00000000000E+00 0. -1.
         22    1    3    3    0    0  0.10563639542E+02  0.66457090240E+02  0.14449630914E+03  0.15939673359E+03  0.00000000000E+00 0. -1.
         22    1    3    3    0    0 -0.68953414998E+02 -0.29342029639E+02  0.12986953723E+03  0.14993873697E+03  0.00000000000E+00 0. -1.
</event>
<event>
 7    1  0.5127424E-006  0.4020340E+02  0.7818608E-02  0.1527302E+00
          2   -1    0    0  502    0  0.00000000000E+00  0.00000000000E+00  0.60404044681E+03  0.60404044681E+03  0.00000000000E+00 0. -1.
          1   -1    0    0  501    0 -0.00000000000E+00 -0.00000000000E+00 -0.25248602379E+04  0.25248602379E+04  0.00000000000E+00 0. -1.
         25    2    1    2    0    0 -0.73038267479E+01  0.47433625680E+02 -0.58972687093E+03  0.60473730581E+03  0.12500452794E+03 0.  0.
          2    1    1    2  501    0  0.31490278295E+02 -0.15309815070E+02 -0.19267912743E+04  0.19271094008E+04  0.00000000000E+00 0. -1.
          1    1    1    2  502    0 -0.24186451547E+02 -0.32123810610E+02  0.59569835413E+03  0.59705397809E+03  0.00000000000E+00 0. -1.
         22    1    3    3    0    0 -0.22262625055E+02  0.85392879395E+02 -0.47099371910E+03  0.47918957810E+03  0.00000000000E+00 0. -1.
         22    1    3    3    0    0  0.14958798307E+02 -0.37959253715E+02 -0.11873315183E+03  0.12554772771E+03  0.00000000000E+00 0. -1.
</event>
<event>
 7    1  0.5127424E-006  0.9530350E+02  0.7818608E-02  0.1447749E+00
          2   -1    0    0  502    0  0.00000000000E+00  0.00000000000E+00  0.47013512217E+03  0.47013512217E+03  0.00000000000E+00 0. -1.
          1   -1    0    0  501    0 -0.00000000000E+00 -0.00000000000E+00 -0.19337020801E+03  0.19337020801E+03  0.00000000000E+00 0. -1.
         25    2    1    2    0    0 -0.23305372364E+02 -0.11243274500E+03 -0.19346695810E+02  0.17083190919E+03  0.12499993612E+03 0.  0.
          2    1    1    2  501    0  0.18076785813E+02  0.18364275433E+02 -0.90836564409E+02  0.94420856971E+02  0.00000000000E+00 0. -1.
          1    1    1    2  502    0  0.52285865510E+01  0.94068469566E+02  0.38694817439E+03  0.39825256402E+03  0.00000000000E+00 0. -1.
         22    1    3    3    0    0 -0.41586560920E+02 -0.50433868216E+02  0.45208572170E+02  0.79478500930E+02  0.00000000000E+00 0.  1.
         22    1    3    3    0    0  0.18281188556E+02 -0.61998876782E+02 -0.64555267980E+02  0.91353408263E+02  0.00000000000E+00 0.  1.
</event>
<event>
 7    1  0.5127424E-006  0.5147699E+02  0.7818608E-02  0.1539135E+00
          2   -1    0    0  502    0  0.00000000000E+00  0.00000000000E+00  0.20822260077E+04  0.20822260077E+04  0.00000000000E+00 0. -1.
          1   -1    0    0  501    0 -0.00000000000E+00 -0.00000000000E+00 -0.10691732415E+04  0.10691732415E+04  0.00000000000E+00 0. -1.
         25    2    1    2    0    0  0.81639109417E+00  0.33137565806E+02  0.70909576830E+03  0.72078775242E+03  0.12497764058E+03 0.  0.
          2    1    1    2  501    0  0.19491546894E+02  0.16131955611E+02 -0.10626573510E+04  0.10629585157E+04  0.00000000000E+00 0. -1.
          1    1    1    2  502    0 -0.20307937988E+02 -0.49269521417E+02  0.13666143489E+04  0.13676529811E+04  0.00000000000E+00 0. -1.
         22    1    3    3    0    0  0.28523127756E+02 -0.11565958689E+02  0.58749516262E+03  0.58830086378E+03  0.00000000000E+00 0.  1.
         22    1    3    3    0    0 -0.27706736662E+02  0.44703524495E+02  0.12160060568E+03  0.13248688864E+03  0.00000000000E+00 0.  1.
</event>
<event>
 7    1  0.5127424E-006  0.5084119E+02  0.7818608E-02  0.1498185E+00
          2   -1    0    0  502    0  0.00000000000E+00  0.00000000000E+00  0.15550312095E+04  0.15550312095E+04  0.00000000000E+00 0. -1.
          1   -1    0    0  501    0 -0.00000000000E+00 -0.00000000000E+00 -0.92295447874E+03  0.92295447874E+03  0.00000000000E+00 0. -1.
         25    2    1    2    0    0 -0.25998262655E+01  0.42511142207E+02  0.41311346626E+01  0.13212765394E+03  0.12500677723E+03 0.  0.
          2    1    1    2  501    0 -0.31046503388E+02 -0.40522039627E+02 -0.85800649052E+03  0.85952373955E+03  0.00000000000E+00 0. -1.
          1    1    1    2  502    0  0.33646329654E+02 -0.19891025797E+01  0.14859520867E+04  0.14863342948E+04  0.00000000000E+00 0. -1.
         22    1    3    3    0    0  0.17085794470E+02 -0.40368395989E+02  0.14823628601E+02  0.46273877428E+02  0.00000000000E+00 0. -1.
         22    1    3    3    0    0 -0.19685620735E+02  0.82879538196E+02 -0.10692493938E+02  0.85853776515E+02  0.00000000000E+00 0. -1.
</event>
<event>
 7    1  0.5127424E-006  0.9680120E+02  0.7818608E-02  0.1440994E+00
          2   -1    0    0  502    0  0.00000000000E+00  0.00000000000E+00  0.28315134337E+03  0.28315134337E+03  0.00000000000E+00 0. -1.
          1   -1    0    0  501    0 -0.00000000000E+00 -0.00000000000E+00 -0.95342955294E+03  0.95342955294E+03  0.00000000000E+00 0. -1.
         25    2    1    2    0    0 -0.65451654283E+02 -0.43561899880E+02  0.76944208346E+02  0.16651868985E+03  0.12500601866E+03 0.  0.
          2    1    1    2  501    0  0.67300604905E+02  0.70172832335E+02 -0.90491797482E+03  0.91012644119E+03  0.00000000000E+00 0. -1.
          1    1    1    2  502    0 -0.18489506220E+01 -0.26610932456E+02  0.15769555690E+03  0.15993576527E+03  0.00000000000E+00 0. -1.
         22    1    3    3    0    0  0.25912325337E+02  0.11657187381E+02 -0.86345829660E+01  0.29696711013E+02  0.00000000000E+00 0.  1.
         22    1    3    3    0    0 -0.91363979620E+02 -0.55219087261E+02  0.85578791312E+02  0.13682197884E+03  0.00000000000E+00 0.  1.
</event>
<event>
 7    1  0.5127424E-006  0.8147541E+02  0.7818608E-02  0.1356512E+00
          2   -1    0    0  502    0  0.00000000000E+00  0.00000000000E+00  0.10949831208E+04  0.10949831208E+04  0.00000000000E+00 0. -1.
          1   -1    0    0  501    0 -0.00000000000E+00 -0.00000000000E+00 -0.33504385121E+03  0.33504385121E+03  0.00000000000E+00 0. -1.
         25    2    1    2    0    0 -0.12175370240E+03 -0.23804847284E+02  0.23756093232E+03  0.29572164463E+03  0.12500183894E+03 0.  0.
          2    1    1    2  501    0  0.64827233747E+02  0.48325884467E+02 -0.29943385907E+03  0.31015898713E+03  0.00000000000E+00 0. -1.
          1    1    1    2  502    0  0.56926468653E+02 -0.24521037183E+02  0.82181219635E+03  0.82414634026E+03  0.00000000000E+00 0. -1.
         22    1    3    3    0    0 -0.45031933431E+01  0.13738158980E+02  0.13418547404E+03  0.13496205839E+03  0.00000000000E+00 0.  1.
         22    1    3    3    0    0 -0.11725050906E+03 -0.37543006264E+02  0.10337545828E+03  0.16075958624E+03  0.00000000000E+00 0.  1.
</event>
<event>
 7    1  0.5127424E-006  0.7189067E+02  0.7818608E-02  0.1372933E+00
          2   -1    0    0  502    0  0.00000000000E+00  0.00000000000E+00  0.69225213116E+03  0.69225213116E+03  0.00000000000E+00 0. -1.
          1   -1    0    0  501    0 -0.00000000000E+00 -0.00000000000E+00 -0.82382255829E+03  0.82382255829E+03  0.00000000000E+00 0. -1.
         25    2    1    2    0    0  0.84642067093E+02  0.14840757327E+01  0.13816066604E+03  0.20464471650E+03  0.12499843339E+03 0.  0.
          2    1    1    2  501    0 -0.51677904321E+02  0.50141131294E+02 -0.78713073582E+03  0.79041731644E+03  0.00000000000E+00 0. -1.
          1    1    1    2  502    0 -0.32964162772E+02 -0.51625207027E+02  0.51739964265E+03  0.52101265651E+03  0.00000000000E+00 0. -1.
         22    1    3    3    0    0  0.88088883897E+02  0.12123169476E+02  0.27007314598E+02  0.92930176725E+02  0.00000000000E+00 0.  1.
         22    1    3    3    0    0 -0.34468168041E+01 -0.10639093744E+02  0.11115335144E+03  0.11171453978E+03  0.00000000000E+00 0.  1.
</event>
<event>
 7    1  0.5127424E-006  0.1606045E+03  0.7818608E-02  0.1229641E+00
          2   -1    0    0  502    0  0.00000000000E+00  0.00000000000E+00  0.38158360682E+03  0.38158360682E+03  0.00000000000E+00 0. -1.
          1   -1    0    0  501    0 -0.00000000000E+00 -0.00000000000E+00 -0.80954314902E+03  0.80954314902E+03  0.00000000000E+00 0. -1.
         25    2    1    2    0    0  0.74568914301E+02 -0.22080586799E+03  0.67779057931E+02  0.27300537379E+03  0.12498871590E+03 0.  0.
          2    1    1    2  501    0 -0.68871075334E+02  0.76418594200E+02 -0.67786936544E+03  0.68563102553E+03  0.00000000000E+00 0. -1.
          1    1    1    2  502    0 -0.56978389677E+01  0.14438727379E+03  0.18213076532E+03  0.23249035653E+03  0.00000000000E+00 0. -1.
         22    1    3    3    0    0 -0.33096191876E+02 -0.52976502089E+02  0.32842310508E+02  0.70572551674E+02  0.00000000000E+00 0.  1.
         22    1    3    3    0    0  0.10766510618E+03 -0.16782936590E+03  0.34936747422E+02  0.20243282211E+03  0.00000000000E+00 0.  1.
</event>
<event>
 7    1  0.5322802E-006  0.1476855E+03  0.7818608E-02  0.1283326E+00
          2   -1    0    0  502    0  0.00000000000E+00  0.00000000000E+00  0.14686908940E+04  0.14686908940E+04  0.00000000000E+00 0. -1.
          1   -1    0    0  501    0 -0.00000000000E+00 -0.00000000000E+00 -0.19139555311E+04  0.19139555311E+04  0.00000000000E+00 0. -1.
         25    2    1    2    0    0  0.76700489616E+02 -0.34342323641E+02 -0.13974225254E+03  0.20546214535E+03  0.12499774289E+03 0.  0.
          2    1    1    2  501    0  0.64137289657E+02 -0.14664918107E+02 -0.17368570191E+04  0.17381026887E+04  0.00000000000E+00 0. -1.
          1    1    1    2  502    0 -0.14083777927E+03  0.49007241749E+02  0.14313346345E+04  0.14390815910E+04  0.00000000000E+00 0. -1.
         22    1    3    3    0    0  0.10913852369E+03 -0.27861959140E+02 -0.12765275920E+03  0.17024315860E+03  0.00000000000E+00 0.  1.
         22    1    3    3    0    0 -0.32438034070E+02 -0.64803645017E+01 -0.12089493344E+02  0.35218986751E+02  0.00000000000E+00 0.  1.
</event>
<event>
 7    1  0.5127424E-006  0.1617885E+03  0.7818608E-02  0.1214764E+00
          2   -1    0    0  502    0  0.00000000000E+00  0.00000000000E+00  0.17351227579E+04  0.17351227579E+04  0.00000000000E+00 0. -1.
          1   -1    0    0  501    0 -0.00000000000E+00 -0.00000000000E+00 -0.49465347113E+03  0.49465347113E+03  0.00000000000E+00 0. -1.
         25    2    1    2    0    0 -0.63037536796E+02 -0.30527785989E+02  0.47485877291E+02  0.15095095969E+03  0.12500242768E+03 0.  0.
          2    1    1    2  501    0  0.17971230332E+03  0.55607429665E+01 -0.42238283110E+03  0.45905848194E+03  0.00000000000E+00 0. -1.
          1    1    1    2  502    0 -0.11667476653E+03  0.24967043023E+02  0.16153662406E+04  0.16197667874E+04  0.00000000000E+00 0. -1.
         22    1    3    3    0    0 -0.19504397254E+02 -0.56647036147E+02  0.72750655496E+02  0.94244183330E+02  0.00000000000E+00 0.  1.
         22    1    3    3    0    0 -0.43533139542E+02  0.26119250158E+02 -0.25264778205E+02  0.56706776358E+02  0.00000000000E+00 0.  1.
</event>
<event>
 7    1  0.5127424E-006  0.4211847E+02  0.7818608E-02  0.1497092E+00
          2   -1    0    0  502    0  0.00000000000E+00  0.00000000000E+00  0.11777929693E+03  0.11777929693E+03  0.00000000000E+00 0. -1.
          1   -1    0    0  501    0 -0.00000000000E+00 -0.00000000000E+00 -0.27045800522E+03  0.27045800522E+03  0.00000000000E+00 0. -1.
         25    2    1    2    0    0  0.20778836900E+02 -0.44478924069E+02 -0.23349671167E+02  0.13631174948E+03  0.12500220459E+03 0.  0.
          2    1    1    2  501    0 -0.41621651474E+02  0.91801339849E+01 -0.18101024482E+03  0.18596060190E+03  0.00000000000E+00 0. -1.
          1    1    1    2  502    0  0.20842814573E+02  0.35298790084E+02  0.51681207692E+02  0.65964950764E+02  0.00000000000E+00 0. -1.
         22    1    3    3    0    0 -0.89852429821E+01  0.17183273652E+02  0.39097251848E+02  0.43641661138E+02  0.00000000000E+00 0. -1.
         22    1    3    3    0    0  0.29764079882E+02 -0.61662197721E+02 -0.62446923015E+02  0.92670088341E+02  0.00000000000E+00 0. -1.
</event>
<event>
 7    1  0.5127424E-006  0.6144474E+02  0.7818608E-02  0.1398514E+00
          2   -1    0    0  502    0  0.00000000000E+00  0.00000000000E+00  0.87516794866E+03  0.87516794866E+03  0.00000000000E+00 0. -1.
          1   -1    0    0  501    0 -0.00000000000E+00 -0.00000000000E+00 -0.64798885563E+02  0.64798885563E+02  0.00000000000E+00 0. -1.
         25    2    1    2    0    0 -0.94815922205E+01  0.10307051786E+02  0.19878929736E+03  0.23523991983E+03  0.12499799691E+03 0.  0.
          2    1    1    2  501    0 -0.32854325873E+02 -0.54839351585E+02 -0.22428578028E+02  0.67748079848E+02  0.00000000000E+00 0. -1.
          1    1    1    2  502    0  0.42335918093E+02  0.44532299799E+02  0.63400834377E+03  0.63697883454E+03  0.00000000000E+00 0. -1.
         22    1    3    3    0    0 -0.10717810373E+02 -0.53916267574E+02  0.12988169779E+03  0.14103577840E+03  0.00000000000E+00 0.  1.
         22    1    3    3    0    0  0.12362181521E+01  0.64223319360E+02  0.68907599567E+02  0.94204141432E+02  0.00000000000E+00 0.  1.
</event>
<event>
 7    1  0.5127424E-006  0.6332378E+02  0.7818608E-02  0.1465129E+00
          2   -1    0    0  502    0  0.00000000000E+00  0.00000000000E+00  0.45771626676E+03  0.45771626676E+03  0.00000000000E+00 0. -1.
          1   -1    0    0  501    0 -0.00000000000E+00 -0.00000000000E+00 -0.34200383515E+03  0.34200383515E+03  0.00000000000E+00 0. -1.
         25    2    1    2    0    0 -0.11652200198E+01  0.83374884128E+02  0.24645704421E+03  0.28865114736E+03  0.12500272472E+03 0.  0.
          2    1    1    2  501    0 -0.22703990143E+02 -0.58936795657E+02 -0.31622421398E+03  0.32246979790E+03  0.00000000000E+00 0. -1.
          1    1    1    2  502    0  0.23869210163E+02 -0.24438088471E+02  0.18547960138E+03  0.18859915665E+03  0.00000000000E+00 0. -1.
         22    1    3    3    0    0  0.49882987870E+02  0.48515732343E+02  0.19871473158E+03  0.21054603608E+03  0.00000000000E+00 0. -1.
         22    1    3    3    0    0 -0.51048207890E+02  0.34859151785E+02  0.47742312634E+02  0.78105111277E+02  0.00000000000E+00 0. -1.
</event>
<event>
 7    1  0.5127424E-006  0.6111500E+02  0.7818608E-02  0.1522367E+00
          2   -1    0    0  502    0  0.00000000000E+00  0.00000000000E+00  0.15092232479E+03  0.15092232479E+03  0.00000000000E+00 0. -1.
          1   -1    0    0  501    0 -0.00000000000E+00 -0.00000000000E+00 -0.88767550786E+02  0.88767550786E+02  0.00000000000E+00 0. -1.
         25    2    1    2    0    0  0.15786107883E+02 -0.52115239348E+02  0.40067971066E+02  0.14211201207E+03  0.12500072918E+03 0.  0.
          2    1    1    2  501    0  0.46927080969E+01  0.64244521950E+02 -0.99393300219E+00  0.64423349903E+02  0.00000000000E+00 0. -1.
          1    1    1    2  502    0 -0.20478815980E+02 -0.12129282602E+02  0.23080735936E+02  0.33154513595E+02  0.00000000000E+00 0. -1.
         22    1    3    3    0    0 -0.50312389301E+01  0.22312735560E+02 -0.30046546570E+02  0.37761971534E+02  0.00000000000E+00 0. -1.
         22    1    3    3    0    0  0.20817346813E+02 -0.74427974908E+02  0.70114517635E+02  0.10435004054E+03  0.00000000000E+00 0. -1.
</event>
<event>
 7    1  0.5582847E-006  0.1584488E+03  0.7818608E-02  0.1290481E+00
          2   -1    0    0  502    0  0.00000000000E+00  0.00000000000E+00  0.10680449770E+04  0.10680449770E+04  0.00000000000E+00 0. -1.
          1   -1    0    0  501    0 -0.00000000000E+00 -0.00000000000E+00 -0.14697445052E+04  0.14697445052E+04  0.00000000000E+00 0. -1.
         25    2    1    2    0    0  0.76500309421E+02 -0.14467173842E+03 -0.36491551846E+03  0.41901123127E+03  0.12499946833E+03 0.  0.
          2    1    1    2  501    0 -0.55947073592E+02 -0.12514881471E+02 -0.10709749146E+04  0.10725082587E+04  0.00000000000E+00 0. -1.
          1    1    1    2  502    0 -0.20553235829E+02  0.15718661989E+03  0.10341909049E+04  0.10462699923E+04  0.00000000000E+00 0. -1.
         22    1    3    3    0    0  0.67550415718E+02 -0.13982618771E+03 -0.37425822223E+03  0.40519580247E+03  0.00000000000E+00 0.  1.
         22    1    3    3    0    0  0.89498937032E+01 -0.48455507135E+01  0.93427037775E+01  0.13815428799E+02  0.00000000000E+00 0.  1.
</event>
<event>
 7    1  0.5127424E-006  0.8339964E+02  0.7818608E-02  0.1441188E+00
          2   -1    0    0  502    0  0.00000000000E+00  0.00000000000E+00  0.13999943422E+04  0.13999943422E+04  0.00000000000E+00 0. -1.
          1   -1    0    0  501    0 -0.00000000000E+00 -0.00000000000E+00 -0.25896705632E+03  0.25896705632E+03  0.00000000000E+00 0. -1.
         25    2    1    2    0    0  0.57517378271E+02  0.10391659347E+02  0.10978663001E+04  0.11065043303E+04  0.12500073912E+03 0.  0.
          2    1    1    2  501    0 -0.75701272696E+02 -0.35395366933E+02 -0.24694844641E+03  0.26070490957E+03  0.00000000000E+00 0. -1.
          1    1    1    2  502    0  0.18183894425E+02  0.25003707585E+02  0.29010943217E+03  0.29175215860E+03  0.00000000000E+00 0. -1.
         22    1    3    3    0    0 -0.30690583251E+02  0.25568558502E+02  0.54282376089E+03  0.54429155649E+03  0.00000000000E+00 0. -1.
         22    1    3    3    0    0  0.88207961522E+02 -0.15176899155E+02  0.55504253921E+03  0.56221277385E+03  0.00000000000E+00 0. -1.
</event>
<event>
 7    1  0.5127424E-006  0.2077162E+03  0.7818608E-02  0.1183340E+00
          2   -1    0    0  502    0  0.00000000000E+00  0.00000000000E+00  0.73952968985E+03  0.73952968985E+03  0.00000000000E+00 0. -1.
          1   -1    0    0  501    0 -0.00000000000E+00 -0.00000000000E+00 -0.13604573071E+04  0.13604573071E+04  0.00000000000E+00 0. -1.
         25    2    1    2    0    0 -0.13315107286E+03 -0.95476897230E+02 -0.29165579634E+03  0.35711701487E+03  0.12499765066E+03 0.  0.
          2    1    1    2  501    0  0.85989446630E+02  0.21749139524E+03 -0.10166253215E+04  0.10431796280E+04  0.00000000000E+00 0. -1.
          1    1    1    2  502    0  0.47161626225E+02 -0.12201449801E+03  0.68735350063E+03  0.69969035405E+03  0.00000000000E+00 0. -1.
         22    1    3    3    0    0 -0.78515924147E+02 -0.89880670796E+01 -0.47034203136E+02  0.91966036988E+02  0.00000000000E+00 0. -1.
         22    1    3    3    0    0 -0.54635148708E+02 -0.86488830151E+02 -0.24462159320E+03  0.26515097789E+03  0.00000000000E+00 0. -1.
</event>
<event>
 7    1  0.5127424E-006  0.8790361E+02  0.7818608E-02  0.1404415E+00
          2   -1    0    0  502    0  0.00000000000E+00  0.00000000000E+00  0.21304415729E+04  0.21304415729E+04  0.00000000000E+00 0. -1.
          1   -1    0    0  501    0 -0.00000000000E+00 -0.00000000000E+00 -0.35484536254E+03  0.35484536254E+03  0.00000000000E+00 0. -1.
         25    2    1    2    0    0  0.12121072534E+03 -0.69120561353E+01  0.12894712372E+04  0.13011924107E+04  0.12500320599E+03 0.  0.
          2    1    1    2  501    0 -0.85126026411E+02  0.21380109084E+02 -0.34300354293E+03  0.35405505208E+03  0.00000000000E+00 0. -1.
          1    1    1    2  502    0 -0.36084698925E+02 -0.14468052949E+02  0.82912851604E+03  0.83003947265E+03  0.00000000000E+00 0. -1.
         22    1    3    3    0    0  0.12521979907E+03 -0.45761615675E+02  0.90953671146E+03  0.91925576041E+03  0.00000000000E+00 0.  1.
         22    1    3    3    0    0 -0.40090737310E+01  0.38849559539E+02  0.37993452577E+03  0.38193665027E+03  0.00000000000E+00 0.  1.
</event>
<event>
 7    1  0.5127424E-006  0.4090455E+02  0.7818608E-02  0.1518766E+00
          2   -1    0    0  502    0  0.00000000000E+00  0.00000000000E+00  0.50993789630E+03  0.50993789630E+03  0.00000000000E+00 0. -1.
          1   -1    0    0  501    0 -0.00000000000E+00 -0.00000000000E+00 -0.10760778206E+04  0.10760778206E+04  0.00000000000E+00 0. -1.
         25    2    1    2    0    0  0.26174211565E+02  0.44109753160E+02 -0.55281635812E+03  0.56908869888E+03  0.12500104686E+03 0.  0.
          2    1    1    2  501    0 -0.39885939918E+02 -0.10361691840E+02 -0.51363785881E+03  0.51528836865E+03  0.00000000000E+00 0. -1.
          1    1    1    2  502    0  0.13711728353E+02 -0.33748061319E+02  0.50031429262E+03  0.50163864937E+03  0.00000000000E+00 0. -1.
         22    1    3    3    0    0 -0.15695582375E+02 -0.20033873127E+02 -0.24765905087E+02  0.35511370480E+02  0.00000000000E+00 0. -1.
         22    1    3    3    0    0  0.41869793941E+02  0.64143626286E+02 -0.52805045303E+03  0.53357732840E+03  0.00000000000E+00 0. -1.
</event>
<event>
 7    1  0.5127424E-006  0.1255764E+03  0.7818608E-02  0.1250767E+00
          2   -1    0    0  502    0  0.00000000000E+00  0.00000000000E+00  0.25412047690E+04  0.25412047690E+04  0.00000000000E+00 0. -1.
          1   -1    0    0  501    0 -0.00000000000E+00 -0.00000000000E+00 -0.48680594122E+03  0.48680594122E+03  0.00000000000E+00 0. -1.
         25    2    1    2    0    0  0.53897144937E+02  0.12281283921E+02  0.49135270988E+03  0.51000883511E+03  0.12500317682E+03 0.  0.
          2    1    1    2  501    0  0.85382036701E+02 -0.63107879380E+02 -0.46884104959E+03  0.48071262352E+03  0.00000000000E+00 0. -1.
          1    1    1    2  502    0 -0.13927918164E+03  0.50826595460E+02  0.20318871675E+04  0.20372892516E+04  0.00000000000E+00 0. -1.
         22    1    3    3    0    0  0.79743885121E+02  0.35320220736E+02  0.43660647634E+03  0.44523232182E+03  0.00000000000E+00 0. -1.
         22    1    3    3    0    0 -0.25846740184E+02 -0.23038936815E+02  0.54746233539E+02  0.64776513293E+02  0.00000000000E+00 0. -1.
</event>
<event>
 7    1  0.5127424E-006  0.2004747E+03  0.7818608E-02  0.1267303E+00
          2   -1    0    0  502    0  0.00000000000E+00  0.00000000000E+00  0.16392885218E+04  0.16392885218E+04  0.00000000000E+00 0. -1.
          1   -1    0    0  501    0 -0.00000000000E+00 -0.00000000000E+00 -0.12522467752E+03  0.12522467752E+03  0.00000000000E+00 0. -1.
         25    2    1    2    0    0 -0.14368033705E+03  0.18037501952E+03  0.44163267299E+03  0.51365651753E+03  0.12499765290E+03 0.  0.
          2    1    1    2  501    0  0.87550532754E+02 -0.17377991396E+03  0.18560097122E+02  0.19547130604E+03  0.00000000000E+00 0. -1.
          1    1    1    2  502    0  0.56129804292E+02 -0.65951055610E+01  0.10538710741E+04  0.10553853757E+04  0.00000000000E+00 0. -1.
         22    1    3    3    0    0 -0.42085101032E+02  0.49661689567E+02  0.25944193160E+03  0.26748374720E+03  0.00000000000E+00 0.  1.
         22    1    3    3    0    0 -0.10159523601E+03  0.13071332995E+03  0.18219074139E+03  0.24617277034E+03  0.00000000000E+00 0.  1.
</event>
<event>
 7    1  0.5127424E-006  0.1092538E+03  0.7818608E-02  0.1362396E+00
          2   -1    0    0  502    0  0.00000000000E+00  0.00000000000E+00  0.69074201482E+03  0.69074201482E+03  0.00000000000E+00 0. -1.
          1   -1    0    0  501    0 -0.00000000000E+00 -0.00000000000E+00 -0.36349198785E+03  0.36349198785E+03  0.00000000000E+00 0. -1.
         25    2    1    2    0    0 -0.74388777908E+02  0.63180264277E+02  0.18293090291E+02  0.15964030929E+03  0.12499982051E+03 0.  0.
          2    1    1    2  501    0  0.49884506137E+02 -0.99715318134E+02 -0.28135641548E+03  0.30264342246E+03  0.00000000000E+00 0. -1.
          1    1    1    2  502    0  0.24504271771E+02  0.36535053856E+02  0.59031335216E+03  0.59195027091E+03  0.00000000000E+00 0. -1.
         22    1    3    3    0    0 -0.37196108440E+02 -0.36550103208E+02  0.58355860770E+01  0.52473942032E+02  0.00000000000E+00 0. -1.
         22    1    3    3    0    0 -0.37192669468E+02  0.99730367485E+02  0.12457504214E+02  0.10716636726E+03  0.00000000000E+00 0. -1.
</event>
<event>
 7    1  0.5127424E-006  0.1257086E+03  0.7818608E-02  0.1269579E+00
          2   -1    0    0  502    0  0.00000000000E+00  0.00000000000E+00  0.14358305270E+04  0.14358305270E+04  0.00000000000E+00 0. -1.
          1   -1    0    0  501    0 -0.00000000000E+00 -0.00000000000E+00 -0.95805081422E+02  0.95805081422E+02  0.00000000000E+00 0. -1.
         25    2    1    2    0    0  0.95074847863E+02 -0.78042925829E+02  0.18356688641E+03  0.25387249633E+03  0.12499807054E+03 0.  0.
          2    1    1    2  501    0  0.33618236618E+02  0.81501171404E+02 -0.23149157071E+02  0.91151029871E+02  0.00000000000E+00 0. -1.
          1    1    1    2  502    0 -0.12869308448E+03 -0.34582455744E+01  0.11796077163E+04  0.11866120822E+04  0.00000000000E+00 0. -1.
         22    1    3    3    0    0 -0.38751356953E+01 -0.52367853408E+02  0.11540755463E+02  0.53764279813E+02  0.00000000000E+00 0.  1.
         22    1    3    3    0    0  0.98949983558E+02 -0.25675072421E+02  0.17202613095E+03  0.20010821652E+03  0.00000000000E+00 0.  1.
</event>
<event>
 7    1  0.5127424E-006  0.3230362E+03  0.7818608E-02  0.1271066E+00
          2   -1    0    0  502    0  0.00000000000E+00  0.00000000000E+00  0.70288440651E+03  0.70288440651E+03  0.00000000000E+00 0. -1.
          1   -1    0    0  501    0 -0.00000000000E+00 -0.00000000000E+00 -0.71273800243E+03  0.71273800243E+03  0.00000000000E+00 0. -1.
         25    2    1    2    0    0  0.26905036439E+03  0.14657795729E+03 -0.27107423267E+03  0.42776265228E+03  0.12500580357E+03 0.  0.
          2    1    1    2  501    0 -0.30051365604E+03 -0.15897795718E+03 -0.28314756892E+03  0.44244207996E+03  0.00000000000E+00 0. -1.
          1    1    1    2  502    0  0.31463291651E+02  0.12399999883E+02  0.54436820567E+03  0.54541767670E+03  0.00000000000E+00 0. -1.
         22    1    3    3    0    0  0.16501724884E+02  0.39800242159E+01 -0.76867089302E+02  0.78719101460E+02  0.00000000000E+00 0.  1.
         22    1    3    3    0    0  0.25254863950E+03  0.14259793308E+03 -0.19420714337E+03  0.34904355082E+03  0.00000000000E+00 0.  1.
</event>
<event>
 7    1  0.5127424E-006  0.6548586E+02  0.7818608E-02  0.1388967E+00
          2   -1    0    0  502    0  0.00000000000E+00  0.00000000000E+00  0.64183909272E+03  0.64183909272E+03  0.00000000000E+00 0. -1.
          1   -1    0    0  501    0 -0.00000000000E+00 -0.00000000000E+00 -0.34556640609E+03  0.34556640609E+03  0.00000000000E+00 0. -1.
         25    2    1    2    0    0 -0.10723959569E+03  0.48015909638E+02  0.25780036688E+02  0.17348080517E+03  0.12500048403E+03 0.  0.
          2    1    1    2  501    0  0.63065085701E+02 -0.88885233256E+01 -0.26634482811E+03  0.27385357099E+03  0.00000000000E+00 0. -1.
          1    1    1    2  502    0  0.44174509986E+02 -0.39127386312E+02  0.53683747805E+03  0.54007112266E+03  0.00000000000E+00 0. -1.
         22    1    3    3    0    0 -0.11287515288E+03  0.55742575376E+02  0.58915339858E+02  0.13899299305E+03  0.00000000000E+00 0.  1.
         22    1    3    3    0    0  0.56355571931E+01 -0.77266657384E+01 -0.33135303170E+02  0.34487812115E+02  0.00000000000E+00 0.  1.
</event>
<event>
 7    1  0.5127424E-006  0.1219503E+03  0.7818608E-02  0.1299961E+00
          2   -1    0    0  502    0  0.00000000000E+00  0.00000000000E+00  0.10025496224E+04  0.10025496224E+04  0.00000000000E+00 0. -1.
          1   -1    0    0  501    0 -0.00000000000E+00 -0.00000000000E+00 -0.11382753554E+04  0.11382753554E+04  0.00000000000E+00 0. -1.
         25    2    1    2    0    0  0.12091610268E+03 -0.13779135545E+03  0.21333466268E+03  0.30780468999E+03  0.12499954943E+03 0.  0.
          2    1    1    2  501    0 -0.37708730519E+02  0.56838765006E+02 -0.10854224078E+04  0.10875635139E+04  0.00000000000E+00 0. -1.
          1    1    1    2  502    0 -0.83207372164E+02  0.80952590439E+02  0.73636201217E+03  0.74545677383E+03  0.00000000000E+00 0. -1.
         22    1    3    3    0    0  0.60610093727E+02 -0.53622965622E+02  0.18270687063E+03  0.19982694133E+03  0.00000000000E+00 0.  1.
         22    1    3    3    0    0  0.60306008957E+02 -0.84168389824E+02  0.30627792050E+02  0.10797774867E+03  0.00000000000E+00 0.  1.
</event>
<event>
 7    1  0.5127424E-006  0.7243463E+02  0.7818608E-02  0.1404669E+00
          2   -1    0    0  502    0  0.00000000000E+00  0.00000000000E+00  0.72264615199E+02  0.72264615199E+02  0.00000000000E+00 0. -1.
          1   -1    0    0  501    0 -0.00000000000E+00 -0.00000000000E+00 -0.87362736953E+03  0.87362736953E+03  0.00000000000E+00 0. -1.
         25    2    1    2    0    0  0.78663296324E+02 -0.71246417603E+02 -0.20532014489E+03  0.26277311139E+03  0.12501751862E+03 0.  0.
          2    1    1    2  501    0 -0.65551279271E+02  0.26023271559E+02 -0.62425608785E+03  0.62822754166E+03  0.00000000000E+00 0. -1.
          1    1    1    2  502    0 -0.13112017053E+02  0.45223146044E+02  0.28213478412E+02  0.54891331678E+02  0.00000000000E+00 0. -1.
         22    1    3    3    0    0 -0.13179227607E+02  0.25968780507E+02 -0.25752360698E+02  0.38874846403E+02  0.00000000000E+00 0. -1.
         22    1    3    3    0    0  0.91842523931E+02 -0.97215198109E+02 -0.17956778419E+03  0.22389826499E+03  0.00000000000E+00 0. -1.
</event>
<event>
 7    1  0.5127424E-006  0.6934581E+02  0.7818608E-02  0.1363633E+00
          2   -1    0    0  502    0  0.00000000000E+00  0.00000000000E+00  0.33481862660E+04  0.33481862660E+04  0.00000000000E+00 0. -1.
          1   -1    0    0  501    0 -0.00000000000E+00 -0.00000000000E+00 -0.76073895640E+01  0.76073895640E+01  0.00000000000E+00 0. -1.
         25    2    1    2    0    0 -0.29837051239E+02  0.46420812613E+01  0.12296030075E+04  0.12363091421E+04  0.12499976044E+03 0.  0.
          2    1    1    2  501    0 -0.33617700598E+02 -0.59792678938E+02  0.35911973354E+03  0.36561222253E+03  0.00000000000E+00 0. -1.
          1    1    1    2  502    0  0.63454751837E+02  0.55150597676E+02  0.17518561353E+04  0.17538722909E+04  0.00000000000E+00 0. -1.
         22    1    3    3    0    0  0.22391882449E+02 -0.84431715727E+01  0.10070935041E+04  0.10073777889E+04  0.00000000000E+00 0.  1.
         22    1    3    3    0    0 -0.52228933688E+02  0.13085252834E+02  0.22250950342E+03  0.22893135318E+03  0.00000000000E+00 0.  1.
</event>
<event>
 7    1  0.5127424E-006  0.8921751E+02  0.7818608E-02  0.1453036E+00
          2   -1    0    0  502    0  0.00000000000E+00  0.00000000000E+00  0.73475727650E+03  0.73475727650E+03  0.00000000000E+00 0. -1.
          1   -1    0    0  501    0 -0.00000000000E+00 -0.00000000000E+00 -0.18292603609E+04  0.18292603609E+04  0.00000000000E+00 0. -1.
         25    2    1    2    0    0 -0.57143879689E+02 -0.72574331057E+02 -0.34619226670E+03  0.37948205840E+03  0.12500036244E+03 0.  0.
          2    1    1    2  501    0  0.72990178956E+02  0.51364860694E+02 -0.14648204335E+04  0.14675369902E+04  0.00000000000E+00 0. -1.
          1    1    1    2  502    0 -0.15846299267E+02  0.21209470364E+02  0.71650961581E+03  0.71699858882E+03  0.00000000000E+00 0. -1.
         22    1    3    3    0    0 -0.22215073498E+02 -0.74844616399E+02 -0.82908329476E+02  0.11388159285E+03  0.00000000000E+00 0.  1.
         22    1    3    3    0    0 -0.34928806191E+02  0.22702853417E+01 -0.26328393723E+03  0.26560046555E+03  0.00000000000E+00 0.  1.
</event>
<event>
 7    1  0.5127424E-006  0.8381469E+02  0.7818608E-02  0.1344040E+00
          2   -1    0    0  502    0  0.00000000000E+00  0.00000000000E+00  0.18707431580E+04  0.18707431580E+04  0.00000000000E+00 0. -1.
          1   -1    0    0  501    0 -0.00000000000E+00 -0.00000000000E+00 -0.70750250400E+02  0.70750250400E+02  0.00000000000E+00 0. -1.
         25    2    1    2    0    0 -0.13658900333E+03 -0.72936101286E+01  0.27404639864E+03  0.33080418413E+03  0.12498090674E+03 0.  0.
          2    1    1    2  501    0  0.61654282283E+02 -0.26263167825E+02 -0.14077904626E+02  0.68477674513E+02  0.00000000000E+00 0. -1.
          1    1    1    2  502    0  0.74934721048E+02  0.33556777954E+02  0.15400244136E+04  0.15422115497E+04  0.00000000000E+00 0. -1.
         22    1    3    3    0    0 -0.10429188252E+03 -0.26577889773E+02  0.82522795413E+02  0.13562150547E+03  0.00000000000E+00 0.  1.
         22    1    3    3    0    0 -0.32297120813E+02  0.19284279644E+02  0.19152360323E+03  0.19518267866E+03  0.00000000000E+00 0.  1.
</event>
<event>
 7    1  0.5127424E-006  0.5623657E+02  0.7818608E-02  0.1417410E+00
          2   -1    0    0  502    0  0.00000000000E+00  0.00000000000E+00  0.20913610111E+04  0.20913610111E+04  0.00000000000E+00 0. -1.
          1   -1    0    0  501    0 -0.00000000000E+00 -0.00000000000E+00 -0.79472172127E+01  0.79472172127E+01  0.00000000000E+00 0. -1.
         25    2    1    2    0    0  0.55989410447E+01  0.24129768786E+02  0.12585246109E+04  0.12649597077E+04  0.12500108756E+03 0.  0.
          2    1    1    2  501    0  0.41147184541E+02 -0.55392396984E+02  0.46511628112E+03  0.47020693679E+03  0.00000000000E+00 0. -1.
          1    1    1    2  502    0 -0.46746125585E+02  0.31262628198E+02  0.35977290183E+03  0.36414158382E+03  0.00000000000E+00 0. -1.
         22    1    3    3    0    0  0.37330374264E+02  0.62253581654E+02  0.91469605966E+03  0.91757176658E+03  0.00000000000E+00 0. -1.
         22    1    3    3    0    0 -0.31731433219E+02 -0.38123812868E+02  0.34382855128E+03  0.34738794112E+03  0.00000000000E+00 0. -1.
</event>
<event>
 7    1  0.5127424E-006  0.1028256E+03  0.7818608E-02  0.1380399E+00
          2   -1    0    0  502    0  0.00000000000E+00  0.00000000000E+00  0.29202821850E+03  0.29202821850E+03  0.00000000000E+00 0. -1.
          1   -1    0    0  501    0 -0.00000000000E+00 -0.00000000000E+00 -0.61948672111E+03  0.61948672111E+03  0.00000000000E+00 0. -1.
         25    2    1    2    0    0  0.53448595897E+02  0.11977649021E+03  0.51625126440E+02  0.18840217697E+03  0.12500826611E+03 0.  0.
          2    1    1    2  501    0 -0.62395510855E+02 -0.80500099314E+02 -0.54394659833E+03  0.55339982617E+03  0.00000000000E+00 0. -1.
          1    1    1    2  502    0  0.89469149575E+01 -0.39276390899E+02  0.16486296927E+03  0.16971293648E+03  0.00000000000E+00 0. -1.
         22    1    3    3    0    0 -0.35952123439E+02  0.34565813483E+02  0.40778536282E+02  0.64422353751E+02  0.00000000000E+00 0.  1.
         22    1    3    3    0    0  0.89400719336E+02  0.85210676730E+02  0.10846590157E+02  0.12397982322E+03  0.00000000000E+00 0.  1.
</event>
<event>
 7    1  0.5127424E-006  0.8609326E+02  0.7818608E-02  0.1353101E+00
          2   -1    0    0  502    0  0.00000000000E+00  0.00000000000E+00  0.75362187031E+03  0.75362187031E+03  0.00000000000E+00 0. -1.
          1   -1    0    0  501    0 -0.00000000000E+00 -0.00000000000E+00 -0.50054761946E+03  0.50054761946E+03  0.00000000000E+00 0. -1.
         25    2    1    2    0    0  0.76521872812E+02  0.33537989506E+02  0.38142086658E+03  0.40998455144E+03  0.12500024477E+03 0.  0.
          2    1    1    2  501    0 -0.36116470814E+02 -0.78402744563E+02 -0.47984049439E+03  0.48754311592E+03  0.00000000000E+00 0. -1.
          1    1    1    2  502    0 -0.40405401999E+02  0.44864755058E+02  0.35149387866E+03  0.35664182241E+03  0.00000000000E+00 0. -1.
         22    1    3    3    0    0 -0.68862098406E+01  0.47262880718E+02  0.24412675169E+03  0.24875504150E+03  0.00000000000E+00 0. -1.
         22    1    3    3    0    0  0.83408082653E+02 -0.13724891213E+02  0.13729411489E+03  0.16122950993E+03  0.00000000000E+00 0. -1.
</event>
<event>
 7    1  0.5127424E-006  0.4011743E+02  0.7818608E-02  0.1523761E+00
          2   -1    0    0  502    0  0.00000000000E+00  0.00000000000E+00  0.10838597212E+04  0.10838597212E+04  0.00000000000E+00 0. -1.
          1   -1    0    0  501    0 -0.00000000000E+00 -0.00000000000E+00 -0.12148175218E+02  0.12148175218E+02  0.00000000000E+00 0. -1.
         25    2    1    2    0    0 -0.40517719989E+01  0.41251214602E+02  0.53454701702E+03  0.55053123942E+03  0.12500421038E+03 0.  0.
          2    1    1    2  501    0  0.33833075192E+02 -0.12077260612E+02  0.98696247432E+02  0.10503088335E+03  0.00000000000E+00 0. -1.
          1    1    1    2  502    0 -0.29781303193E+02 -0.29173953989E+02  0.43846828157E+03  0.44044577368E+03  0.00000000000E+00 0. -1.
         22    1    3    3    0    0  0.11269224391E+02  0.82138802879E+02  0.27123026569E+03  0.28361882057E+03  0.00000000000E+00 0. -1.
         22    1    3    3    0    0 -0.15320996390E+02 -0.40887588278E+02  0.26331675133E+03  0.26691241885E+03  0.00000000000E+00 0. -1.
</event>
<event>
 7    1  0.5127424E-006  0.7666552E+02  0.7818608E-02  0.1450898E+00
          2   -1    0    0  502    0  0.00000000000E+00  0.00000000000E+00  0.50566881090E+03  0.50566881090E+03  0.00000000000E+00 0. -1.
          1   -1    0    0  501    0 -0.00000000000E+00 -0.00000000000E+00 -0.49570614972E+03  0.49570614972E+03  0.00000000000E+00 0. -1.
         25    2    1    2    0    0  0.10481264394E+03  0.29649946720E+00  0.75674678499E+02  0.17982544081E+03  0.12499901581E+03 0.  0.
          2    1    1    2  501    0 -0.75237505860E+02 -0.10537012819E+02 -0.43971979917E+03  0.44623448176E+03  0.00000000000E+00 0. -1.
          1    1    1    2  502    0 -0.29575138079E+02  0.10240513352E+02  0.37400778185E+03  0.37531503806E+03  0.00000000000E+00 0. -1.
         22    1    3    3    0    0 -0.66555096992E+00  0.20466431348E+02 -0.25212059026E+02  0.32480235383E+02  0.00000000000E+00 0. -1.
         22    1    3    3    0    0  0.10547819491E+03 -0.20169931881E+02  0.10088673752E+03  0.14734520543E+03  0.00000000000E+00 0. -1.
</event>
<event>
 7    1  0.5127424E-006  0.7083419E+02  0.7818608E-02  0.1374872E+00
          2   -1    0    0  502    0  0.00000000000E+00  0.00000000000E+00  0.17676212920E+03  0.17676212920E+03  0.00000000000E+00 0. -1.
          1   -1    0    0  501    0 -0.00000000000E+00 -0.00000000000E+00 -0.39025197638E+03  0.39025197638E+03  0.00000000000E+00 0. -1.
         25    2    1    2    0    0 -0.16940171950E+02 -0.57407431855E+02 -0.47977760021E+02  0.14666114471E+03  0.12500017301E+03 0.  0.
          2    1    1    2  501    0 -0.52817280471E+02  0.30878559005E+02 -0.27839005702E+03  0.28503363726E+03  0.00000000000E+00 0. -1.
          1    1    1    2  502    0  0.69757452421E+02  0.26528872850E+02  0.11287796986E+03  0.13531932361E+03  0.00000000000E+00 0. -1.
         22    1    3    3    0    0 -0.15954392153E+02  0.55190211145E+01  0.37144155929E+02  0.40800619392E+02  0.00000000000E+00 0.  1.
         22    1    3    3    0    0 -0.98577979640E+00 -0.62926452969E+02 -0.85121915950E+02  0.10586052532E+03  0.00000000000E+00 0.  1.
</event>
<event>
 7    1  0.1373983E-005  0.7061014E+02  0.7818608E-02  0.1391542E+00
          2   -1    0    0  502    0  0.00000000000E+00  0.00000000000E+00  0.16585942445E+04  0.16585942445E+04  0.00000000000E+00 0. -1.
          1   -1    0    0  501    0 -0.00000000000E+00 -0.00000000000E+00 -0.19953187945E+04  0.19953187945E+04  0.00000000000E+00 0. -1.
         25    2    1    2    0    0 -0.35862576803E+02  0.32799037602E+02 -0.50688399184E+03  0.52432660057E+03  0.12500040639E+03 0.  0.
          2    1    1    2  501    0 -0.34303980058E+02 -0.41196112780E+02 -0.14784707765E+04  0.14794423678E+04  0.00000000000E+00 0. -1.
          1    1    1    2  502    0  0.70166556861E+02  0.83970751778E+01  0.16486302184E+04  0.16501440706E+04  0.00000000000E+00 0. -1.
         22    1    3    3    0    0 -0.17271817125E+02  0.79744525309E+02 -0.35552245441E+03  0.36476529519E+03  0.00000000000E+00 0.  1.
         22    1    3    3    0    0 -0.18590759679E+02 -0.46945487707E+02 -0.15136153743E+03  0.15956130538E+03  0.00000000000E+00 0.  1.
</event>
<event>
 7    1  0.5127424E-006  0.1225473E+03  0.7818608E-02  0.1342266E+00
          2   -1    0    0  502    0  0.00000000000E+00  0.00000000000E+00  0.46933459608E+04  0.46933459608E+04  0.00000000000E+00 0. -1.
          1   -1    0    0  501    0 -0.00000000000E+00 -0.00000000000E+00 -0.16620931579E+03  0.16620931579E+03  0.00000000000E+00 0. -1.
         25    2    1    2    0    0  0.12914356886E+03 -0.32717774240E+02  0.26973875612E+02  0.18466547421E+03  0.12500093309E+03 0.  0.
          2    1    1    2  501    0 -0.28335284353E+02 -0.36920068383E+02 -0.80287474483E+02  0.92801176435E+02  0.00000000000E+00 0. -1.
          1    1    1    2  502    0 -0.10080828450E+03  0.69637842623E+02  0.45804502439E+04  0.45820886259E+04  0.00000000000E+00 0. -1.
         22    1    3    3    0    0 -0.40250304076E+01 -0.15988199115E+01 -0.34469355432E+02  0.34740373613E+02  0.00000000000E+00 0.  1.
         22    1    3    3    0    0  0.13316859926E+03 -0.31118954328E+02  0.61443231044E+02  0.14992510060E+03  0.00000000000E+00 0.  1.
</event>
<event>
 7    1  0.5127424E-006  0.1722497E+03  0.7818608E-02  0.1343765E+00
          2   -1    0    0  502    0  0.00000000000E+00  0.00000000000E+00  0.52163457131E+03  0.52163457131E+03  0.00000000000E+00 0. -1.
          1   -1    0    0  501    0 -0.00000000000E+00 -0.00000000000E+00 -0.55156268150E+03  0.55156268150E+03  0.00000000000E+00 0. -1.
         25    2    1    2    0    0 -0.75411603192E+02 -0.17662690792E+03 -0.38844591206E+03  0.45099787438E+03  0.12499952641E+03 0.  0.
          2    1    1    2  501    0  0.30807184437E+02  0.10921700983E+02 -0.11446945127E+03  0.11904461953E+03  0.00000000000E+00 0. -1.
          1    1    1    2  502    0  0.44604418754E+02  0.16570520694E+03  0.47298725314E+03  0.50315475890E+03  0.00000000000E+00 0. -1.
         22    1    3    3    0    0  0.27310977452E+02 -0.42305313514E+01 -0.60667415415E+02  0.66665749662E+02  0.00000000000E+00 0. -1.
         22    1    3    3    0    0 -0.10272258064E+03 -0.17239637657E+03 -0.32777849664E+03  0.38433212472E+03  0.00000000000E+00 0. -1.
</event>
<event>
 7    1  0.5127424E-006  0.7714680E+02  0.7818608E-02  0.1429181E+00
          2   -1    0    0  502    0  0.00000000000E+00  0.00000000000E+00  0.11938476670E+03  0.11938476670E+03  0.00000000000E+00 0. -1.
          1   -1    0    0  501    0 -0.00000000000E+00 -0.00000000000E+00 -0.91832764128E+03  0.91832764128E+03  0.00000000000E+00 0. -1.
         25    2    1    2    0    0  0.16374703421E+02 -0.10515522497E+03 -0.34533190414E+03  0.38236784162E+03  0.12500116015E+03 0.  0.
          2    1    1    2  501    0  0.18631536699E+01  0.73442874446E+02 -0.54862973563E+03  0.55352679607E+03  0.00000000000E+00 0. -1.
          1    1    1    2  502    0 -0.18237857091E+02  0.31712350522E+02  0.95018765196E+02  0.10181777029E+03  0.00000000000E+00 0. -1.
         22    1    3    3    0    0 -0.54333852148E+02 -0.35466281053E+02 -0.13785842654E+03  0.15236459677E+03  0.00000000000E+00 0.  1.
         22    1    3    3    0    0  0.70708555569E+02 -0.69688943915E+02 -0.20747347761E+03  0.23000324486E+03  0.00000000000E+00 0.  1.
</event>
<event>
 7    1  0.5127424E-006  0.3867069E+02  0.7818608E-02  0.1548427E+00
          2   -1    0    0  502    0  0.00000000000E+00  0.00000000000E+00  0.16264963380E+03  0.16264963380E+03  0.00000000000E+00 0. -1.
          1   -1    0    0  501    0 -0.00000000000E+00 -0.00000000000E+00 -0.10192945866E+04  0.10192945866E+04  0.00000000000E+00 0. -1.
         25    2    1    2    0    0  0.19167927408E+02  0.97472386093E+01  0.12286453334E+02  0.12742888686E+03  0.12499898467E+03 0.  0.
          2    1    1    2  501    0 -0.56013893758E+01 -0.38411961463E+02 -0.95860942987E+03  0.95939506638E+03  0.00000000000E+00 0. -1.
          1    1    1    2  502    0 -0.13566538032E+02  0.28664722854E+02  0.89678023724E+02  0.95120267186E+02  0.00000000000E+00 0. -1.
         22    1    3    3    0    0  0.34689096643E+02 -0.44993289469E+02 -0.22084890453E+02  0.60954670940E+02  0.00000000000E+00 0. -1.
         22    1    3    3    0    0 -0.15521169234E+02  0.54740528078E+02  0.34371343786E+02  0.66474215921E+02  0.00000000000E+00 0. -1.
</event>
<event>
 7    1  0.5127424E-006  0.5714219E+02  0.7818608E-02  0.1421895E+00
          2   -1    0    0  502    0  0.00000000000E+00  0.00000000000E+00  0.14017106427E+03  0.14017106427E+03  0.00000000000E+00 0. -1.
          1   -1    0    0  501    0 -0.00000000000E+00 -0.00000000000E+00 -0.93527605483E+03  0.93527605483E+03  0.00000000000E+00 0. -1.
         25    2    1    2    0    0  0.10620486666E+02  0.70969589346E+01 -0.51348153327E+01  0.12575912292E+03  0.12500331638E+03 0.  0.
          2    1    1    2  501    0  0.12563952652E+01 -0.57941105778E+02 -0.86021417741E+03  0.86216424264E+03  0.00000000000E+00 0. -1.
          1    1    1    2  502    0 -0.11876881931E+02  0.50844146843E+02  0.70244002176E+02  0.87523753543E+02  0.00000000000E+00 0. -1.
         22    1    3    3    0    0 -0.32988202088E+02 -0.45138567651E+02 -0.12583172378E+02  0.57306613874E+02  0.00000000000E+00 0.  1.
         22    1    3    3    0    0  0.43608688754E+02  0.52235526586E+02  0.74483570450E+01  0.68452509049E+02  0.00000000000E+00 0.  1.
</event>
<event>
 7    1  0.5127424E-006  0.2979529E+02  0.7818608E-02  0.1667949E+00
          2   -1    0    0  502    0  0.00000000000E+00  0.00000000000E+00  0.47020834566E+03  0.47020834566E+03  0.00000000000E+00 0. -1.
          1   -1    0    0  501    0 -0.00000000000E+00 -0.00000000000E+00 -0.43174543184E+03  0.43174543184E+03  0.00000000000E+00 0. -1.
         25    2    1    2    0    0 -0.11104354341E+02  0.97315800424E+01 -0.10477474619E+03  0.16376953404E+03  0.12499881002E+03 0.  0.
          2    1    1    2  501    0  0.51147022651E+01  0.19524856007E+02 -0.29662405139E+03  0.29730995282E+03  0.00000000000E+00 0. -1.
          1    1    1    2  502    0  0.59896520760E+01 -0.29256436049E+02  0.43986171141E+03  0.44087429064E+03  0.00000000000E+00 0. -1.
         22    1    3    3    0    0  0.14029086764E+02  0.49798650713E+02 -0.10434821419E+03  0.11647004204E+03  0.00000000000E+00 0.  1.
         22    1    3    3    0    0 -0.25133441105E+02 -0.40067070670E+02 -0.42653199569E+00  0.47299492000E+02  0.00000000000E+00 0.  1.
</event>
<event>
 7    1  0.5127424E-006  0.8103121E+02  0.7818608E-02  0.1334733E+00
          2   -1    0    0  502    0  0.00000000000E+00  0.00000000000E+00  0.14187088253E+04  0.14187088253E+04  0.00000000000E+00 0. -1.
          1   -1    0    0  501    0 -0.00000000000E+00 -0.00000000000E+00 -0.10740267397E+04  0.10740267397E+04  0.00000000000E+00 0. -1.
         25    2    1    2    0    0  0.12331491128E+01 -0.12111819910E+02  0.48064444146E+03  0.49678317255E+03  0.12500489824E+03 0.  0.
          2    1    1    2  501    0  0.62437084752E+02  0.52018284259E+02 -0.10628858510E+04  0.10659880973E+04  0.00000000000E+00 0. -1.
          1    1    1    2  502    0 -0.63670233864E+02 -0.39906464349E+02  0.92692349511E+03  0.92996429521E+03  0.00000000000E+00 0. -1.
         22    1    3    3    0    0 -0.38428341366E+01  0.45720033780E+02  0.35984083724E+03  0.36275407235E+03  0.00000000000E+00 0.  1.
         22    1    3    3    0    0  0.50759832494E+01 -0.57831853691E+02  0.12080360422E+03  0.13402910020E+03  0.00000000000E+00 0.  1.
</event>
<event>
 7    1  0.5127424E-006  0.1459298E+03  0.7818608E-02  0.1366567E+00
          2   -1    0    0  502    0  0.00000000000E+00  0.00000000000E+00  0.13298823939E+04  0.13298823939E+04  0.00000000000E+00 0. -1.
          1   -1    0    0  501    0 -0.00000000000E+00 -0.00000000000E+00 -0.31280928067E+03  0.31280928067E+03  0.00000000000E+00 0. -1.
         25    2    1    2    0    0 -0.11294267422E+03 -0.11196954146E+03  0.27238979143E+03  0.33929439130E+03  0.12502503598E+03 0.  0.
          2    1    1    2  501    0  0.12055120086E+03  0.81084428297E+02 -0.26019913499E+03  0.29801152056E+03  0.00000000000E+00 0. -1.
          1    1    1    2  502    0 -0.76085266429E+01  0.30885113167E+02  0.10048824568E+04  0.10053857627E+04  0.00000000000E+00 0. -1.
         22    1    3    3    0    0 -0.35408285125E+02 -0.58404999633E+02  0.22233279486E+03  0.23258710693E+03  0.00000000000E+00 0. -1.
         22    1    3    3    0    0 -0.77534389094E+02 -0.53564541831E+02  0.50056996561E+02  0.10670728437E+03  0.00000000000E+00 0. -1.
</event>
<event>
 7    1  0.5127424E-006  0.2852574E+02  0.7818608E-02  0.1639719E+00
          2   -1    0    0  502    0  0.00000000000E+00  0.00000000000E+00  0.13596885742E+04  0.13596885742E+04  0.00000000000E+00 0. -1.
          1   -1    0    0  501    0 -0.00000000000E+00 -0.00000000000E+00 -0.29234782949E+02  0.29234782949E+02  0.00000000000E+00 0. -1.
         25    2    1    2    0    0  0.10700430951E+02 -0.21654955285E+02  0.40863767244E+03  0.42801011303E+03  0.12499789280E+03 0.  0.
          2    1    1    2  501    0 -0.28534320240E+02  0.45560229652E+01 -0.86161593431E+01  0.30152992864E+02  0.00000000000E+00 0. -1.
          1    1    1    2  502    0  0.17833889290E+02  0.17098932320E+02  0.93043227818E+03  0.93076025129E+03  0.00000000000E+00 0. -1.
         22    1    3    3    0    0  0.41666562088E+02 -0.62193028677E+02  0.21065610728E+03  0.22356223014E+03  0.00000000000E+00 0. -1.
         22    1    3    3    0    0 -0.30966131138E+02  0.40538073392E+02  0.19798156517E+03  0.20444788289E+03  0.00000000000E+00 0. -1.
</event>
<event>
 7    1  0.5127424E-006  0.8465592E+02  0.7818608E-02  0.1383856E+00
          2   -1    0    0  502    0  0.00000000000E+00  0.00000000000E+00  0.21497347541E+02  0.21497347541E+02  0.00000000000E+00 0. -1.
          1   -1    0    0  501    0 -0.00000000000E+00 -0.00000000000E+00 -0.15613199776E+04  0.15613199776E+04  0.00000000000E+00 0. -1.
         25    2    1    2    0    0 -0.43284727642E+02  0.48854590819E+01 -0.35970823389E+03  0.38329203602E+03  0.12500134396E+03 0.  0.
          2    1    1    2  501    0  0.90476617308E+02 -0.10890201655E+02 -0.11158694550E+04  0.11195844119E+04  0.00000000000E+00 0. -1.
          1    1    1    2  502    0 -0.47191889665E+02  0.60047425736E+01 -0.64244941135E+02  0.79940877184E+02  0.00000000000E+00 0. -1.
         22    1    3    3    0    0 -0.75455930977E+02 -0.14307586912E+02 -0.31838104518E+03  0.32751304477E+03  0.00000000000E+00 0. -1.
         22    1    3    3    0    0  0.32171203335E+02  0.19193045994E+02 -0.41327188707E+02  0.55778991251E+02  0.00000000000E+00 0. -1.
</event>
<event>
 7    1  0.5127424E-006  0.9867822E+02  0.7818608E-02  0.1338613E+00
          2   -1    0    0  502    0  0.00000000000E+00  0.00000000000E+00  0.54599825434E+03  0.54599825434E+03  0.00000000000E+00 0. -1.
          1   -1    0    0  501    0 -0.00000000000E+00 -0.00000000000E+00 -0.51298496902E+03  0.51298496902E+03  0.00000000000E+00 0. -1.
         25    2    1    2    0    0  0.55824376888E+01  0.12975407022E+03  0.31483979719E+03  0.36278875054E+03  0.12499718906E+03 0.  0.
          2    1    1    2  501    0  0.39148842964E+02 -0.90284771474E+02 -0.47961449204E+03  0.48960599755E+03  0.00000000000E+00 0. -1.
          1    1    1    2  502    0 -0.44731280653E+02 -0.39469298751E+02  0.19778798017E+03  0.20658847526E+03  0.00000000000E+00 0. -1.
         22    1    3    3    0    0 -0.52999927355E+02  0.25322844937E+02  0.80774987579E+02  0.99874107724E+02  0.00000000000E+00 0.  1.
         22    1    3    3    0    0  0.58582365043E+02  0.10443122529E+03  0.23406480961E+03  0.26291464281E+03  0.00000000000E+00 0.  1.
</event>
<event>
 7    1  0.5127424E-006  0.6926642E+02  0.7818608E-02  0.1364239E+00
          2   -1    0    0  502    0  0.00000000000E+00  0.00000000000E+00  0.39817197790E+02  0.39817197790E+02  0.00000000000E+00 0. -1.
          1   -1    0    0  501    0 -0.00000000000E+00 -0.00000000000E+00 -0.66274356770E+03  0.66274356770E+03  0.00000000000E+00 0. -1.
         25    2    1    2    0    0  0.11017458761E+02 -0.16103140895E+02 -0.32844858668E+03  0.35197187055E+03  0.12500011209E+03 0.  0.
          2    1    1    2  501    0 -0.26779826388E+02 -0.62860185889E+02 -0.24880493854E+03  0.25801639388E+03  0.00000000000E+00 0. -1.
          1    1    1    2  502    0  0.15762367627E+02  0.78963326785E+02 -0.45672844696E+02  0.92572501061E+02  0.00000000000E+00 0. -1.
         22    1    3    3    0    0  0.67950378872E+02 -0.28046689195E+01 -0.17219183678E+03  0.18513548771E+03  0.00000000000E+00 0.  1.
         22    1    3    3    0    0 -0.56932920111E+02 -0.13298471976E+02 -0.15625674990E+03  0.16683638284E+03  0.00000000000E+00 0.  1.
</event>
<event>
 7    1  0.5127424E-006  0.7776795E+02  0.7818608E-02  0.1471018E+00
          2   -1    0    0  502    0  0.00000000000E+00  0.00000000000E+00  0.16092970599E+03  0.16092970599E+03  0.00000000000E+00 0. -1.
          1   -1    0    0  501    0 -0.00000000000E+00 -0.00000000000E+00 -0.95110830200E+03  0.95110830200E+03  0.00000000000E+00 0. -1.
         25    2    1    2    0    0  0.51062270214E+02 -0.69857510688E+02 -0.45657963801E+03  0.48122663487E+03  0.12500672392E+03 0.  0.
          2    1    1    2  501    0 -0.61486066641E+02  0.45315452469E+02 -0.47795185264E+03  0.48401652871E+03  0.00000000000E+00 0. -1.
          1    1    1    2  502    0  0.10423796427E+02  0.24542058219E+02  0.14435289464E+03  0.14679484440E+03  0.00000000000E+00 0. -1.
         22    1    3    3    0    0  0.34316957654E+02 -0.10546916032E+03 -0.36678582340E+03  0.38318825348E+03  0.00000000000E+00 0.  1.
         22    1    3    3    0    0  0.16745312560E+02  0.35611649635E+02 -0.89793814617E+02  0.98038381392E+02  0.00000000000E+00 0.  1.
</event>
<event>
 7    1  0.5127424E-006  0.5580613E+02  0.7818608E-02  0.1466033E+00
          2   -1    0    0  502    0  0.00000000000E+00  0.00000000000E+00  0.33218014705E+03  0.33218014705E+03  0.00000000000E+00 0. -1.
          1   -1    0    0  501    0 -0.00000000000E+00 -0.00000000000E+00 -0.99693490203E+02  0.99693490203E+02  0.00000000000E+00 0. -1.
         25    2    1    2    0    0 -0.12037946198E+02 -0.74702916447E+02 -0.46190372688E-01  0.14612049380E+03  0.12500303476E+03 0.  0.
          2    1    1    2  501    0  0.30273080070E+02  0.40783002690E+02  0.75372736277E+00  0.50796464348E+02  0.00000000000E+00 0. -1.
          1    1    1    2  502    0 -0.18235133872E+02  0.33919913757E+02  0.23177911986E+03  0.23495667911E+03  0.00000000000E+00 0. -1.
         22    1    3    3    0    0  0.51197790063E+02 -0.61986174262E+02 -0.94019319034E+01  0.80943781913E+02  0.00000000000E+00 0. -1.
         22    1    3    3    0    0 -0.63235736260E+02 -0.12716742185E+02  0.93557415307E+01  0.65176711882E+02  0.00000000000E+00 0. -1.
</event>
<event>
 7    1  0.5127424E-006  0.7084576E+02  0.7818608E-02  0.1524804E+00
          2   -1    0    0  502    0  0.00000000000E+00  0.00000000000E+00  0.14294766603E+04  0.14294766603E+04  0.00000000000E+00 0. -1.
          1   -1    0    0  501    0 -0.00000000000E+00 -0.00000000000E+00 -0.25509350877E+03  0.25509350877E+03  0.00000000000E+00 0. -1.
         25    2    1    2    0    0 -0.80450738008E+02  0.41642876894E+02  0.21801421239E+03  0.26714022813E+03  0.12500901663E+03 0.  0.
          2    1    1    2  501    0  0.62893910815E+02 -0.31649102981E+02 -0.22506615178E+03  0.23582214148E+03  0.00000000000E+00 0. -1.
          1    1    1    2  502    0  0.17556827193E+02 -0.99937739133E+01  0.11814350909E+04  0.11816077995E+04  0.00000000000E+00 0. -1.
         22    1    3    3    0    0 -0.32944109555E+02  0.78459207358E+02  0.17038789997E+03  0.19045523892E+03  0.00000000000E+00 0.  1.
         22    1    3    3    0    0 -0.47506628453E+02 -0.36816330464E+02  0.47626312414E+02  0.76684989209E+02  0.00000000000E+00 0.  1.
</event>
<event>
 7    1  0.5127424E-006  0.5004498E+02  0.7818608E-02  0.1495810E+00
          2   -1    0    0  502    0  0.00000000000E+00  0.00000000000E+00  0.39765190974E+03  0.39765190974E+03  0.00000000000E+00 0. -1.
          1   -1    0    0  501    0 -0.00000000000E+00 -0.00000000000E+00 -0.56096775843E+02  0.56096775843E+02  0.00000000000E+00 0. -1.
         25    2    1    2    0    0  0.33702804329E+02  0.50953714116E+02  0.13314797259E+03  0.19257693787E+03  0.12500133756E+03 0.  0.
          2    1    1    2  501    0 -0.34791614137E+02 -0.10347481310E+01 -0.10725900663E+02  0.36422136991E+02  0.00000000000E+00 0. -1.
          1    1    1    2  502    0  0.10888098074E+01 -0.49918965985E+02  0.21913306197E+03  0.22474961072E+03  0.00000000000E+00 0. -1.
         22    1    3    3    0    0  0.50454314990E+02  0.10212928724E+02  0.13891922123E+03  0.14815023402E+03  0.00000000000E+00 0.  1.
         22    1    3    3    0    0 -0.16751510660E+02  0.40740785392E+02 -0.57712486392E+01  0.44426703846E+02  0.00000000000E+00 0.  1.
</event>
<event>
 7    1  0.5127424E-006  0.8023587E+02  0.7818608E-02  0.1410342E+00
          2   -1    0    0  502    0  0.00000000000E+00  0.00000000000E+00  0.69555567400E+03  0.69555567400E+03  0.00000000000E+00 0. -1.
          1   -1    0    0  501    0 -0.00000000000E+00 -0.00000000000E+00 -0.35498963963E+03  0.35498963963E+03  0.00000000000E+00 0. -1.
         25    2    1    2    0    0 -0.74895893251E+02  0.84761269208E+02  0.15663049132E+03  0.23011261559E+03  0.12499934982E+03 0.  0.
          2    1    1    2  501    0  0.36976681626E+02 -0.16911018912E+02 -0.31392194191E+03  0.31654421991E+03  0.00000000000E+00 0. -1.
          1    1    1    2  502    0  0.37919211625E+02 -0.67850250296E+02  0.49785748496E+03  0.50388847814E+03  0.00000000000E+00 0. -1.
         22    1    3    3    0    0 -0.16434475875E+01  0.66351521528E+02  0.12711791415E+02  0.67578213723E+02  0.00000000000E+00 0. -1.
         22    1    3    3    0    0 -0.73252445663E+02  0.18409747681E+02  0.14391869991E+03  0.16253440186E+03  0.00000000000E+00 0. -1.
</event>
<event>
 7    1  0.5127424E-006  0.7756323E+02  0.7818608E-02  0.1371116E+00
          2   -1    0    0  502    0  0.00000000000E+00  0.00000000000E+00  0.95406959165E+02  0.95406959165E+02  0.00000000000E+00 0. -1.
          1   -1    0    0  501    0 -0.00000000000E+00 -0.00000000000E+00 -0.23464320173E+04  0.23464320173E+04  0.00000000000E+00 0. -1.
         25    2    1    2    0    0 -0.11190412871E+03 -0.73607405065E+01 -0.31963501744E+03  0.36106537674E+03  0.12499978953E+03 0.  0.
          2    1    1    2  501    0  0.42470454519E+02  0.38954865156E+02 -0.19860767785E+04  0.19869127286E+04  0.00000000000E+00 0. -1.
          1    1    1    2  502    0  0.69433674196E+02 -0.31594124649E+02  0.54686737838E+02  0.93860871081E+02  0.00000000000E+00 0. -1.
         22    1    3    3    0    0 -0.12014859050E+03 -0.37981817040E+02 -0.19280004621E+03  0.23032620355E+03  0.00000000000E+00 0.  1.
         22    1    3    3    0    0  0.82444617860E+01  0.30621076534E+02 -0.12683497123E+03  0.13073917319E+03  0.00000000000E+00 0.  1.
</event>
<event>
 7    1  0.5127424E-006  0.2812845E+03  0.7818608E-02  0.1193642E+00
          2   -1    0    0  502    0  0.00000000000E+00  0.00000000000E+00  0.57485809147E+03  0.57485809147E+03  0.00000000000E+00 0. -1.
          1   -1    0    0  501    0 -0.00000000000E+00 -0.00000000000E+00 -0.40833774639E+03  0.40833774639E+03  0.00000000000E+00 0. -1.
         25    2    1    2    0    0 -0.15444074847E+03  0.17631572521E+03  0.13299649749E+02  0.26597195746E+03  0.12500008691E+03 0.  0.
          2    1    1    2  501    0  0.23624104231E+03 -0.20344532347E+03 -0.18882208040E+03  0.36449088845E+03  0.00000000000E+00 0. -1.
          1    1    1    2  502    0 -0.81800293837E+02  0.27129598261E+02  0.34204277574E+03  0.35273299195E+03  0.00000000000E+00 0. -1.
         22    1    3    3    0    0 -0.15689559847E+03  0.10884564080E+03  0.36830989561E+02  0.19447396775E+03  0.00000000000E+00 0.  1.
         22    1    3    3    0    0  0.24548499994E+01  0.67470084416E+02 -0.23531339812E+02  0.71497989713E+02  0.00000000000E+00 0.  1.
</event>
<event>
 7    1  0.5127424E-006  0.6489842E+02  0.7818608E-02  0.1404693E+00
          2   -1    0    0  502    0  0.00000000000E+00  0.00000000000E+00  0.71240759595E+03  0.71240759595E+03  0.00000000000E+00 0. -1.
          1   -1    0    0  501    0 -0.00000000000E+00 -0.00000000000E+00 -0.78389911662E+03  0.78389911662E+03  0.00000000000E+00 0. -1.
         25    2    1    2    0    0  0.86019624689E+02 -0.76290481196E+02 -0.56285551826E+02  0.17892233029E+03  0.12500209430E+03 0.  0.
          2    1    1    2  501    0 -0.41618631242E+02  0.48195251600E+02 -0.66370875996E+03  0.66675648538E+03  0.00000000000E+00 0. -1.
          1    1    1    2  502    0 -0.44400993447E+02  0.28095229596E+02  0.64850279112E+03  0.65062789690E+03  0.00000000000E+00 0. -1.
         22    1    3    3    0    0  0.74951668423E+02  0.15894320291E+02 -0.31360600929E+02  0.82788098828E+02  0.00000000000E+00 0. -1.
         22    1    3    3    0    0  0.11067956267E+02 -0.92184801488E+02 -0.24924950897E+02  0.96134231460E+02  0.00000000000E+00 0. -1.
</event>
<event>
 7    1  0.5127424E-006  0.8619729E+02  0.7818608E-02  0.1351644E+00
          2   -1    0    0  502    0  0.00000000000E+00  0.00000000000E+00  0.29441544529E+03  0.29441544529E+03  0.00000000000E+00 0. -1.
          1   -1    0    0  501    0 -0.00000000000E+00 -0.00000000000E+00 -0.23269287698E+03  0.23269287698E+03  0.00000000000E+00 0. -1.
         25    2    1    2    0    0 -0.11668256728E+02 -0.53009315756E+02 -0.13881412391E+03  0.19452698233E+03  0.12500100034E+03 0.  0.
          2    1    1    2  501    0 -0.60994415357E+02  0.27492837581E+01 -0.42229725149E+02  0.74237638378E+02  0.00000000000E+00 0. -1.
          1    1    1    2  502    0  0.72662672085E+02  0.50260031998E+02  0.24276641737E+03  0.25834370156E+03  0.00000000000E+00 0. -1.
         22    1    3    3    0    0 -0.45855261714E+01 -0.51340764503E+02  0.38394579261E+01  0.51687934639E+02  0.00000000000E+00 0.  1.
         22    1    3    3    0    0 -0.70827305569E+01 -0.16685512529E+01 -0.14265358184E+03  0.14283904769E+03  0.00000000000E+00 0.  1.
</event>
<event>
 7    1  0.5127424E-006  0.8113677E+02  0.7818608E-02  0.1453086E+00
          2   -1    0    0  502    0  0.00000000000E+00  0.00000000000E+00  0.16988626897E+03  0.16988626897E+03  0.00000000000E+00 0. -1.
          1   -1    0    0  501    0 -0.00000000000E+00 -0.00000000000E+00 -0.21841666907E+04  0.21841666907E+04  0.00000000000E+00 0. -1.
         25    2    1    2    0    0 -0.95218231683E+01  0.82588525982E+02  0.31403591376E+02  0.15337449126E+03  0.12500407705E+03 0.  0.
          2    1    1    2  501    0  0.28931406731E+02 -0.31425604613E+01 -0.21014761749E+04  0.21016776669E+04  0.00000000000E+00 0. -1.
          1    1    1    2  502    0 -0.19409583563E+02 -0.79445965520E+02  0.55792161808E+02  0.99000801465E+02  0.00000000000E+00 0. -1.
         22    1    3    3    0    0 -0.22356680739E+02  0.78635464217E+02 -0.32574099222E+02  0.88002439434E+02  0.00000000000E+00 0. -1.
         22    1    3    3    0    0  0.12834857571E+02  0.39530617651E+01  0.63977690598E+02  0.65372051830E+02  0.00000000000E+00 0. -1.
</event>
<event>
 7    1  0.5127424E-006  0.8530717E+02  0.7818608E-02  0.1340874E+00
          2   -1    0    0  502    0  0.00000000000E+00  0.00000000000E+00  0.46926076984E+03  0.46926076984E+03  0.00000000000E+00 0. -1.
          1   -1    0    0  501    0 -0.00000000000E+00 -0.00000000000E+00 -0.47658384071E+03  0.47658384071E+03  0.00000000000E+00 0. -1.
         25    2    1    2    0    0  0.55290835912E+02  0.68092163721E+02  0.16162029879E+03  0.22235016839E+03  0.12499942842E+03 0.  0.
          2    1    1    2  501    0  0.34018649021E+02 -0.58493007810E+02 -0.43626697673E+03  0.44148338069E+03  0.00000000000E+00 0. -1.
          1    1    1    2  502    0 -0.89309484934E+02 -0.95991559113E+01  0.26732360707E+03  0.28201106147E+03  0.00000000000E+00 0. -1.
         22    1    3    3    0    0 -0.23977002190E+02  0.37232162609E+02  0.55858249559E+01  0.44635546451E+02  0.00000000000E+00 0. -1.
         22    1    3    3    0    0  0.79267838102E+02  0.30860001112E+02  0.15603447383E+03  0.17771462194E+03  0.00000000000E+00 0. -1.
</event>
<event>
 7    1  0.5127424E-006  0.2050987E+03  0.7818608E-02  0.1233920E+00
          2   -1    0    0  502    0  0.00000000000E+00  0.00000000000E+00  0.68468896873E+03  0.68468896873E+03  0.00000000000E+00 0. -1.
          1   -1    0    0  501    0 -0.00000000000E+00 -0.00000000000E+00 -0.21029100967E+04  0.21029100967E+04  0.00000000000E+00 0. -1.
         25    2    1    2    0    0  0.11647928332E+03  0.55995470041E+02 -0.12278896347E+04  0.12409820953E+04  0.12498275832E+03 0.  0.
          2    1    1    2  501    0  0.72562447183E+02  0.26015263287E+02 -0.85103795509E+03  0.85452191527E+03  0.00000000000E+00 0. -1.
          1    1    1    2  502    0 -0.18904173051E+03 -0.82010733329E+02  0.66070646180E+03  0.69209505483E+03  0.00000000000E+00 0. -1.
         22    1    3    3    0    0  0.25932040647E+00  0.54563380087E+02 -0.23185525094E+03  0.23818918339E+03  0.00000000000E+00 0.  1.
         22    1    3    3    0    0  0.11621996292E+03  0.14320899547E+01 -0.99603438371E+03  0.10027929119E+04  0.00000000000E+00 0.  1.
</event>
<event>
 7    1  0.5127424E-006  0.1587622E+03  0.7818608E-02  0.1236884E+00
          2   -1    0    0  502    0  0.00000000000E+00  0.00000000000E+00  0.88251712258E+02  0.88251712258E+02  0.00000000000E+00 0. -1.
          1   -1    0    0  501    0 -0.00000000000E+00 -0.00000000000E+00 -0.23672951001E+04  0.23672951001E+04  0.00000000000E+00 0. -1.
         25    2    1    2    0    0  0.28947631220E+02 -0.18850981866E+02 -0.85066902886E+03  0.86049114247E+03  0.12495553102E+03 0.  0.
          2    1    1    2  501    0 -0.23083562570E+02  0.17750484209E+03 -0.14250609872E+04  0.14362589032E+04  0.00000000000E+00 0. -1.
          1    1    1    2  502    0 -0.58640686500E+01 -0.15865386022E+03 -0.33133717519E+01  0.15879676665E+03  0.00000000000E+00 0. -1.
         22    1    3    3    0    0 -0.37457451409E+02  0.94094586869E+01 -0.54710388866E+03  0.54846537135E+03  0.00000000000E+00 0. -1.
         22    1    3    3    0    0  0.66405082629E+02 -0.28260440553E+02 -0.30356514020E+03  0.31202577112E+03  0.00000000000E+00 0. -1.
</event>
<event>
 7    1  0.5127424E-006  0.7157825E+02  0.7818608E-02  0.1460753E+00
          2   -1    0    0  502    0  0.00000000000E+00  0.00000000000E+00  0.33198556687E+03  0.33198556687E+03  0.00000000000E+00 0. -1.
          1   -1    0    0  501    0 -0.00000000000E+00 -0.00000000000E+00 -0.28199766205E+03  0.28199766205E+03  0.00000000000E+00 0. -1.
         25    2    1    2    0    0 -0.65479956092E+02  0.65003536714E+02 -0.19678284021E+02  0.15660498963E+03  0.12499921391E+03 0.  0.
          2    1    1    2  501    0  0.31013923904E+02 -0.33398445680E+01 -0.18781216317E+03  0.19038494339E+03  0.00000000000E+00 0. -1.
          1    1    1    2  502    0  0.34466032188E+02 -0.61663692146E+02  0.25747835200E+03  0.26699329590E+03  0.00000000000E+00 0. -1.
         22    1    3    3    0    0 -0.41763365671E+02  0.30345768648E+02  0.52163020083E+02  0.73389543201E+02  0.00000000000E+00 0.  1.
         22    1    3    3    0    0 -0.23716590421E+02  0.34657768066E+02 -0.71841304104E+02  0.83215446426E+02  0.00000000000E+00 0.  1.
</event>
<event>
 7    1  0.5127424E-006  0.6423084E+02  0.7818608E-02  0.1510043E+00
          2   -1    0    0  502    0  0.00000000000E+00  0.00000000000E+00  0.92941634710E+03  0.92941634710E+03  0.00000000000E+00 0. -1.
          1   -1    0    0  501    0 -0.00000000000E+00 -0.00000000000E+00 -0.73933318000E+03  0.73933318000E+03  0.00000000000E+00 0. -1.
         25    2    1    2    0    0  0.32535156218E+02 -0.81641696277E+02 -0.48828661451E+02  0.16041726648E+03  0.12500223296E+03 0.  0.
          2    1    1    2  501    0 -0.13491593638E+02  0.20573210638E+02 -0.63330005511E+03  0.63377775276E+03  0.00000000000E+00 0. -1.
          1    1    1    2  502    0 -0.19043562580E+02  0.61068485639E+02  0.87221188366E+03  0.87455450786E+03  0.00000000000E+00 0. -1.
         22    1    3    3    0    0  0.17513157594E+02 -0.95517329320E+02 -0.78162970670E+02  0.12465841678E+03  0.00000000000E+00 0.  1.
         22    1    3    3    0    0  0.15021998624E+02  0.13875633043E+02  0.29334309219E+02  0.35758849707E+02  0.00000000000E+00 0.  1.
</event>
<event>
 7    1  0.5127424E-006  0.1053626E+03  0.7818608E-02  0.1275747E+00
          2   -1    0    0  502    0  0.00000000000E+00  0.00000000000E+00  0.51747926395E+03  0.51747926395E+03  0.00000000000E+00 0. -1.
          1   -1    0    0  501    0 -0.00000000000E+00 -0.00000000000E+00 -0.23996759356E+03  0.23996759356E+03  0.00000000000E+00 0. -1.
         25    2    1    2    0    0  0.16544733881E+02 -0.84913454988E+01  0.13872323514E+03  0.18765628311E+03  0.12499965381E+03 0.  0.
          2    1    1    2  501    0 -0.11309966445E+03 -0.13924765916E+02 -0.19266000035E+03  0.22383768436E+03  0.00000000000E+00 0. -1.
          1    1    1    2  502    0  0.96554930567E+02  0.22416111414E+02  0.33144843560E+03  0.34595289005E+03  0.00000000000E+00 0. -1.
         22    1    3    3    0    0 -0.29494393390E+02  0.45919937866E+02  0.51775200679E+02  0.75227862793E+02  0.00000000000E+00 0.  1.
         22    1    3    3    0    0  0.46039127271E+02 -0.54411283365E+02  0.86948034462E+02  0.11242842031E+03  0.00000000000E+00 0.  1.
</event>
<event>
 7    1  0.5127424E-006  0.9009910E+02  0.7818608E-02  0.1410030E+00
          2   -1    0    0  502    0  0.00000000000E+00  0.00000000000E+00  0.66325639051E+02  0.66325639051E+02  0.00000000000E+00 0. -1.
          1   -1    0    0  501    0 -0.00000000000E+00 -0.00000000000E+00 -0.77473860323E+03  0.77473860323E+03  0.00000000000E+00 0. -1.
         25    2    1    2    0    0 -0.39951721270E+02 -0.41352754541E+02 -0.46035789944E+03  0.48047947741E+03  0.12499976917E+03 0.  0.
          2    1    1    2  501    0 -0.16597738020E+02 -0.32280488845E+02 -0.26391339193E+03  0.26639781026E+03  0.00000000000E+00 0. -1.
          1    1    1    2  502    0  0.56549459290E+02  0.73633243386E+02  0.15858327199E+02  0.94186954613E+02  0.00000000000E+00 0. -1.
         22    1    3    3    0    0  0.37115343062E+02 -0.67295342100E+01 -0.56880172662E+02  0.68250929396E+02  0.00000000000E+00 0.  1.
         22    1    3    3    0    0 -0.77067064332E+02 -0.34623220331E+02 -0.40347772678E+03  0.41222854801E+03  0.00000000000E+00 0.  1.
</event>
<event>
 7    1  0.5127424E-006  0.9585701E+02  0.7818608E-02  0.1404519E+00
          2   -1    0    0  502    0  0.00000000000E+00  0.00000000000E+00  0.10064377891E+04  0.10064377891E+04  0.00000000000E+00 0. -1.
          1   -1    0    0  501    0 -0.00000000000E+00 -0.00000000000E+00 -0.52716102474E+02  0.52716102474E+02  0.00000000000E+00 0. -1.
         25    2    1    2    0    0  0.84435317203E+02 -0.59142994800E+02  0.22213909030E+03  0.27494035048E+03  0.12497681488E+03 0.  0.
          2    1    1    2  501    0 -0.54186440271E+02  0.77956634309E+02  0.61353166276E+02  0.11303812699E+03  0.00000000000E+00 0. -1.
          1    1    1    2  502    0 -0.30248876933E+02 -0.18813639508E+02  0.67022943001E+03  0.67117541406E+03  0.00000000000E+00 0. -1.
         22    1    3    3    0    0  0.56916614109E+02 -0.14958390909E+02  0.14136669660E+02  0.60523547891E+02  0.00000000000E+00 0. -1.
         22    1    3    3    0    0  0.27518703094E+02 -0.44184603891E+02  0.20800242064E+03  0.21441680259E+03  0.00000000000E+00 0. -1.
</event>
<event>
 7    1  0.5127424E-006  0.6765556E+02  0.7818608E-02  0.1390254E+00
          2   -1    0    0  502    0  0.00000000000E+00  0.00000000000E+00  0.10700306690E+03  0.10700306690E+03  0.00000000000E+00 0. -1.
          1   -1    0    0  501    0 -0.00000000000E+00 -0.00000000000E+00 -0.39664282053E+03  0.39664282053E+03  0.00000000000E+00 0. -1.
         25    2    1    2    0    0 -0.20777697359E+02  0.69921162805E+02 -0.85750428342E+02  0.16822434275E+03  0.12500244725E+03 0.  0.
          2    1    1    2  501    0 -0.41582917984E+02 -0.38296508401E+02 -0.24692784584E+03  0.25331625031E+03  0.00000000000E+00 0. -1.
          1    1    1    2  502    0  0.62360615343E+02 -0.31624654404E+02  0.43038520547E+02  0.82105294366E+02  0.00000000000E+00 0. -1.
         22    1    3    3    0    0 -0.21980941695E+02 -0.19888162643E+00  0.27384802098E+02  0.35115932818E+02  0.00000000000E+00 0.  1.
         22    1    3    3    0    0  0.12032443363E+01  0.70120044431E+02 -0.11313523044E+03  0.13310840993E+03  0.00000000000E+00 0.  1.
</event>
<event>
 7    1  0.5127424E-006  0.1000236E+03  0.7818608E-02  0.1371719E+00
          2   -1    0    0  502    0  0.00000000000E+00  0.00000000000E+00  0.27751314324E+03  0.27751314324E+03  0.00000000000E+00 0. -1.
          1   -1    0    0  501    0 -0.00000000000E+00 -0.00000000000E+00 -0.13517446620E+04  0.13517446620E+04  0.00000000000E+00 0. -1.
         25    2    1    2    0    0 -0.76392770325E+02  0.56475192188E+02 -0.51933471420E+03  0.54255129717E+03  0.12501224736E+03 0.  0.
          2    1    1    2  501    0  0.10159619133E+03 -0.19840449802E+02 -0.81564824592E+03  0.82219066560E+03  0.00000000000E+00 0. -1.
          1    1    1    2  502    0 -0.25203421006E+02 -0.36634742386E+02  0.26075144133E+03  0.26451584250E+03  0.00000000000E+00 0. -1.
         22    1    3    3    0    0 -0.70372946801E+02  0.46829241299E+01 -0.11526017982E+03  0.13512657204E+03  0.00000000000E+00 0.  1.
         22    1    3    3    0    0 -0.60198235236E+01  0.51792268058E+02 -0.40407453438E+03  0.40742472512E+03  0.00000000000E+00 0.  1.
</event>
<event>
 7    1  0.5127424E-006  0.6989578E+02  0.7818608E-02  0.1389875E+00
          2   -1    0    0  502    0  0.00000000000E+00  0.00000000000E+00  0.67953485485E+03  0.67953485485E+03  0.00000000000E+00 0. -1.
          1   -1    0    0  501    0 -0.00000000000E+00 -0.00000000000E+00 -0.36224409290E+03  0.36224409290E+03  0.00000000000E+00 0. -1.
         25    2    1    2    0    0  0.18239012131E+02 -0.21109901598E+02  0.12396336520E+02  0.12867099586E+03  0.12499706599E+03 0.  0.
          2    1    1    2  501    0 -0.72130519551E+02  0.10709144377E+02 -0.29847175569E+03  0.30725052737E+03  0.00000000000E+00 0. -1.
          1    1    1    2  502    0  0.53891507420E+02  0.10400757220E+02  0.60336618112E+03  0.60585742452E+03  0.00000000000E+00 0. -1.
         22    1    3    3    0    0  0.34832777532E+02  0.43942775440E+02  0.23177277269E+02  0.60675168608E+02  0.00000000000E+00 0. -1.
         22    1    3    3    0    0 -0.16593765401E+02 -0.65052677038E+02 -0.10780940749E+02  0.67995827250E+02  0.00000000000E+00 0. -1.
</event>
<event>
 7    1  0.5127424E-006  0.4939264E+02  0.7818608E-02  0.1573055E+00
          2   -1    0    0  502    0  0.00000000000E+00  0.00000000000E+00  0.49639554714E+03  0.49639554714E+03  0.00000000000E+00 0. -1.
          1   -1    0    0  501    0 -0.00000000000E+00 -0.00000000000E+00 -0.44811343774E+02  0.44811343774E+02  0.00000000000E+00 0. -1.
         25    2    1    2    0    0 -0.32408720598E+02  0.51523927884E+02  0.42204681354E+03  0.44435807248E+03  0.12500217377E+03 0.  0.
          2    1    1    2  501    0  0.37953006555E+02 -0.31016610368E+02 -0.11761704305E+02  0.50406334061E+02  0.00000000000E+00 0. -1.
          1    1    1    2  502    0 -0.55442859566E+01 -0.20507317516E+02  0.41299094135E+02  0.46442484374E+02  0.00000000000E+00 0. -1.
         22    1    3    3    0    0 -0.14678314143E+01 -0.16517431101E+02  0.87559840920E+00  0.16605623500E+02  0.00000000000E+00 0.  1.
         22    1    3    3    0    0 -0.30940889184E+02  0.68041358985E+02  0.42117121513E+03  0.42775244898E+03  0.00000000000E+00 0.  1.
</event>
<event>
 7    1  0.5127424E-006  0.9047617E+02  0.7818608E-02  0.1337316E+00
          2   -1    0    0  502    0  0.00000000000E+00  0.00000000000E+00  0.44583538961E+03  0.44583538961E+03  0.00000000000E+00 0. -1.
          1   -1    0    0  501    0 -0.00000000000E+00 -0.00000000000E+00 -0.23212190311E+03  0.23212190311E+03  0.00000000000E+00 0. -1.
         25    2    1    2    0    0 -0.43729066042E+02  0.73348203473E+02  0.83753234887E+02  0.17300798611E+03  0.12499987493E+03 0.  0.
          2    1    1    2  501    0 -0.19719708383E+02 -0.90780802295E+02 -0.17222557135E+03  0.19568257048E+03  0.00000000000E+00 0. -1.
          1    1    1    2  502    0  0.63448774425E+02  0.17432598822E+02  0.30218582296E+03  0.30926673613E+03  0.00000000000E+00 0. -1.
         22    1    3    3    0    0 -0.84973770259E+02  0.34156519822E+02  0.34865892503E+02  0.97994081140E+02  0.00000000000E+00 0.  1.
         22    1    3    3    0    0  0.41244704217E+02  0.39191683651E+02  0.48887342384E+02  0.75013904969E+02  0.00000000000E+00 0.  1.
</event>
<event>
 7    1  0.5127424E-006  0.4101002E+02  0.7818608E-02  0.1556235E+00
          2   -1    0    0  502    0  0.00000000000E+00  0.00000000000E+00  0.19530142590E+04  0.19530142590E+04  0.00000000000E+00 0. -1.
          1   -1    0    0  501    0 -0.00000000000E+00 -0.00000000000E+00 -0.64171405851E+03  0.64171405851E+03  0.00000000000E+00 0. -1.
         25    2    1    2    0    0 -0.17988037778E+02 -0.37263453803E+02  0.10666784698E+02  0.13211023377E+03  0.12500879601E+03 0.  0.
          2    1    1    2  501    0  0.37584906291E+02  0.16644736381E+02 -0.58015758540E+03  0.58161198090E+03  0.00000000000E+00 0. -1.
          1    1    1    2  502    0 -0.19596868513E+02  0.20618717422E+02  0.18807910012E+04  0.18810061029E+04  0.00000000000E+00 0. -1.
         22    1    3    3    0    0  0.28396213859E+02 -0.36404855882E+02  0.52308782390E+02  0.69770102540E+02  0.00000000000E+00 0.  1.
         22    1    3    3    0    0 -0.46384251638E+02 -0.85859792157E+00 -0.41641997692E+02  0.62340131233E+02  0.00000000000E+00 0.  1.
</event>
<event>
 7    1  0.5127424E-006  0.3926734E+02  0.7818608E-02  0.1557229E+00
          2   -1    0    0  502    0  0.00000000000E+00  0.00000000000E+00  0.13971920408E+04  0.13971920408E+04  0.00000000000E+00 0. -1.
          1   -1    0    0  501    0 -0.00000000000E+00 -0.00000000000E+00 -0.10200046992E+03  0.10200046992E+03  0.00000000000E+00 0. -1.
         25    2    1    2    0    0 -0.10413278689E+02 -0.14762105444E+02  0.16615073954E+03  0.20870305068E+03  0.12499815592E+03 0.  0.
          2    1    1    2  501    0 -0.28572042362E+02  0.74245547487E+01 -0.77688479519E+02  0.83108275568E+02  0.00000000000E+00 0. -1.
          1    1    1    2  502    0  0.38985321051E+02  0.73375506952E+01  0.12067293109E+04  0.12073811845E+04  0.00000000000E+00 0. -1.
         22    1    3    3    0    0 -0.89016388299E+01 -0.69890837890E+02  0.82260093208E+02  0.10830831607E+03  0.00000000000E+00 0.  1.
         22    1    3    3    0    0 -0.15116398589E+01  0.55128732446E+02  0.83890646331E+02  0.10039473461E+03  0.00000000000E+00 0.  1.
</event>
<event>
 7    1  0.5127424E-006  0.1002642E+03  0.7818608E-02  0.1364977E+00
          2   -1    0    0  502    0  0.00000000000E+00  0.00000000000E+00  0.88390430601E+02  0.88390430601E+02  0.00000000000E+00 0. -1.
          1   -1    0    0  501    0 -0.00000000000E+00 -0.00000000000E+00 -0.22579370439E+04  0.22579370439E+04  0.00000000000E+00 0. -1.
         25    2    1    2    0    0 -0.11606766445E+03  0.10213868140E+02 -0.50451943279E+03  0.53267310972E+03  0.12499903170E+03 0.  0.
          2    1    1    2  501    0  0.21390784794E+02 -0.41752774470E+02 -0.17053708213E+04  0.17060159724E+04  0.00000000000E+00 0. -1.
          1    1    1    2  502    0  0.94676879659E+02  0.31538906330E+02  0.40343640834E+02  0.10763839236E+03  0.00000000000E+00 0. -1.
         22    1    3    3    0    0 -0.35129287378E+02  0.19418838035E+02 -0.39042497420E+03  0.39248288953E+03  0.00000000000E+00 0.  1.
         22    1    3    3    0    0 -0.80938377074E+02 -0.92049698949E+01 -0.11409445859E+03  0.14019022018E+03  0.00000000000E+00 0.  1.
</event>
<event>
 7    1  0.5127424E-006  0.8775387E+02  0.7818608E-02  0.1356389E+00
          2   -1    0    0  502    0  0.00000000000E+00  0.00000000000E+00  0.59011826483E+03  0.59011826483E+03  0.00000000000E+00 0. -1.
          1   -1    0    0  501    0 -0.00000000000E+00 -0.00000000000E+00 -0.26923270597E+04  0.26923270597E+04  0.00000000000E+00 0. -1.
         25    2    1    2    0    0  0.12695677853E+03  0.62693758700E+02 -0.27137370615E+03  0.33063194467E+03  0.12500105381E+03 0.  0.
          2    1    1    2  501    0 -0.82256622672E+02 -0.26353619256E+02 -0.23890614404E+04  0.23906223523E+04  0.00000000000E+00 0. -1.
          1    1    1    2  502    0 -0.44700155861E+02 -0.36340139444E+02  0.55822635170E+03  0.56119102755E+03  0.00000000000E+00 0. -1.
         22    1    3    3    0    0  0.86186770029E+02  0.76896555495E+02 -0.26217360085E+03  0.28648950514E+03  0.00000000000E+00 0. -1.
         22    1    3    3    0    0  0.40770008503E+02 -0.14202796795E+02 -0.92001053015E+01  0.44142439531E+02  0.00000000000E+00 0. -1.
</event>
<event>
 7    1  0.5127424E-006  0.8960533E+02  0.7818608E-02  0.1328166E+00
          2   -1    0    0  502    0  0.00000000000E+00  0.00000000000E+00  0.12216190569E+04  0.12216190569E+04  0.00000000000E+00 0. -1.
          1   -1    0    0  501    0 -0.00000000000E+00 -0.00000000000E+00 -0.42836243625E+02  0.42836243625E+02  0.00000000000E+00 0. -1.
         25    2    1    2    0    0  0.60655385751E+02  0.57575624592E+02  0.32224383922E+03  0.35561122747E+03  0.12499689925E+03 0.  0.
          2    1    1    2  501    0  0.33575372472E+02 -0.63673801879E+02  0.31762683156E+02  0.78679900379E+02  0.00000000000E+00 0. -1.
          1    1    1    2  502    0 -0.94230758223E+02  0.60981772863E+01  0.82477629093E+03  0.83016417270E+03  0.00000000000E+00 0. -1.
         22    1    3    3    0    0  0.97771956759E+02  0.54365954596E+02  0.22038094555E+03  0.24714929437E+03  0.00000000000E+00 0.  1.
         22    1    3    3    0    0 -0.37116571008E+02  0.32096699964E+01  0.10186289367E+03  0.10846193310E+03  0.00000000000E+00 0.  1.
</event>
<event>
 7    1  0.5127424E-006  0.1824514E+03  0.7818608E-02  0.1236315E+00
          2   -1    0    0  502    0  0.00000000000E+00  0.00000000000E+00  0.27003984069E+04  0.27003984069E+04  0.00000000000E+00 0. -1.
          1   -1    0    0  501    0 -0.00000000000E+00 -0.00000000000E+00 -0.14105894543E+04  0.14105894543E+04  0.00000000000E+00 0. -1.
         25    2    1    2    0    0 -0.17781824517E+03  0.97789095200E+02  0.64674886356E+03  0.68926879733E+03  0.12500138803E+03 0.  0.
          2    1    1    2  501    0  0.10870799665E+03 -0.14650542953E+03 -0.13824549075E+04  0.13944399738E+04  0.00000000000E+00 0. -1.
          1    1    1    2  502    0  0.69110248524E+02  0.48716334327E+02  0.20255149965E+04  0.20272790900E+04  0.00000000000E+00 0. -1.
         22    1    3    3    0    0 -0.25714307387E+01 -0.18924711986E+02  0.12800150637E+03  0.12941847864E+03  0.00000000000E+00 0. -1.
         22    1    3    3    0    0 -0.17524681443E+03  0.11671380719E+03  0.51874735719E+03  0.55985031869E+03  0.00000000000E+00 0. -1.
</event>
<event>
 7    1  0.5127424E-006  0.6970812E+02  0.7818608E-02  0.1381165E+00
          2   -1    0    0  502    0  0.00000000000E+00  0.00000000000E+00  0.51898604964E+03  0.51898604964E+03  0.00000000000E+00 0. -1.
          1   -1    0    0  501    0 -0.00000000000E+00 -0.00000000000E+00 -0.64473621100E+03  0.64473621100E+03  0.00000000000E+00 0. -1.
         25    2    1    2    0    0 -0.52571642105E+02  0.45281214769E+02  0.18960355687E+03  0.23747140675E+03  0.12501597610E+03 0.  0.
          2    1    1    2  501    0  0.51828382858E+02  0.28298452906E+02 -0.61493568852E+03  0.61776442494E+03  0.00000000000E+00 0. -1.
          1    1    1    2  502    0  0.74325924626E+00 -0.73579667675E+02  0.29958197029E+03  0.30848642896E+03  0.00000000000E+00 0. -1.
         22    1    3    3    0    0 -0.93368576719E+02  0.24312467162E+02  0.11782169390E+03  0.15228505748E+03  0.00000000000E+00 0.  1.
         22    1    3    3    0    0  0.40796934614E+02  0.20968747606E+02  0.71781862972E+02  0.85186349269E+02  0.00000000000E+00 0.  1.
</event>
<event>
 7    1  0.5127424E-006  0.1623403E+03  0.7818608E-02  0.1241362E+00
          2   -1    0    0  502    0  0.00000000000E+00  0.00000000000E+00  0.20749623166E+04  0.20749623166E+04  0.00000000000E+00 0. -1.
          1   -1    0    0  501    0 -0.00000000000E+00 -0.00000000000E+00 -0.41212813664E+03  0.41212813664E+03  0.00000000000E+00 0. -1.
         25    2    1    2    0    0 -0.30094138020E+02  0.75625540281E+02  0.15756679611E+03  0.21696414103E+03  0.12498505420E+03 0.  0.
          2    1    1    2  501    0  0.44480830242E+02 -0.16474526005E+03 -0.36224885450E+03  0.40042949137E+03  0.00000000000E+00 0. -1.
          1    1    1    2  502    0 -0.14386692222E+02  0.89119719768E+02  0.18675162383E+04  0.18696968208E+04  0.00000000000E+00 0. -1.
         22    1    3    3    0    0  0.44178610493E+02  0.50496733212E+02  0.49174857018E+02  0.83185553151E+02  0.00000000000E+00 0. -1.
         22    1    3    3    0    0 -0.74272748512E+02  0.25128807068E+02  0.10839193909E+03  0.13377858788E+03  0.00000000000E+00 0. -1.
</event>
<event>
 7    1  0.5127424E-006  0.1237276E+03  0.7818608E-02  0.1311232E+00
          2   -1    0    0  502    0  0.00000000000E+00  0.00000000000E+00  0.74728349578E+03  0.74728349578E+03  0.00000000000E+00 0. -1.
          1   -1    0    0  501    0 -0.00000000000E+00 -0.00000000000E+00 -0.13334389124E+04  0.13334389124E+04  0.00000000000E+00 0. -1.
         25    2    1    2    0    0 -0.15748847219E+03  0.79391285365E+02  0.65056565355E+02  0.22574850979E+03  0.12499775163E+03 0.  0.
          2    1    1    2  501    0  0.11810993563E+03 -0.33262070590E+02 -0.12485498004E+04  0.12545648354E+04  0.00000000000E+00 0. -1.
          1    1    1    2  502    0  0.39378536556E+02 -0.46129214774E+02  0.59733781840E+03  0.60040906297E+03  0.00000000000E+00 0. -1.
         22    1    3    3    0    0 -0.57225917164E+02 -0.30105547711E+02  0.37493549884E+02  0.74745674665E+02  0.00000000000E+00 0. -1.
         22    1    3    3    0    0 -0.10026255503E+03  0.10949683308E+03  0.27563015472E+02  0.15100283513E+03  0.00000000000E+00 0. -1.
</event>
<event>
 7    1  0.5127424E-006  0.5856959E+02  0.7818608E-02  0.1421607E+00
          2   -1    0    0  502    0  0.00000000000E+00  0.00000000000E+00  0.18113020548E+04  0.18113020548E+04  0.00000000000E+00 0. -1.
          1   -1    0    0  501    0 -0.00000000000E+00 -0.00000000000E+00 -0.15132984536E+03  0.15132984536E+03  0.00000000000E+00 0. -1.
         25    2    1    2    0    0 -0.56347531740E+02 -0.21264746400E+02  0.77734529316E+02  0.15904168948E+03  0.12499747266E+03 0.  0.
          2    1    1    2  501    0  0.37629343909E+02 -0.34502727508E+02 -0.10424860422E+03  0.11607832361E+03  0.00000000000E+00 0. -1.
          1    1    1    2  502    0  0.18718187831E+02  0.55767473908E+02  0.16864862843E+04  0.16875118870E+04  0.00000000000E+00 0. -1.
         22    1    3    3    0    0  0.52981816364E+01 -0.56662321924E+02  0.65740577119E+02  0.86951210080E+02  0.00000000000E+00 0. -1.
         22    1    3    3    0    0 -0.61645713377E+02  0.35397575523E+02  0.11993952197E+02  0.72090479399E+02  0.00000000000E+00 0. -1.
</event>
<event>
 7    1  0.5127424E-006  0.2088861E+03  0.7818608E-02  0.1278157E+00
          2   -1    0    0  502    0  0.00000000000E+00  0.00000000000E+00  0.60237105955E+03  0.60237105955E+03  0.00000000000E+00 0. -1.
          1   -1    0    0  501    0 -0.00000000000E+00 -0.00000000000E+00 -0.83424555196E+03  0.83424555196E+03  0.00000000000E+00 0. -1.
         25    2    1    2    0    0  0.25455495085E+03  0.30061727572E+01 -0.28891420053E+03  0.40485252443E+03  0.12500756453E+03 0.  0.
          2    1    1    2  501    0 -0.48289426719E+02 -0.74369838639E+01 -0.46649371755E+03  0.46904537731E+03  0.00000000000E+00 0. -1.
          1    1    1    2  502    0 -0.20626552413E+03  0.44308111068E+01  0.52353342567E+03  0.56271870977E+03  0.00000000000E+00 0. -1.
         22    1    3    3    0    0  0.69505994766E+02 -0.64766548015E+00 -0.17306180994E+03  0.18649904246E+03  0.00000000000E+00 0. -1.
         22    1    3    3    0    0  0.18504895608E+03  0.36538382373E+01 -0.11585239059E+03  0.21835348197E+03  0.00000000000E+00 0. -1.
</event>
<event>
 7    1  0.5127424E-006  0.4941321E+02  0.7818608E-02  0.1571532E+00
          2   -1    0    0  502    0  0.00000000000E+00  0.00000000000E+00  0.42657606002E+03  0.42657606002E+03  0.00000000000E+00 0. -1.
          1   -1    0    0  501    0 -0.00000000000E+00 -0.00000000000E+00 -0.51927024042E+03  0.51927024042E+03  0.00000000000E+00 0. -1.
         25    2    1    2    0    0 -0.14096579729E+02  0.54774377101E+02  0.14386284651E+03  0.19879960430E+03  0.12500327243E+03 0.  0.
          2    1    1    2  501    0 -0.15068092510E+02 -0.15248307351E+02 -0.48920163990E+03  0.48967111694E+03  0.00000000000E+00 0. -1.
          1    1    1    2  502    0  0.29164672239E+02 -0.39526069751E+02  0.25264461299E+03  0.25737557920E+03  0.00000000000E+00 0. -1.
         22    1    3    3    0    0 -0.11844646484E+02 -0.13891397400E+02  0.12666945559E+03  0.12797819170E+03  0.00000000000E+00 0. -1.
         22    1    3    3    0    0 -0.22519332444E+01  0.68665774502E+02  0.17193390919E+02  0.70821412599E+02  0.00000000000E+00 0. -1.
</event>
<event>
 7    1  0.5127424E-006  0.7032835E+02  0.7818608E-02  0.1436405E+00
          2   -1    0    0  502    0  0.00000000000E+00  0.00000000000E+00  0.17360102844E+04  0.17360102844E+04  0.00000000000E+00 0. -1.
          1   -1    0    0  501    0 -0.00000000000E+00 -0.00000000000E+00 -0.61169830681E+02  0.61169830681E+02  0.00000000000E+00 0. -1.
         25    2    1    2    0    0 -0.56239964743E+02 -0.47807014203E+02  0.13490321890E+03  0.19817288784E+03  0.12500068306E+03 0.  0.
          2    1    1    2  501    0  0.70404740891E+02  0.12546549226E+02  0.14340838197E+02  0.72937665698E+02  0.00000000000E+00 0. -1.
          1    1    1    2  502    0 -0.14164776147E+02  0.35260464977E+02  0.15255963966E+04  0.15260695615E+04  0.00000000000E+00 0. -1.
         22    1    3    3    0    0 -0.69403750278E+02  0.11816073197E+02  0.29441036281E+02  0.76310384324E+02  0.00000000000E+00 0.  1.
         22    1    3    3    0    0  0.13163785535E+02 -0.59623087400E+02  0.10546218262E+03  0.12186250352E+03  0.00000000000E+00 0.  1.
</event>
<event>
 7    1  0.5127424E-006  0.7025166E+02  0.7818608E-02  0.1439211E+00
          2   -1    0    0  502    0  0.00000000000E+00  0.00000000000E+00  0.25140001714E+04  0.25140001714E+04  0.00000000000E+00 0. -1.
          1   -1    0    0  501    0 -0.00000000000E+00 -0.00000000000E+00 -0.20337322224E+02  0.20337322224E+02  0.00000000000E+00 0. -1.
         25    2    1    2    0    0  0.37190118049E+02 -0.39585724154E+02  0.40924250214E+03  0.43134008783E+03  0.12499884549E+03 0.  0.
          2    1    1    2  501    0 -0.21693284147E+02 -0.30280354801E+02  0.31366218899E+02  0.48696387463E+02  0.00000000000E+00 0. -1.
          1    1    1    2  502    0 -0.15496833901E+02  0.69866078955E+02  0.20530541281E+04  0.20543010183E+04  0.00000000000E+00 0. -1.
         22    1    3    3    0    0  0.62246425431E+02  0.21138469437E+02  0.26177712516E+03  0.26990501223E+03  0.00000000000E+00 0.  1.
         22    1    3    3    0    0 -0.25056307382E+02 -0.60724193591E+02  0.14746537698E+03  0.16143507561E+03  0.00000000000E+00 0.  1.
</event>
<event>
 7    1  0.5127424E-006  0.1119233E+03  0.7818608E-02  0.1258785E+00
          2   -1    0    0  502    0  0.00000000000E+00  0.00000000000E+00  0.64266868630E+03  0.64266868630E+03  0.00000000000E+00 0. -1.
          1   -1    0    0  501    0 -0.00000000000E+00 -0.00000000000E+00 -0.20260064341E+03  0.20260064341E+03  0.00000000000E+00 0. -1.
         25    2    1    2    0    0 -0.36397422933E+02  0.21810950503E+01  0.45674460273E+02  0.13798636010E+03  0.12499819871E+03 0.  0.
          2    1    1    2  501    0  0.11789511035E+03 -0.76095211964E+02 -0.11791957791E+03  0.18328874811E+03  0.00000000000E+00 0. -1.
          1    1    1    2  502    0 -0.81497687416E+02  0.73914116914E+02  0.51231316052E+03  0.52399422151E+03  0.00000000000E+00 0. -1.
         22    1    3    3    0    0 -0.27327462150E+02 -0.29957172223E+02  0.80253104685E+02  0.89915422296E+02  0.00000000000E+00 0. -1.
         22    1    3    3    0    0 -0.90699607834E+01  0.32138267273E+02 -0.34578644411E+02  0.48070937803E+02  0.00000000000E+00 0. -1.
</event>
<event>
 7    1  0.5127424E-006  0.1090126E+03  0.7818608E-02  0.1354776E+00
          2   -1    0    0  502    0  0.00000000000E+00  0.00000000000E+00  0.16879391022E+03  0.16879391022E+03  0.00000000000E+00 0. -1.
          1   -1    0    0  501    0 -0.00000000000E+00 -0.00000000000E+00 -0.16105224854E+04  0.16105224854E+04  0.00000000000E+00 0. -1.
         25    2    1    2    0    0  0.84657133182E+02 -0.56751760702E+02 -0.66654598857E+03  0.68578101317E+03  0.12499780241E+03 0.  0.
          2    1    1    2  501    0  0.23629901879E+02  0.40640821940E+02 -0.91485933652E+03  0.91606640278E+03  0.00000000000E+00 0. -1.
          1    1    1    2  502    0 -0.10828703506E+03  0.16110938761E+02  0.13967674987E+03  0.17746897972E+03  0.00000000000E+00 0. -1.
         22    1    3    3    0    0  0.52960534606E+02 -0.88850264561E+02 -0.31977506453E+03  0.33608820216E+03  0.00000000000E+00 0. -1.
         22    1    3    3    0    0  0.31696598576E+02  0.32098503859E+02 -0.34677092403E+03  0.34969281100E+03  0.00000000000E+00 0. -1.
</event>
<event>
 7    1  0.5127424E-006  0.1001039E+03  0.7818608E-02  0.1305258E+00
          2   -1    0    0  502    0  0.00000000000E+00  0.00000000000E+00  0.31782576155E+03  0.31782576155E+03  0.00000000000E+00 0. -1.
          1   -1    0    0  501    0 -0.00000000000E+00 -0.00000000000E+00 -0.68929382260E+03  0.68929382260E+03  0.00000000000E+00 0. -1.
         25    2    1    2    0    0 -0.76910321087E+02 -0.77834543674E+02 -0.30652008993E+03  0.34864386813E+03  0.12499827030E+03 0.  0.
          2    1    1    2  501    0  0.24857143062E+01  0.10477834825E+03 -0.34858574624E+03  0.36400096637E+03  0.00000000000E+00 0. -1.
          1    1    1    2  502    0  0.74424606780E+02 -0.26943804581E+02  0.28363777512E+03  0.29447474964E+03  0.00000000000E+00 0. -1.
         22    1    3    3    0    0  0.20539013065E+02 -0.59046853716E+02 -0.81550356395E+02  0.10275622910E+03  0.00000000000E+00 0.  1.
         22    1    3    3    0    0 -0.97449334151E+02 -0.18787689957E+02 -0.22496973353E+03  0.24588763903E+03  0.00000000000E+00 0.  1.
</event>
<event>
 7    1  0.5127424E-006  0.4318040E+02  0.7818608E-02  0.1511010E+00
          2   -1    0    0  502    0  0.00000000000E+00  0.00000000000E+00  0.15392938069E+04  0.15392938069E+04  0.00000000000E+00 0. -1.
          1   -1    0    0  501    0 -0.00000000000E+00 -0.00000000000E+00 -0.12542330003E+03  0.12542330003E+03  0.00000000000E+00 0. -1.
         25    2    1    2    0    0  0.75827115499E+02 -0.12545374156E+02  0.38754693661E+02  0.15176988223E+03  0.12500013206E+03 0.  0.
          2    1    1    2  501    0 -0.32923152569E+02  0.15424556191E+02 -0.63776890551E+02  0.73412142573E+02  0.00000000000E+00 0. -1.
          1    1    1    2  502    0 -0.42903962930E+02 -0.28791820349E+01  0.14388927038E+04  0.14395350822E+04  0.00000000000E+00 0. -1.
         22    1    3    3    0    0  0.50884838712E+02  0.30269402547E+02  0.71155325513E+02  0.92566645668E+02  0.00000000000E+00 0. -1.
         22    1    3    3    0    0  0.24942276787E+02 -0.42814776703E+02 -0.32400631852E+02  0.59203236566E+02  0.00000000000E+00 0. -1.
</event>
<event>
 7    1  0.5127424E-006  0.1019205E+03  0.7818608E-02  0.1277914E+00
          2   -1    0    0  502    0  0.00000000000E+00  0.00000000000E+00  0.75862039212E+03  0.75862039212E+03  0.00000000000E+00 0. -1.
          1   -1    0    0  501    0 -0.00000000000E+00 -0.00000000000E+00 -0.22622191858E+03  0.22622191858E+03  0.00000000000E+00 0. -1.
         25    2    1    2    0    0  0.15633981398E+03 -0.12236782337E+02  0.25863906281E+03  0.32727291147E+03  0.12498606921E+03 0.  0.
          2    1    1    2  501    0 -0.73569661809E+02  0.69006707491E+02 -0.17268258530E+03  0.19998423959E+03  0.00000000000E+00 0. -1.
          1    1    1    2  502    0 -0.82770152168E+02 -0.56769925154E+02  0.44644199603E+03  0.45758515963E+03  0.00000000000E+00 0. -1.
         22    1    3    3    0    0  0.28961851119E+02 -0.30020555780E+01  0.16839517670E+03  0.17089393405E+03  0.00000000000E+00 0.  1.
         22    1    3    3    0    0  0.12737796286E+03 -0.92347267591E+01  0.90243886109E+02  0.15637897742E+03  0.00000000000E+00 0.  1.
</event>
<event>
 7    1  0.5127424E-006  0.3551370E+03  0.7818608E-02  0.1133269E+00
          2   -1    0    0  502    0  0.00000000000E+00  0.00000000000E+00  0.36476853194E+04  0.36476853194E+04  0.00000000000E+00 0. -1.
          1   -1    0    0  501    0 -0.00000000000E+00 -0.00000000000E+00 -0.22200365095E+04  0.22200365095E+04  0.00000000000E+00 0. -1.
         25    2    1    2    0    0 -0.35639868857E+03  0.36830199033E+02 -0.28572328901E+03  0.47501528035E+03  0.12500091961E+03 0.  0.
          2    1    1    2  501    0  0.14977304441E+02 -0.13649154382E+03 -0.18281852238E+04  0.18333345232E+04  0.00000000000E+00 0. -1.
          1    1    1    2  502    0  0.34142138413E+03  0.99661344783E+02  0.35415573227E+04  0.35593720254E+04  0.00000000000E+00 0. -1.
         22    1    3    3    0    0 -0.10220165032E+03  0.98554583116E+01 -0.16008835418E+03  0.19018566857E+03  0.00000000000E+00 0. -1.
         22    1    3    3    0    0 -0.25419703825E+03  0.26974740721E+02 -0.12563493483E+03  0.28482961178E+03  0.00000000000E+00 0. -1.
</event>
<event>
 7    1  0.5127424E-006  0.8289053E+02  0.7818608E-02  0.1450569E+00
          2   -1    0    0  502    0  0.00000000000E+00  0.00000000000E+00  0.11975000353E+04  0.11975000353E+04  0.00000000000E+00 0. -1.
          1   -1    0    0  501    0 -0.00000000000E+00 -0.00000000000E+00 -0.12595991405E+03  0.12595991405E+03  0.00000000000E+00 0. -1.
         25    2    1    2    0    0 -0.10208711295E+02  0.82506986222E+02  0.50295740518E+03  0.52488371073E+03  0.12500055119E+03 0.  0.
          2    1    1    2  501    0 -0.18763105061E+02 -0.80879633383E+02 -0.99654308130E+02  0.12970948437E+03  0.00000000000E+00 0. -1.
          1    1    1    2  502    0  0.28971816356E+02 -0.16273528387E+01  0.66823702420E+03  0.66886675424E+03  0.00000000000E+00 0. -1.
         22    1    3    3    0    0 -0.39913582177E+02  0.90856314088E+02  0.46733769888E+03  0.47775777193E+03  0.00000000000E+00 0.  1.
         22    1    3    3    0    0  0.29704870882E+02 -0.83493278665E+01  0.35619706308E+02  0.47125938796E+02  0.00000000000E+00 0.  1.
</event>
<event>
 7    1  0.5127424E-006  0.9573776E+02  0.7818608E-02  0.1326888E+00
          2   -1    0    0  502    0  0.00000000000E+00  0.00000000000E+00  0.40495252706E+03  0.40495252706E+03  0.00000000000E+00 0. -1.
          1   -1    0    0  501    0 -0.00000000000E+00 -0.00000000000E+00 -0.68007742181E+03  0.68007742181E+03  0.00000000000E+00 0. -1.
         25    2    1    2    0    0  0.14725860180E+03 -0.43223323951E+02 -0.29192000557E+03  0.35269968015E+03  0.12500569265E+03 0.  0.
          2    1    1    2  501    0 -0.80322080785E+02  0.30485166759E+02 -0.34942176945E+03  0.35982850779E+03  0.00000000000E+00 0. -1.
          1    1    1    2  502    0 -0.66936521018E+02  0.12738157191E+02  0.36621688027E+03  0.37250176092E+03  0.00000000000E+00 0. -1.
         22    1    3    3    0    0  0.13838449997E+03 -0.79170909268E+02 -0.21862481312E+03  0.27058291080E+03  0.00000000000E+00 0.  1.
         22    1    3    3    0    0  0.88741018358E+01  0.35947585318E+02 -0.73295192448E+02  0.82116769356E+02  0.00000000000E+00 0.  1.
</event>
<event>
 7    1  0.5127424E-006  0.4600624E+02  0.7818608E-02  0.1526273E+00
          2   -1    0    0  502    0  0.00000000000E+00  0.00000000000E+00  0.92995558803E+03  0.92995558803E+03  0.00000000000E+00 0. -1.
          1   -1    0    0  501    0 -0.00000000000E+00 -0.00000000000E+00 -0.15274202137E+02  0.15274202137E+02  0.00000000000E+00 0. -1.
         25    2    1    2    0    0 -0.11836077179E+02  0.39103692655E+02  0.33662095529E+03  0.36139851380E+03  0.12500410687E+03 0.  0.
          2    1    1    2  501    0 -0.27887596293E+02 -0.13091311414E+02  0.14900783200E+03  0.15215924047E+03  0.00000000000E+00 0. -1.
          1    1    1    2  502    0  0.39723673472E+02 -0.26012381240E+02  0.42905259861E+03  0.43167203591E+03  0.00000000000E+00 0. -1.
         22    1    3    3    0    0 -0.34884682023E+02 -0.10807799966E+02  0.28038896483E+03  0.28275735388E+03  0.00000000000E+00 0.  1.
         22    1    3    3    0    0  0.23048604844E+02  0.49911492621E+02  0.56231990461E+02  0.78641159911E+02  0.00000000000E+00 0.  1.
</event>
<event>
 7    1  0.5127424E-006  0.1319115E+03  0.7818608E-02  0.1376704E+00
          2   -1    0    0  502    0  0.00000000000E+00  0.00000000000E+00  0.16746419789E+04  0.16746419789E+04  0.00000000000E+00 0. -1.
          1   -1    0    0  501    0 -0.00000000000E+00 -0.00000000000E+00 -0.15295563742E+03  0.15295563742E+03  0.00000000000E+00 0. -1.
         25    2    1    2    0    0 -0.72912731478E+02 -0.13962433763E+03  0.18810600216E+03  0.27535570934E+03  0.12500270617E+03 0.  0.
          2    1    1    2  501    0  0.69282075401E+02  0.10746533672E+03 -0.71696856401E+02  0.14659210001E+03  0.00000000000E+00 0. -1.
          1    1    1    2  502    0  0.36306560773E+01  0.32159000910E+02  0.14052771958E+04  0.14056498070E+04  0.00000000000E+00 0. -1.
         22    1    3    3    0    0 -0.45885379024E+02 -0.13629619792E+02  0.63840140989E+00  0.47871098799E+02  0.00000000000E+00 0. -1.
         22    1    3    3    0    0 -0.27027352454E+02 -0.12599471784E+03  0.18746760075E+03  0.22748461055E+03  0.00000000000E+00 0. -1.
</event>
<event>
 7    1  0.5127424E-006  0.5604835E+02  0.7818608E-02  0.1463079E+00
          2   -1    0    0  502    0  0.00000000000E+00  0.00000000000E+00  0.15620839191E+04  0.15620839191E+04  0.00000000000E+00 0. -1.
          1   -1    0    0  501    0 -0.00000000000E+00 -0.00000000000E+00 -0.20229623343E+04  0.20229623343E+04  0.00000000000E+00 0. -1.
         25    2    1    2    0    0 -0.26309724449E+02  0.86580342389E+02  0.19350856027E+03  0.24750665062E+03  0.12500248764E+03 0.  0.
          2    1    1    2  501    0  0.18806624379E+01 -0.55960875106E+02 -0.19952845426E+04  0.19960700294E+04  0.00000000000E+00 0. -1.
          1    1    1    2  502    0  0.24429062011E+02 -0.30619467284E+02  0.13408975671E+04  0.13414695734E+04  0.00000000000E+00 0. -1.
         22    1    3    3    0    0  0.18918141879E+02 -0.25043252874E+02  0.59918656251E+02  0.67641008076E+02  0.00000000000E+00 0.  1.
         22    1    3    3    0    0 -0.45227866328E+02  0.11162359526E+03  0.13358990402E+03  0.17986564255E+03  0.00000000000E+00 0.  1.
</event>
<event>
 7    1  0.5127424E-006  0.9164131E+02  0.7818608E-02  0.1349075E+00
          2   -1    0    0  502    0  0.00000000000E+00  0.00000000000E+00  0.58937124905E+03  0.58937124905E+03  0.00000000000E+00 0. -1.
          1   -1    0    0  501    0 -0.00000000000E+00 -0.00000000000E+00 -0.41610504207E+03  0.41610504207E+03  0.00000000000E+00 0. -1.
         25    2    1    2    0    0 -0.33873862556E+02  0.40669279993E+02 -0.20885448879E+02  0.13734352403E+03  0.12500245085E+03 0.  0.
          2    1    1    2  501    0  0.14552094123E+02 -0.96099193923E+02 -0.32830430439E+03  0.34238944902E+03  0.00000000000E+00 0. -1.
          1    1    1    2  502    0  0.19321768433E+02  0.55429913930E+02  0.52245596026E+03  0.52574331808E+03  0.00000000000E+00 0. -1.
         22    1    3    3    0    0 -0.35118786751E+01  0.79767522902E+02 -0.32974825191E+02  0.86385936924E+02  0.00000000000E+00 0.  1.
         22    1    3    3    0    0 -0.30361983881E+02 -0.39098242909E+02  0.12089376312E+02  0.50957587103E+02  0.00000000000E+00 0.  1.
</event>
<event>
 7    1  0.5127424E-006  0.5515092E+02  0.7818608E-02  0.1456843E+00
          2   -1    0    0  502    0  0.00000000000E+00  0.00000000000E+00  0.90981153521E+03  0.90981153521E+03  0.00000000000E+00 0. -1.
          1   -1    0    0  501    0 -0.00000000000E+00 -0.00000000000E+00 -0.36356064354E+03  0.36356064354E+03  0.00000000000E+00 0. -1.
         25    2    1    2    0    0  0.34826184964E+02 -0.81641160481E+02 -0.17728497630E+02  0.15432717497E+03  0.12499774023E+03 0.  0.
          2    1    1    2  501    0 -0.36308585896E+02  0.40014704832E+02 -0.27438099043E+03  0.27965052820E+03  0.00000000000E+00 0. -1.
          1    1    1    2  502    0  0.14824009321E+01  0.41626455648E+02  0.83836037973E+03  0.83939447558E+03  0.00000000000E+00 0. -1.
         22    1    3    3    0    0 -0.49276554783E+01 -0.89087686342E+02  0.27775036325E+02  0.93447045374E+02  0.00000000000E+00 0.  1.
         22    1    3    3    0    0  0.39753840442E+02  0.74465258618E+01 -0.45503533956E+02  0.60880129597E+02  0.00000000000E+00 0.  1.
</event>
<event>
 7    1  0.5127424E-006  0.1529050E+03  0.7818608E-02  0.1263090E+00
          2   -1    0    0  502    0  0.00000000000E+00  0.00000000000E+00  0.59581667709E+03  0.59581667709E+03  0.00000000000E+00 0. -1.
          1   -1    0    0  501    0 -0.00000000000E+00 -0.00000000000E+00 -0.53825333474E+03  0.53825333474E+03  0.00000000000E+00 0. -1.
         25    2    1    2    0    0 -0.21619549031E+03 -0.11129105099E+02 -0.10001598855E+03  0.26924463672E+03  0.12500051771E+03 0.  0.
          2    1    1    2  501    0  0.14015451911E+03  0.24480843866E+02 -0.33619009638E+03  0.36505668306E+03  0.00000000000E+00 0. -1.
          1    1    1    2  502    0  0.76040971201E+02 -0.13351738767E+02  0.49376942728E+03  0.49976869204E+03  0.00000000000E+00 0. -1.
         22    1    3    3    0    0  0.15264234158E+02 -0.80090711981E+01 -0.14321643567E+02  0.22410969196E+02  0.00000000000E+00 0. -1.
         22    1    3    3    0    0 -0.23145972447E+03 -0.31200339004E+01 -0.85694344983E+02  0.24683366752E+03  0.00000000000E+00 0. -1.
</event>
<event>
 7    1  0.5127424E-006  0.1323679E+03  0.7818608E-02  0.1275128E+00
          2   -1    0    0  502    0  0.00000000000E+00  0.00000000000E+00  0.19597952295E+04  0.19597952295E+04  0.00000000000E+00 0. -1.
          1   -1    0    0  501    0 -0.00000000000E+00 -0.00000000000E+00 -0.20666217224E+03  0.20666217224E+03  0.00000000000E+00 0. -1.
         25    2    1    2    0    0  0.17588822765E+03 -0.27435422291E+02  0.49521799561E+02  0.22308483212E+03  0.12500025068E+03 0.  0.
          2    1    1    2  501    0 -0.10578722603E+03  0.64655103416E+02 -0.86709343904E+02  0.15129352236E+03  0.00000000000E+00 0. -1.
          1    1    1    2  502    0 -0.70101001624E+02 -0.37219681125E+02  0.17903206016E+04  0.17920790472E+04  0.00000000000E+00 0. -1.
         22    1    3    3    0    0  0.16389120827E+03 -0.10028060230E+02  0.82618992060E+02  0.18381182766E+03  0.00000000000E+00 0. -1.
         22    1    3    3    0    0  0.11997019381E+02 -0.17407362061E+02 -0.33097192499E+02  0.39273004460E+02  0.00000000000E+00 0. -1.
</event>
<event>
 7    1  0.5127424E-006  0.1104498E+03  0.7818608E-02  0.1415023E+00
          2   -1    0    0  502    0  0.00000000000E+00  0.00000000000E+00  0.30347138471E+03  0.30347138471E+03  0.00000000000E+00 0. -1.
          1   -1    0    0  501    0 -0.00000000000E+00 -0.00000000000E+00 -0.87311758039E+03  0.87311758039E+03  0.00000000000E+00 0. -1.
         25    2    1    2    0    0 -0.69117688801E+02 -0.82577967227E+02  0.99326144562E+02  0.19258535152E+03  0.12500823593E+03 0.  0.
          2    1    1    2  501    0  0.20927939053E+02 -0.19320004606E+02 -0.80603881168E+03  0.80654188183E+03  0.00000000000E+00 0. -1.
          1    1    1    2  502    0  0.48189749748E+02  0.10189797183E+03  0.13706647143E+03  0.17746173175E+03  0.00000000000E+00 0. -1.
         22    1    3    3    0    0  0.26631106915E+01  0.29017967384E+02  0.33712218585E+02  0.44560613456E+02  0.00000000000E+00 0.  1.
         22    1    3    3    0    0 -0.71780799492E+02 -0.11159593461E+03  0.65613925977E+02  0.14802473807E+03  0.00000000000E+00 0.  1.
</event>
<event>
 7    1  0.5127424E-006  0.9670454E+02  0.7818608E-02  0.1360424E+00
          2   -1    0    0  502    0  0.00000000000E+00  0.00000000000E+00  0.12358061630E+04  0.12358061630E+04  0.00000000000E+00 0. -1.
          1   -1    0    0  501    0 -0.00000000000E+00 -0.00000000000E+00 -0.10923194228E+03  0.10923194228E+03  0.00000000000E+00 0. -1.
         25    2    1    2    0    0  0.56273936002E+02  0.10829410586E+03  0.40720133553E+03  0.44309433073E+03  0.12500115613E+03 0.  0.
          2    1    1    2  501    0 -0.74048809013E+01 -0.95447944351E+02 -0.65146943197E+02  0.11579838751E+03  0.00000000000E+00 0. -1.
          1    1    1    2  502    0 -0.48869055101E+02 -0.12846161512E+02  0.78451982840E+03  0.78614538704E+03  0.00000000000E+00 0. -1.
         22    1    3    3    0    0 -0.43855472168E+01  0.14573918565E+02 -0.50180651196E+01  0.16025389364E+02  0.00000000000E+00 0.  1.
         22    1    3    3    0    0  0.60659483219E+02  0.93720187299E+02  0.41221940065E+03  0.42706894137E+03  0.00000000000E+00 0.  1.
</event>
<event>
 7    1  0.5127424E-006  0.1021123E+03  0.7818608E-02  0.1419183E+00
          2   -1    0    0  502    0  0.00000000000E+00  0.00000000000E+00  0.44767911436E+03  0.44767911436E+03  0.00000000000E+00 0. -1.
          1   -1    0    0  501    0 -0.00000000000E+00 -0.00000000000E+00 -0.78812144745E+03  0.78812144745E+03  0.00000000000E+00 0. -1.
         25    2    1    2    0    0  0.57203077139E+02 -0.91933424055E+02  0.27237160329E+02  0.16760334732E+03  0.12500029055E+03 0.  0.
          2    1    1    2  501    0 -0.28015927772E+02  0.98110552215E+02 -0.71366801966E+03  0.72092483308E+03  0.00000000000E+00 0. -1.
          1    1    1    2  502    0 -0.29187149367E+02 -0.61771281603E+01  0.34598852624E+03  0.34727238141E+03  0.00000000000E+00 0. -1.
         22    1    3    3    0    0  0.69662333444E+02 -0.10709456372E+02 -0.19420392849E+02  0.73107351306E+02  0.00000000000E+00 0. -1.
         22    1    3    3    0    0 -0.12459256305E+02 -0.81223967683E+02  0.46657553178E+02  0.94495996012E+02  0.00000000000E+00 0. -1.
</event>
<event>
 7    1  0.5127424E-006  0.8726961E+02  0.7818608E-02  0.1398930E+00
          2   -1    0    0  502    0  0.00000000000E+00  0.00000000000E+00  0.44098449425E+03  0.44098449425E+03  0.00000000000E+00 0. -1.
          1   -1    0    0  501    0 -0.00000000000E+00 -0.00000000000E+00 -0.72248539947E+03  0.72248539947E+03  0.00000000000E+00 0. -1.
         25    2    1    2    0    0  0.61641562974E+02 -0.97932038126E+02  0.11050190380E+03  0.20304087795E+03  0.12499824399E+03 0.  0.
          2    1    1    2  501    0 -0.11194031662E+00  0.40893410405E+02 -0.66938639138E+03  0.67063434486E+03  0.00000000000E+00 0. -1.
          1    1    1    2  502    0 -0.61529622658E+02  0.57038627721E+02  0.27738358237E+03  0.28979467090E+03  0.00000000000E+00 0. -1.
         22    1    3    3    0    0  0.53840550866E+02 -0.12497463241E+03  0.68151525892E+02  0.15219097919E+03  0.00000000000E+00 0.  1.
         22    1    3    3    0    0  0.78010121081E+01  0.27042594289E+02  0.42350377903E+02  0.50849898764E+02  0.00000000000E+00 0.  1.
</event>
<event>
 7    1  0.5127424E-006  0.1085079E+03  0.7818608E-02  0.1333275E+00
          2   -1    0    0  502    0  0.00000000000E+00  0.00000000000E+00  0.35144860807E+03  0.35144860807E+03  0.00000000000E+00 0. -1.
          1   -1    0    0  501    0 -0.00000000000E+00 -0.00000000000E+00 -0.18691610531E+04  0.18691610531E+04  0.00000000000E+00 0. -1.
         25    2    1    2    0    0  0.57132379241E+02 -0.42653381549E+01 -0.16019966342E+03  0.21112153783E+03  0.12500427876E+03 0.  0.
          2    1    1    2  501    0  0.52794651545E+02  0.21045539357E+02 -0.16735208684E+04  0.16744856784E+04  0.00000000000E+00 0. -1.
          1    1    1    2  502    0 -0.10992703079E+03 -0.16780201202E+02  0.31600808679E+03  0.33500244501E+03  0.00000000000E+00 0. -1.
         22    1    3    3    0    0 -0.31899270330E+02  0.22870746194E+02 -0.23513635534E+02  0.45755060213E+02  0.00000000000E+00 0.  1.
         22    1    3    3    0    0  0.89031649571E+02 -0.27136084349E+02 -0.13668602789E+03  0.16536647762E+03  0.00000000000E+00 0.  1.
</event>
<event>
 7    1  0.5127424E-006  0.9536577E+02  0.7818608E-02  0.1412548E+00
          2   -1    0    0  502    0  0.00000000000E+00  0.00000000000E+00  0.30919174605E+04  0.30919174605E+04  0.00000000000E+00 0. -1.
          1   -1    0    0  501    0 -0.00000000000E+00 -0.00000000000E+00 -0.75575161818E+02  0.75575161818E+02  0.00000000000E+00 0. -1.
         25    2    1    2    0    0 -0.18832496648E+02 -0.89974519905E+02  0.13507921497E+03  0.20572561526E+03  0.12500622902E+03 0.  0.
          2    1    1    2  501    0 -0.32328817158E+02  0.92528766941E+01 -0.32305994338E+02  0.46630949123E+02  0.00000000000E+00 0. -1.
          1    1    1    2  502    0  0.51161313807E+02  0.80721643211E+02  0.29135690781E+04  0.29151360580E+04  0.00000000000E+00 0. -1.
         22    1    3    3    0    0  0.33566592147E+02 -0.29996979251E+02  0.11513611825E+03  0.12362386743E+03  0.00000000000E+00 0. -1.
         22    1    3    3    0    0 -0.52399088795E+02 -0.59977540654E+02  0.19943096717E+02  0.82101747827E+02  0.00000000000E+00 0. -1.
</event>
<event>
 7    1  0.5127424E-006  0.5209135E+02  0.7818608E-02  0.1514613E+00
          2   -1    0    0  502    0  0.00000000000E+00  0.00000000000E+00  0.10594506887E+04  0.10594506887E+04  0.00000000000E+00 0. -1.
          1   -1    0    0  501    0 -0.00000000000E+00 -0.00000000000E+00 -0.14951471779E+03  0.14951471779E+03  0.00000000000E+00 0. -1.
         25    2    1    2    0    0 -0.62663640504E+02  0.35219869998E+02  0.32384101798E+03  0.35448677691E+03  0.12498279479E+03 0.  0.
          2    1    1    2  501    0  0.12219335762E+02 -0.26755282919E+02 -0.13165892180E+03  0.13490451816E+03  0.00000000000E+00 0. -1.
          1    1    1    2  502    0  0.50444304742E+02 -0.84645870794E+01  0.71775387476E+03  0.71957411144E+03  0.00000000000E+00 0. -1.
         22    1    3    3    0    0 -0.54359847338E+02 -0.11858417375E+02  0.29151755336E+03  0.29677954610E+03  0.00000000000E+00 0. -1.
         22    1    3    3    0    0 -0.83037931661E+01  0.47078287373E+02  0.32323464620E+02  0.57707230812E+02  0.00000000000E+00 0. -1.
</event>
<event>
 7    1  0.5127424E-006  0.4140607E+02  0.7818608E-02  0.1501328E+00
          2   -1    0    0  502    0  0.00000000000E+00  0.00000000000E+00  0.29214765913E+02  0.29214765913E+02  0.00000000000E+00 0. -1.
          1   -1    0    0  501    0 -0.00000000000E+00 -0.00000000000E+00 -0.11327524537E+04  0.11327524537E+04  0.00000000000E+00 0. -1.
         25    2    1    2    0    0  0.11100635787E+01  0.18830923246E+02 -0.19406834352E+03  0.23160951437E+03  0.12499843711E+03 0.  0.
          2    1    1    2  501    0  0.39282230670E+02 -0.15867592447E+02 -0.87812023591E+03  0.87914163982E+03  0.00000000000E+00 0. -1.
          1    1    1    2  502    0 -0.40392294249E+02 -0.29633307991E+01 -0.31349108376E+02  0.51216065449E+02  0.00000000000E+00 0. -1.
         22    1    3    3    0    0  0.81485398641E+01  0.91439150740E+00  0.17416632783E+02  0.19250296394E+02  0.00000000000E+00 0. -1.
         22    1    3    3    0    0 -0.70384762854E+01  0.17916531739E+02 -0.21148497630E+03  0.21235921798E+03  0.00000000000E+00 0. -1.
</event>
<event>
 7    1  0.5127424E-006  0.7532515E+02  0.7818608E-02  0.1368812E+00
          2   -1    0    0  502    0  0.00000000000E+00  0.00000000000E+00  0.23533663245E+03  0.23533663245E+03  0.00000000000E+00 0. -1.
          1   -1    0    0  501    0 -0.00000000000E+00 -0.00000000000E+00 -0.11565067734E+04  0.11565067734E+04  0.00000000000E+00 0. -1.
         25    2    1    2    0    0  0.61053154647E+02 -0.91834431877E+01 -0.25944894795E+02  0.14180727609E+03  0.12499737064E+03 0.  0.
          2    1    1    2  501    0 -0.18907233760E+02 -0.57453953898E+02 -0.10629675362E+04  0.10646870072E+04  0.00000000000E+00 0. -1.
          1    1    1    2  502    0 -0.42145920887E+02  0.66637397085E+02  0.16774229008E+03  0.18534912252E+03  0.00000000000E+00 0. -1.
         22    1    3    3    0    0 -0.32888347243E+02  0.11415414194E+02 -0.29407712441E+02  0.45571576850E+02  0.00000000000E+00 0.  1.
         22    1    3    3    0    0  0.93941501889E+02 -0.20598857382E+02  0.34628176462E+01  0.96235699243E+02  0.00000000000E+00 0.  1.
</event>
<event>
 7    1  0.5127424E-006  0.7232980E+02  0.7818608E-02  0.1359713E+00
          2   -1    0    0  502    0  0.00000000000E+00  0.00000000000E+00  0.95844936633E+02  0.95844936633E+02  0.00000000000E+00 0. -1.
          1   -1    0    0  501    0 -0.00000000000E+00 -0.00000000000E+00 -0.42177942708E+04  0.42177942708E+04  0.00000000000E+00 0. -1.
         25    2    1    2    0    0 -0.26093158624E+01  0.91681442597E+01 -0.30683509159E+03  0.33145718700E+03  0.12500091993E+03 0.  0.
          2    1    1    2  501    0 -0.54082842234E+02  0.41156747624E+02 -0.38810907675E+04  0.38816857649E+04  0.00000000000E+00 0. -1.
          1    1    1    2  502    0  0.56692158096E+02 -0.50324891884E+02  0.65976524944E+02  0.10049625553E+03  0.00000000000E+00 0. -1.
         22    1    3    3    0    0 -0.44126328223E+02 -0.88806614192E+01 -0.38204782998E+02  0.59039007729E+02  0.00000000000E+00 0.  1.
         22    1    3    3    0    0  0.41517012361E+02  0.18048805679E+02 -0.26863030859E+03  0.27241817927E+03  0.00000000000E+00 0.  1.
</event>
<event>
 7    1  0.5127424E-006  0.8941171E+02  0.7818608E-02  0.1458099E+00
          2   -1    0    0  502    0  0.00000000000E+00  0.00000000000E+00  0.44478042326E+03  0.44478042326E+03  0.00000000000E+00 0. -1.
          1   -1    0    0  501    0 -0.00000000000E+00 -0.00000000000E+00 -0.27022115646E+03  0.27022115646E+03  0.00000000000E+00 0. -1.
         25    2    1    2    0    0 -0.66743341995E+02 -0.44408488975E+02 -0.17349422949E+03  0.22836884599E+03  0.12500117823E+03 0.  0.
          2    1    1    2  501    0  0.86455139225E+01 -0.23945083665E+02 -0.61925270880E+02  0.66954097083E+02  0.00000000000E+00 0. -1.
          1    1    1    2  502    0  0.58097828073E+02  0.68353572640E+02  0.40997876718E+03  0.41967863664E+03  0.00000000000E+00 0. -1.
         22    1    3    3    0    0  0.66749482765E-01 -0.24120393733E+02  0.14281801287E+02  0.28031548251E+02  0.00000000000E+00 0.  1.
         22    1    3    3    0    0 -0.66810091478E+02 -0.20288095241E+02 -0.18777603078E+03  0.20033729774E+03  0.00000000000E+00 0.  1.
</event>
<event>
 7    1  0.5127424E-006  0.5726121E+02  0.7818608E-02  0.1428900E+00
          2   -1    0    0  502    0  0.00000000000E+00  0.00000000000E+00  0.21787941106E+04  0.21787941106E+04  0.00000000000E+00 0. -1.
          1   -1    0    0  501    0 -0.00000000000E+00 -0.00000000000E+00 -0.69414190153E+02  0.69414190153E+02  0.00000000000E+00 0. -1.
         25    2    1    2    0    0  0.37085306663E+02  0.32987659812E+02  0.17565018907E+03  0.22122613175E+03  0.12499802710E+03 0.  0.
          2    1    1    2  501    0 -0.58682054722E+02  0.11432769126E+02 -0.27021923210E+02  0.65608506234E+02  0.00000000000E+00 0. -1.
          1    1    1    2  502    0  0.21596748059E+02 -0.44420428937E+02  0.19607516546E+04  0.19613736628E+04  0.00000000000E+00 0. -1.
         22    1    3    3    0    0 -0.29191803226E+02 -0.27869554462E+02  0.81775151093E+02  0.91192372366E+02  0.00000000000E+00 0. -1.
         22    1    3    3    0    0  0.66277109889E+02  0.60857214273E+02  0.93875037972E+02  0.13003375938E+03  0.00000000000E+00 0. -1.
</event>
<event>
 7    1  0.5127424E-006  0.1217388E+03  0.7818608E-02  0.1247054E+00
          2   -1    0    0  502    0  0.00000000000E+00  0.00000000000E+00  0.17506910303E+04  0.17506910303E+04  0.00000000000E+00 0. -1.
          1   -1    0    0  501    0 -0.00000000000E+00 -0.00000000000E+00 -0.10390957317E+03  0.10390957317E+03  0.00000000000E+00 0. -1.
         25    2    1    2    0    0  0.98105081748E+02 -0.62701744120E+02  0.22361145005E+03  0.28139501989E+03  0.12499984338E+03 0.  0.
          2    1    1    2  501    0 -0.93938368359E+02 -0.63994619203E+02 -0.27551301937E+02  0.11695641314E+03  0.00000000000E+00 0. -1.
          1    1    1    2  502    0 -0.41667133887E+01  0.12669636332E+03  0.14507213090E+04  0.14562491704E+04  0.00000000000E+00 0. -1.
         22    1    3    3    0    0  0.11106304303E+03 -0.64648399256E+02  0.23243726961E+03  0.26559649726E+03  0.00000000000E+00 0. -1.
         22    1    3    3    0    0 -0.12957961279E+02  0.19466551365E+01 -0.88258195534E+01  0.15798522637E+02  0.00000000000E+00 0. -1.
</event>
<event>
 7    1  0.5127424E-006  0.2562324E+03  0.7818608E-02  0.1150498E+00
          2   -1    0    0  502    0  0.00000000000E+00  0.00000000000E+00  0.17518699214E+04  0.17518699214E+04  0.00000000000E+00 0. -1.
          1   -1    0    0  501    0 -0.00000000000E+00 -0.00000000000E+00 -0.10398886491E+03  0.10398886491E+03  0.00000000000E+00 0. -1.
         25    2    1    2    0    0  0.16813608556E+03  0.11446224698E+03  0.12497732684E+03  0.26947182763E+03  0.12499753762E+03 0.  0.
          2    1    1    2  501    0 -0.65389623673E+02  0.14021409106E+03  0.36639379964E+03  0.39771875821E+03  0.00000000000E+00 0. -1.
          1    1    1    2  502    0 -0.10274646189E+03 -0.25467633804E+03  0.11565099301E+04  0.11886682005E+04  0.00000000000E+00 0. -1.
         22    1    3    3    0    0 -0.20388558214E+02  0.16793519574E+02  0.13552109643E+02  0.29687965264E+02  0.00000000000E+00 0. -1.
         22    1    3    3    0    0  0.18852464378E+03  0.97668727408E+02  0.11142521720E+03  0.23978386237E+03  0.00000000000E+00 0. -1.
</event>
<event>
 7    1  0.5127424E-006  0.7564515E+02  0.7818608E-02  0.1487491E+00
          2   -1    0    0  502    0  0.00000000000E+00  0.00000000000E+00  0.82218844938E+03  0.82218844938E+03  0.00000000000E+00 0. -1.
          1   -1    0    0  501    0 -0.00000000000E+00 -0.00000000000E+00 -0.59867704157E+03  0.59867704157E+03  0.00000000000E+00 0. -1.
         25    2    1    2    0    0 -0.38350627271E+02 -0.37695784059E+02  0.10274051741E+03  0.17050582090E+03  0.12499951318E+03 0.  0.
          2    1    1    2  501    0  0.45354671514E+02  0.61067032530E+02 -0.56201430344E+03  0.56713870081E+03  0.00000000000E+00 0. -1.
          1    1    1    2  502    0 -0.70040442423E+01 -0.23371248471E+02  0.68278519384E+03  0.68322096924E+03  0.00000000000E+00 0. -1.
         22    1    3    3    0    0  0.10021189850E+02 -0.71237412262E+02  0.32719676363E+02  0.79030186468E+02  0.00000000000E+00 0. -1.
         22    1    3    3    0    0 -0.48371817122E+02  0.33541628203E+02  0.70020841047E+02  0.91475634434E+02  0.00000000000E+00 0. -1.
</event>
<event>
 7    1  0.5127424E-006  0.5562981E+02  0.7818608E-02  0.1487874E+00
          2   -1    0    0  502    0  0.00000000000E+00  0.00000000000E+00  0.31735047046E+04  0.31735047046E+04  0.00000000000E+00 0. -1.
          1   -1    0    0  501    0 -0.00000000000E+00 -0.00000000000E+00 -0.17973854089E+02  0.17973854089E+02  0.00000000000E+00 0. -1.
         25    2    1    2    0    0  0.34303060925E+02 -0.12510903680E+02  0.80540915534E+03  0.81586700479E+03  0.12498735658E+03 0.  0.
          2    1    1    2  501    0  0.21586221753E+02  0.25076564252E+02  0.96879717407E+01  0.34476888501E+02  0.00000000000E+00 0. -1.
          1    1    1    2  502    0 -0.55889282678E+02 -0.12565660572E+02  0.23404337234E+04  0.23411346654E+04  0.00000000000E+00 0. -1.
         22    1    3    3    0    0  0.41400246197E+02  0.19451903021E+02  0.10306021703E+03  0.11275533358E+03  0.00000000000E+00 0. -1.
         22    1    3    3    0    0 -0.70971852721E+01 -0.31962806701E+02  0.70234893832E+03  0.70311167122E+03  0.00000000000E+00 0. -1.
</event>
<event>
 7    1  0.5127424E-006  0.7090652E+02  0.7818608E-02  0.1424554E+00
          2   -1    0    0  502    0  0.00000000000E+00  0.00000000000E+00  0.19709191730E+04  0.19709191730E+04  0.00000000000E+00 0. -1.
          1   -1    0    0  501    0 -0.00000000000E+00 -0.00000000000E+00 -0.32623003789E+03  0.32623003789E+03  0.00000000000E+00 0. -1.
         25    2    1    2    0    0  0.35423476865E+02  0.19323440626E+02  0.13199000511E+03  0.18621219565E+03  0.12500160915E+03 0.  0.
          2    1    1    2  501    0  0.34542340001E+01  0.41084801353E+02 -0.29698216052E+03  0.29983044593E+03  0.00000000000E+00 0. -1.
          1    1    1    2  502    0 -0.38877710865E+02 -0.60408241979E+02  0.18096812905E+04  0.18111065693E+04  0.00000000000E+00 0. -1.
         22    1    3    3    0    0 -0.21052794690E+02  0.52064251184E+02  0.26360777878E+02  0.62038673631E+02  0.00000000000E+00 0.  1.
         22    1    3    3    0    0  0.56476271555E+02 -0.32740810558E+02  0.10562922724E+03  0.12417352202E+03  0.00000000000E+00 0.  1.
</event>
<event>
 7    1  0.5127424E-006  0.1260429E+03  0.7818608E-02  0.1278169E+00
          2   -1    0    0  502    0  0.00000000000E+00  0.00000000000E+00  0.40349092454E+04  0.40349092454E+04  0.00000000000E+00 0. -1.
          1   -1    0    0  501    0 -0.00000000000E+00 -0.00000000000E+00 -0.48858523367E+02  0.48858523367E+02  0.00000000000E+00 0. -1.
         25    2    1    2    0    0  0.54221919257E+02  0.14916044305E+03  0.90250300630E+03  0.92483866991E+03  0.12500413873E+03 0.  0.
          2    1    1    2  501    0  0.22220201150E+02 -0.12248612092E+03  0.67143351144E+02  0.14143838503E+03  0.00000000000E+00 0. -1.
          1    1    1    2  502    0 -0.76442120407E+02 -0.26674322125E+02  0.30164043645E+04  0.30174907138E+04  0.00000000000E+00 0. -1.
         22    1    3    3    0    0 -0.27421601481E+02  0.53578170705E+02  0.48789525950E+03  0.49159368267E+03  0.00000000000E+00 0.  1.
         22    1    3    3    0    0  0.81643520739E+02  0.95582272344E+02  0.41460774680E+03  0.43324498724E+03  0.00000000000E+00 0.  1.
</event>
<event>
 7    1  0.5127424E-006  0.1418527E+03  0.7818608E-02  0.1311431E+00
          2   -1    0    0  502    0  0.00000000000E+00  0.00000000000E+00  0.10939097246E+04  0.10939097246E+04  0.00000000000E+00 0. -1.
          1   -1    0    0  501    0 -0.00000000000E+00 -0.00000000000E+00 -0.29686637834E+03  0.29686637834E+03  0.00000000000E+00 0. -1.
         25    2    1    2    0    0 -0.13961850871E+03 -0.12810402967E+03  0.30971251056E+03  0.38399586129E+03  0.12500804733E+03 0.  0.
          2    1    1    2  501    0  0.92568395811E+02  0.10412979180E+03 -0.24001330774E+03  0.27752172768E+03  0.00000000000E+00 0. -1.
          1    1    1    2  502    0  0.47050112900E+02  0.23974237870E+02  0.72734414343E+03  0.72925851396E+03  0.00000000000E+00 0. -1.
         22    1    3    3    0    0 -0.10213243124E+03 -0.31583780972E+02  0.85010693403E+02  0.13658472361E+03  0.00000000000E+00 0.  1.
         22    1    3    3    0    0 -0.37486077473E+02 -0.96520248701E+02  0.22470181715E+03  0.24741113768E+03  0.00000000000E+00 0.  1.
</event>
<event>
 7    1  0.5127424E-006  0.5113176E+02  0.7818608E-02  0.1551383E+00
          2   -1    0    0  502    0  0.00000000000E+00  0.00000000000E+00  0.69298918676E+02  0.69298918676E+02  0.00000000000E+00 0. -1.
          1   -1    0    0  501    0 -0.00000000000E+00 -0.00000000000E+00 -0.21528468842E+04  0.21528468842E+04  0.00000000000E+00 0. -1.
         25    2    1    2    0    0  0.66393351103E+02 -0.30923946567E+02 -0.64935483865E+03  0.66532071052E+03  0.12500229528E+03 0.  0.
          2    1    1    2  501    0 -0.46469698557E+02  0.18399186010E+02 -0.14928173257E+04  0.14936537520E+04  0.00000000000E+00 0. -1.
          1    1    1    2  502    0 -0.19923652546E+02  0.12524760557E+02  0.58624198817E+02  0.63171340374E+02  0.00000000000E+00 0. -1.
         22    1    3    3    0    0  0.24846422181E+01  0.92489680470E+01 -0.47776163082E+03  0.47785760718E+03  0.00000000000E+00 0.  1.
         22    1    3    3    0    0  0.63908708885E+02 -0.40172914614E+02 -0.17159320784E+03  0.18746310334E+03  0.00000000000E+00 0.  1.
</event>
<event>
 7    1  0.5127424E-006  0.1602495E+03  0.7818608E-02  0.1314812E+00
          2   -1    0    0  502    0  0.00000000000E+00  0.00000000000E+00  0.13074388972E+04  0.13074388972E+04  0.00000000000E+00 0. -1.
          1   -1    0    0  501    0 -0.00000000000E+00 -0.00000000000E+00 -0.36195945300E+03  0.36195945300E+03  0.00000000000E+00 0. -1.
         25    2    1    2    0    0 -0.63950672525E+02  0.14866930851E+03 -0.16699076993E+03  0.26401183758E+03  0.12499632527E+03 0.  0.
          2    1    1    2  501    0  0.10268159294E+03 -0.12510060021E+03 -0.10119341177E+03  0.19087633769E+03  0.00000000000E+00 0. -1.
          1    1    1    2  502    0 -0.38730920419E+02 -0.23568708292E+02  0.12136636259E+04  0.12145101749E+04  0.00000000000E+00 0. -1.
         22    1    3    3    0    0 -0.97870031660E+02  0.13545192923E+03 -0.12669836275E+03  0.20970990285E+03  0.00000000000E+00 0. -1.
         22    1    3    3    0    0  0.33919359135E+02  0.13217379280E+02 -0.40292407179E+02  0.54301934730E+02  0.00000000000E+00 0. -1.
</event>
<event>
 7    1  0.5127424E-006  0.6264269E+02  0.7818608E-02  0.1434306E+00
          2   -1    0    0  502    0  0.00000000000E+00  0.00000000000E+00  0.11248297382E+04  0.11248297382E+04  0.00000000000E+00 0. -1.
          1   -1    0    0  501    0 -0.00000000000E+00 -0.00000000000E+00 -0.18626858572E+04  0.18626858572E+04  0.00000000000E+00 0. -1.
         25    2    1    2    0    0 -0.33765489179E+02 -0.76313574537E+02  0.39990593018E+03  0.42721434816E+03  0.12499390527E+03 0.  0.
          2    1    1    2  501    0 -0.72172950114E+01  0.62213536916E+02 -0.18478403775E+04  0.18489014777E+04  0.00000000000E+00 0. -1.
          1    1    1    2  502    0  0.40982784191E+02  0.14100037621E+02  0.71007832832E+03  0.71139976948E+03  0.00000000000E+00 0. -1.
         22    1    3    3    0    0  0.45599872055E+02 -0.41234395036E+02  0.13218279126E+03  0.14578036209E+03  0.00000000000E+00 0.  1.
         22    1    3    3    0    0 -0.79365361235E+02 -0.35079179502E+02  0.26772313892E+03  0.28143398606E+03  0.00000000000E+00 0.  1.
</event>
<event>
 7    1  0.5127424E-006  0.4469271E+02  0.7818608E-02  0.1479714E+00
          2   -1    0    0  502    0  0.00000000000E+00  0.00000000000E+00  0.68201993425E+03  0.68201993425E+03  0.00000000000E+00 0. -1.
          1   -1    0    0  501    0 -0.00000000000E+00 -0.00000000000E+00 -0.10503088491E+04  0.10503088491E+04  0.00000000000E+00 0. -1.
         25    2    1    2    0    0 -0.37575454137E+02  0.45887840120E+02 -0.39969968324E+03  0.42296866330E+03  0.12500017893E+03 0.  0.
          2    1    1    2  501    0  0.43586242085E+02 -0.15934209269E+01 -0.63748355818E+03  0.63897385427E+03  0.00000000000E+00 0. -1.
          1    1    1    2  502    0 -0.60107879473E+01 -0.44294419193E+02  0.66889432660E+03  0.67038626575E+03  0.00000000000E+00 0. -1.
         22    1    3    3    0    0  0.56879266903E+01 -0.21617623893E+02 -0.26694967890E+03  0.26788393986E+03  0.00000000000E+00 0. -1.
         22    1    3    3    0    0 -0.43263380828E+02  0.67505464013E+02 -0.13275000434E+03  0.15508472344E+03  0.00000000000E+00 0. -1.
</event>
<event>
 7    1  0.5127424E-006  0.1645290E+03  0.7818608E-02  0.1320368E+00
          2   -1    0    0  502    0  0.00000000000E+00  0.00000000000E+00  0.90355373335E+03  0.90355373335E+03  0.00000000000E+00 0. -1.
          1   -1    0    0  501    0 -0.00000000000E+00 -0.00000000000E+00 -0.98285269382E+03  0.98285269382E+03  0.00000000000E+00 0. -1.
         25    2    1    2    0    0  0.76559646438E+02 -0.11872447051E+03  0.36095914731E+03  0.40727579588E+03  0.12500075407E+03 0.  0.
          2    1    1    2  501    0 -0.11840287885E+03  0.11495254770E+03 -0.95173243278E+03  0.96593372110E+03  0.00000000000E+00 0. -1.
          1    1    1    2  502    0  0.41843232412E+02  0.37719228126E+01  0.51147432500E+03  0.51319691019E+03  0.00000000000E+00 0. -1.
         22    1    3    3    0    0  0.92113785504E+02 -0.47302188793E+02  0.27826119259E+03  0.29690358342E+03  0.00000000000E+00 0. -1.
         22    1    3    3    0    0 -0.15554139066E+02 -0.71422281721E+02  0.82697954723E+02  0.11037221246E+03  0.00000000000E+00 0. -1.
</event>
<event>
 7    1  0.5127424E-006  0.5749515E+02  0.7818608E-02  0.1437827E+00
          2   -1    0    0  502    0  0.00000000000E+00  0.00000000000E+00  0.22362807607E+02  0.22362807607E+02  0.00000000000E+00 0. -1.
          1   -1    0    0  501    0 -0.00000000000E+00 -0.00000000000E+00 -0.20126587209E+04  0.20126587209E+04  0.00000000000E+00 0. -1.
         25    2    1    2    0    0 -0.66482841600E+01  0.20141380222E+02 -0.28315491807E+03  0.31024126847E+03  0.12499224839E+03 0.  0.
          2    1    1    2  501    0 -0.53435298775E+02 -0.21221700811E+02 -0.16067466348E+04  0.16077749968E+04  0.00000000000E+00 0. -1.
          1    1    1    2  502    0  0.60083582935E+02  0.10803205894E+01 -0.10039436044E+03  0.11700526329E+03  0.00000000000E+00 0. -1.
         22    1    3    3    0    0  0.36574814066E+02 -0.18794277377E+01 -0.24710273311E+03  0.24980194151E+03  0.00000000000E+00 0. -1.
         22    1    3    3    0    0 -0.43223098226E+02  0.22020807959E+02 -0.36052184960E+02  0.60439326963E+02  0.00000000000E+00 0. -1.
</event>
<event>
 7    1  0.5127424E-006  0.4880224E+02  0.7818608E-02  0.1524088E+00
          2   -1    0    0  502    0  0.00000000000E+00  0.00000000000E+00  0.30202808201E+04  0.30202808201E+04  0.00000000000E+00 0. -1.
          1   -1    0    0  501    0 -0.00000000000E+00 -0.00000000000E+00 -0.12261525756E+04  0.12261525756E+04  0.00000000000E+00 0. -1.
         25    2    1    2    0    0  0.38877795297E+02  0.36634449017E+02  0.41842027152E+03  0.43994813802E+03  0.12500109883E+03 0.  0.
          2    1    1    2  501    0 -0.27384496985E+02  0.10880436109E+02 -0.12149794141E+04  0.12153366905E+04  0.00000000000E+00 0. -1.
          1    1    1    2  502    0 -0.11493298311E+02 -0.47514885126E+02  0.25906873871E+04  0.25911485673E+04  0.00000000000E+00 0. -1.
         22    1    3    3    0    0 -0.11702321624E+02  0.72278655667E+02  0.25087908505E+03  0.26134548726E+03  0.00000000000E+00 0.  1.
         22    1    3    3    0    0  0.50580116921E+02 -0.35644206650E+02  0.16754118647E+03  0.17860265076E+03  0.00000000000E+00 0.  1.
</event>
<event>
 7    1  0.5127424E-006  0.8392036E+02  0.7818608E-02  0.1443250E+00
          2   -1    0    0  502    0  0.00000000000E+00  0.00000000000E+00  0.28331451631E+04  0.28331451631E+04  0.00000000000E+00 0. -1.
          1   -1    0    0  501    0 -0.00000000000E+00 -0.00000000000E+00 -0.61157242661E+03  0.61157242661E+03  0.00000000000E+00 0. -1.
         25    2    1    2    0    0  0.10146044729E+03  0.45783424200E+02  0.66582941493E+02  0.18013304458E+03  0.12499712539E+03 0.  0.
          2    1    1    2  501    0 -0.30186558122E+02 -0.20549887878E+01 -0.55373919808E+03  0.55456519073E+03  0.00000000000E+00 0. -1.
          1    1    1    2  502    0 -0.71273889171E+02 -0.43728435412E+02  0.27087289931E+04  0.27100193544E+04  0.00000000000E+00 0. -1.
         22    1    3    3    0    0  0.77696915432E+02  0.86736576720E+02  0.63616738872E+02  0.13269187569E+03  0.00000000000E+00 0. -1.
         22    1    3    3    0    0  0.23763531861E+02 -0.40953152520E+02  0.29662026210E+01  0.47441168892E+02  0.00000000000E+00 0. -1.
</event>
<event>
 7    1  0.5127424E-006  0.1853492E+03  0.7818608E-02  0.1283779E+00
          2   -1    0    0  502    0  0.00000000000E+00  0.00000000000E+00  0.59537161365E+03  0.59537161365E+03  0.00000000000E+00 0. -1.
          1   -1    0    0  501    0 -0.00000000000E+00 -0.00000000000E+00 -0.52126831816E+03  0.52126831816E+03  0.00000000000E+00 0. -1.
         25    2    1    2    0    0  0.11097351242E+03 -0.12177652416E+03  0.93651913994E+01  0.20702005343E+03  0.12499981367E+03 0.  0.
          2    1    1    2  501    0 -0.15983452330E+03  0.10340932721E+03 -0.39945638680E+03  0.44249968220E+03  0.00000000000E+00 0. -1.
          1    1    1    2  502    0  0.48861010883E+02  0.18367196950E+02  0.46419449089E+03  0.46712019618E+03  0.00000000000E+00 0. -1.
         22    1    3    3    0    0 -0.13676270313E+02  0.68940257611E+01 -0.20304115903E+02  0.25432756113E+02  0.00000000000E+00 0.  1.
         22    1    3    3    0    0  0.12464978273E+03 -0.12867054992E+03  0.29669307303E+02  0.18158729732E+03  0.00000000000E+00 0.  1.
</event>
<event>
 7    1  0.5127424E-006  0.9847498E+02  0.7818608E-02  0.1310283E+00
          2   -1    0    0  502    0  0.00000000000E+00  0.00000000000E+00  0.39089405490E+03  0.39089405490E+03  0.00000000000E+00 0. -1.
          1   -1    0    0  501    0 -0.00000000000E+00 -0.00000000000E+00 -0.10170388659E+04  0.10170388659E+04  0.00000000000E+00 0. -1.
         25    2    1    2    0    0  0.11787338878E+03 -0.10257731319E+03 -0.61934525635E+03  0.65086870204E+03  0.12500111904E+03 0.  0.
          2    1    1    2  501    0 -0.24470861269E+02  0.72863369137E+02 -0.37152791062E+03  0.37939541639E+03  0.00000000000E+00 0. -1.
          1    1    1    2  502    0 -0.93402527512E+02  0.29713944053E+02  0.36472835598E+03  0.37766880236E+03  0.00000000000E+00 0. -1.
         22    1    3    3    0    0  0.13210800686E+03 -0.81733517793E+02 -0.59788779628E+03  0.61774000223E+03  0.00000000000E+00 0.  1.
         22    1    3    3    0    0 -0.14234618081E+02 -0.20843795398E+02 -0.21457460068E+02  0.33128699809E+02  0.00000000000E+00 0.  1.
</event>
<event>
 7    1  0.5127424E-006  0.2774832E+03  0.7818608E-02  0.1190540E+00
          2   -1    0    0  502    0  0.00000000000E+00  0.00000000000E+00  0.93392805691E+03  0.93392805691E+03  0.00000000000E+00 0. -1.
          1   -1    0    0  501    0 -0.00000000000E+00 -0.00000000000E+00 -0.60018693564E+03  0.60018693564E+03  0.00000000000E+00 0. -1.
         25    2    1    2    0    0 -0.18593093213E+03  0.69223466141E+02  0.42442424782E+03  0.48489535925E+03  0.12500146997E+03 0.  0.
          2    1    1    2  501    0  0.27623228986E+03 -0.65071141037E+02 -0.52973200835E+03  0.60096133988E+03  0.00000000000E+00 0. -1.
          1    1    1    2  502    0 -0.90301357724E+02 -0.41523251042E+01  0.43904888181E+03  0.44825829343E+03  0.00000000000E+00 0. -1.
         22    1    3    3    0    0 -0.14971550752E+03 -0.72187527107E+01  0.27417289465E+03  0.31247019017E+03  0.00000000000E+00 0. -1.
         22    1    3    3    0    0 -0.36215424614E+02  0.76442218852E+02  0.15025135317E+03  0.17242516908E+03  0.00000000000E+00 0. -1.
</event>
<event>
 7    1  0.5127424E-006  0.7377880E+02  0.7818608E-02  0.1460127E+00
          2   -1    0    0  502    0  0.00000000000E+00  0.00000000000E+00  0.86631075168E+03  0.86631075168E+03  0.00000000000E+00 0. -1.
          1   -1    0    0  501    0 -0.00000000000E+00 -0.00000000000E+00 -0.30321010481E+03  0.30321010481E+03  0.00000000000E+00 0. -1.
         25    2    1    2    0    0 -0.58122479552E+02  0.81752092749E+02  0.15075311307E+03  0.22003000692E+03  0.12500030219E+03 0.  0.
          2    1    1    2  501    0  0.51230188376E+02 -0.52142996428E+02 -0.26324956972E+03  0.27321010273E+03  0.00000000000E+00 0. -1.
          1    1    1    2  502    0  0.68922911759E+01 -0.29609096321E+02  0.67559710352E+03  0.67628074684E+03  0.00000000000E+00 0. -1.
         22    1    3    3    0    0  0.18827540029E+02 -0.14107723980E+02 -0.23979942505E+01  0.23648562660E+02  0.00000000000E+00 0.  1.
         22    1    3    3    0    0 -0.76950019581E+02  0.95859816730E+02  0.15315110732E+03  0.19638144426E+03  0.00000000000E+00 0.  1.
</event>
<event>
 7    1  0.5127424E-006  0.9195626E+02  0.7818608E-02  0.1390039E+00
          2   -1    0    0  502    0  0.00000000000E+00  0.00000000000E+00  0.85536349519E+03  0.85536349519E+03  0.00000000000E+00 0. -1.
          1   -1    0    0  501    0 -0.00000000000E+00 -0.00000000000E+00 -0.23530740932E+03  0.23530740932E+03  0.00000000000E+00 0. -1.
         25    2    1    2    0    0  0.11587701009E+03  0.43192288658E+01  0.13332071139E+03  0.21643968003E+03  0.12500234319E+03 0.  0.
          2    1    1    2  501    0 -0.87093374589E+02  0.25803254250E+02 -0.18241765258E+03  0.20378239325E+03  0.00000000000E+00 0. -1.
          1    1    1    2  502    0 -0.28783635496E+02 -0.30122483116E+02  0.66915302706E+03  0.67044883122E+03  0.00000000000E+00 0. -1.
         22    1    3    3    0    0  0.13316829657E+03  0.32327126733E+02  0.10033931389E+03  0.16984350517E+03  0.00000000000E+00 0.  1.
         22    1    3    3    0    0 -0.17291286488E+02 -0.28007897867E+02  0.32981397496E+02  0.46596174865E+02  0.00000000000E+00 0.  1.
</event>
<event>
 7    1  0.5127424E-006  0.2249478E+03  0.7818608E-02  0.1332541E+00
          2   -1    0    0  502    0  0.00000000000E+00  0.00000000000E+00  0.14574536255E+04  0.14574536255E+04  0.00000000000E+00 0. -1.
          1   -1    0    0  501    0 -0.00000000000E+00 -0.00000000000E+00 -0.34269111510E+03  0.34269111510E+03  0.00000000000E+00 0. -1.
         25    2    1    2    0    0  0.21330151231E+03 -0.12357732336E+03  0.68320114349E+03  0.73699247028E+03  0.12500083513E+03 0.  0.
          2    1    1    2  501    0 -0.20065355674E+03  0.99054807261E+02 -0.27585177985E+03  0.35520122343E+03  0.00000000000E+00 0. -1.
          1    1    1    2  502    0 -0.12647955566E+02  0.24522516103E+02  0.70741314681E+03  0.70795104693E+03  0.00000000000E+00 0. -1.
         22    1    3    3    0    0  0.17095506798E+03 -0.61727969184E+02  0.59015153818E+03  0.61750693556E+03  0.00000000000E+00 0.  1.
         22    1    3    3    0    0  0.42346444326E+02 -0.61849354180E+02  0.93049605310E+02  0.11948553472E+03  0.00000000000E+00 0.  1.
</event>
<event>
 7    1  0.5127424E-006  0.7487738E+02  0.7818608E-02  0.1409844E+00
          2   -1    0    0  502    0  0.00000000000E+00  0.00000000000E+00  0.23556652141E+03  0.23556652141E+03  0.00000000000E+00 0. -1.
          1   -1    0    0  501    0 -0.00000000000E+00 -0.00000000000E+00 -0.16486766457E+04  0.16486766457E+04  0.00000000000E+00 0. -1.
         25    2    1    2    0    0  0.30045712720E+01 -0.60936869411E+02 -0.53513444700E+03  0.55291618606E+03  0.12500041177E+03 0.  0.
          2    1    1    2  501    0  0.43692470228E+02  0.20357641334E+01 -0.10979725730E+04  0.10988434590E+04  0.00000000000E+00 0. -1.
          1    1    1    2  502    0 -0.46697041500E+02  0.58901105277E+02  0.21999689573E+03  0.23248352204E+03  0.00000000000E+00 0. -1.
         22    1    3    3    0    0 -0.25072236260E+02 -0.66955500006E+02 -0.14442349499E+03  0.16115148748E+03  0.00000000000E+00 0.  1.
         22    1    3    3    0    0  0.28076807532E+02  0.60186305954E+01 -0.39071095201E+03  0.39176469858E+03  0.00000000000E+00 0.  1.
</event>
<event>
 7    1  0.5127424E-006  0.2949379E+02  0.7818608E-02  0.1671117E+00
          2   -1    0    0  502    0  0.00000000000E+00  0.00000000000E+00  0.94228474800E+01  0.94228474800E+01  0.00000000000E+00 0. -1.
          1   -1    0    0  501    0 -0.00000000000E+00 -0.00000000000E+00 -0.14583839780E+04  0.14583839780E+04  0.00000000000E+00 0. -1.
         25    2    1    2    0    0  0.47343859843E+02  0.89737500588E+01 -0.87499319886E+03  0.88518874501E+03  0.12499618788E+03 0.  0.
          2    1    1    2  501    0 -0.27827545824E+02 -0.44350346344E+01 -0.55262661119E+03  0.55334457008E+03  0.00000000000E+00 0. -1.
          1    1    1    2  502    0 -0.19516314019E+02 -0.45387154243E+01 -0.21341320425E+02  0.29273510347E+02  0.00000000000E+00 0. -1.
         22    1    3    3    0    0  0.45160087195E+02  0.21224503855E+02 -0.11829904549E+03  0.12839227860E+03  0.00000000000E+00 0. -1.
         22    1    3    3    0    0  0.21837726474E+01 -0.12250753796E+02 -0.75669415336E+03  0.75679646641E+03  0.00000000000E+00 0. -1.
</event>
<event>
 7    1  0.5127424E-006  0.5757009E+02  0.7818608E-02  0.1512533E+00
          2   -1    0    0  502    0  0.00000000000E+00  0.00000000000E+00  0.59443044544E+03  0.59443044544E+03  0.00000000000E+00 0. -1.
          1   -1    0    0  501    0 -0.00000000000E+00 -0.00000000000E+00 -0.17753182165E+04  0.17753182165E+04  0.00000000000E+00 0. -1.
         25    2    1    2    0    0 -0.80258557297E+02  0.25716366287E+02  0.46163985034E+02  0.15766826992E+03  0.12500160924E+03 0.  0.
          2    1    1    2  501    0  0.55389747447E+02 -0.15227210157E+02 -0.17187160776E+04  0.17196757972E+04  0.00000000000E+00 0. -1.
          1    1    1    2  502    0  0.24868809850E+02 -0.10489156130E+02  0.49166432143E+03  0.49240459489E+03  0.00000000000E+00 0. -1.
         22    1    3    3    0    0 -0.11186631961E+03  0.70570695876E+01  0.23485203888E+02  0.11452262002E+03  0.00000000000E+00 0.  1.
         22    1    3    3    0    0  0.31607762310E+02  0.18659296700E+02  0.22678781146E+02  0.43145649907E+02  0.00000000000E+00 0.  1.
</event>
<event>
 7    1  0.5127424E-006  0.5761542E+02  0.7818608E-02  0.1508261E+00
          2   -1    0    0  502    0  0.00000000000E+00  0.00000000000E+00  0.11091466600E+03  0.11091466600E+03  0.00000000000E+00 0. -1.
          1   -1    0    0  501    0 -0.00000000000E+00 -0.00000000000E+00 -0.94660832975E+03  0.94660832975E+03  0.00000000000E+00 0. -1.
         25    2    1    2    0    0 -0.26332256123E+02  0.53613186029E+02 -0.16796650401E+03  0.21772668264E+03  0.12499760171E+03 0.  0.
          2    1    1    2  501    0 -0.20101836908E+02 -0.19146645094E+02 -0.74375622138E+03  0.74427413949E+03  0.00000000000E+00 0. -1.
          1    1    1    2  502    0  0.46434093032E+02 -0.34466540936E+02  0.76029061647E+02  0.95522173629E+02  0.00000000000E+00 0. -1.
         22    1    3    3    0    0 -0.63778347221E+02  0.61335532226E+01 -0.13361045559E+03  0.14817912098E+03  0.00000000000E+00 0.  1.
         22    1    3    3    0    0  0.37446091098E+02  0.47479632807E+02 -0.34356048420E+02  0.69547561661E+02  0.00000000000E+00 0.  1.
</event>
<event>
 7    1  0.5127424E-006  0.9095990E+02  0.7818608E-02  0.1482813E+00
          2   -1    0    0  502    0  0.00000000000E+00  0.00000000000E+00  0.74353768480E+03  0.74353768480E+03  0.00000000000E+00 0. -1.
          1   -1    0    0  501    0 -0.00000000000E+00 -0.00000000000E+00 -0.91184267460E+03  0.91184267460E+03  0.00000000000E+00 0. -1.
         25    2    1    2    0    0 -0.72636195515E+02 -0.80283217137E+02 -0.20134449328E+02  0.16659055172E+03  0.12500241605E+03 0.  0.
          2    1    1    2  501    0  0.52856763041E+02  0.73326885478E+02 -0.81581941568E+03  0.82081178630E+03  0.00000000000E+00 0. -1.
          1    1    1    2  502    0  0.19779432475E+02  0.69563316589E+01  0.66764887520E+03  0.66797802139E+03  0.00000000000E+00 0. -1.
         22    1    3    3    0    0 -0.54615561798E+02 -0.51225865529E+02 -0.72385211467E+02  0.10414685655E+03  0.00000000000E+00 0.  1.
         22    1    3    3    0    0 -0.18020633717E+02 -0.29057351607E+02  0.52250762140E+02  0.62443695168E+02  0.00000000000E+00 0.  1.
</event>
<event>
 7    1  0.5127424E-006  0.1087463E+03  0.7818608E-02  0.1364614E+00
          2   -1    0    0  502    0  0.00000000000E+00  0.00000000000E+00  0.70823361195E+03  0.70823361195E+03  0.00000000000E+00 0. -1.
          1   -1    0    0  501    0 -0.00000000000E+00 -0.00000000000E+00 -0.56973300980E+03  0.56973300980E+03  0.00000000000E+00 0. -1.
         25    2    1    2    0    0  0.16870943859E+02 -0.64599358036E+02  0.13873556254E+03  0.19831850962E+03  0.12499987655E+03 0.  0.
          2    1    1    2  501    0 -0.27162349858E+02  0.10674631286E+03 -0.53343373150E+03  0.54468717119E+03  0.00000000000E+00 0. -1.
          1    1    1    2  502    0  0.10291405999E+02 -0.42146954824E+02  0.53319877110E+03  0.53496094095E+03  0.00000000000E+00 0. -1.
         22    1    3    3    0    0 -0.47827084438E+02 -0.32111286309E+02  0.10197930465E+03  0.11712533155E+03  0.00000000000E+00 0. -1.
         22    1    3    3    0    0  0.64698028297E+02 -0.32488071727E+02  0.36756257890E+02  0.81193178064E+02  0.00000000000E+00 0. -1.
</event>
<event>
 7    1  0.5127424E-006  0.3693765E+02  0.7818608E-02  0.1600268E+00
          2   -1    0    0  502    0  0.00000000000E+00  0.00000000000E+00  0.81493221388E+03  0.81493221388E+03  0.00000000000E+00 0. -1.
          1   -1    0    0  501    0 -0.00000000000E+00 -0.00000000000E+00 -0.14998077190E+03  0.14998077190E+03  0.00000000000E+00 0. -1.
         25    2    1    2    0    0 -0.12983354757E+02 -0.60362026054E+01  0.66339916023E+03  0.67522284474E+03  0.12498976371E+03 0.  0.
          2    1    1    2  501    0  0.36874497670E+02  0.32973073523E+01 -0.14066437369E+03  0.14545468999E+03  0.00000000000E+00 0. -1.
          1    1    1    2  502    0 -0.23891142913E+02  0.27388952532E+01  0.14221665544E+03  0.14423545106E+03  0.00000000000E+00 0. -1.
         22    1    3    3    0    0 -0.43807223069E+02 -0.47133651021E+02  0.23141701004E+03  0.24019676598E+03  0.00000000000E+00 0.  1.
         22    1    3    3    0    0  0.30823868313E+02  0.41097448415E+02  0.43198215019E+03  0.43502607877E+03  0.00000000000E+00 0.  1.
</event>
<event>
 7    1  0.5127424E-006  0.1788840E+03  0.7818608E-02  0.1324805E+00
          2   -1    0    0  502    0  0.00000000000E+00  0.00000000000E+00  0.82507637455E+03  0.82507637455E+03  0.00000000000E+00 0. -1.
          1   -1    0    0  501    0 -0.00000000000E+00 -0.00000000000E+00 -0.58398809353E+03  0.58398809353E+03  0.00000000000E+00 0. -1.
         25    2    1    2    0    0  0.66269798619E+02 -0.13692601119E+03  0.26498991006E+03  0.33012929792E+03  0.12500112863E+03 0.  0.
          2    1    1    2  501    0 -0.54037430708E+02  0.17199972357E+03 -0.53599115408E+03  0.56550019105E+03  0.00000000000E+00 0. -1.
          1    1    1    2  502    0 -0.12232367911E+02 -0.35073712378E+02  0.51208952503E+03  0.51343497911E+03  0.00000000000E+00 0. -1.
         22    1    3    3    0    0 -0.26611750530E+02 -0.59016067153E+02  0.44657760013E+02  0.78647294790E+02  0.00000000000E+00 0. -1.
         22    1    3    3    0    0  0.92881549149E+02 -0.77909944041E+02  0.22033215005E+03  0.25148200313E+03  0.00000000000E+00 0. -1.
</event>
<event>
 7    1  0.5127424E-006  0.5666317E+02  0.7818608E-02  0.1462634E+00
          2   -1    0    0  502    0  0.00000000000E+00  0.00000000000E+00  0.75137876306E+02  0.75137876306E+02  0.00000000000E+00 0. -1.
          1   -1    0    0  501    0 -0.00000000000E+00 -0.00000000000E+00 -0.21298143208E+04  0.21298143208E+04  0.00000000000E+00 0. -1.
         25    2    1    2    0    0  0.85526674515E+02  0.16022739949E+02 -0.15261697318E+04  0.15337503370E+04  0.12499802266E+03 0.  0.
          2    1    1    2  501    0 -0.48589022998E+02 -0.39182049210E+01 -0.59348560762E+03  0.59548418278E+03  0.00000000000E+00 0. -1.
          1    1    1    2  502    0 -0.36937651517E+02 -0.12104535028E+02  0.64978894960E+02  0.75717677316E+02  0.00000000000E+00 0. -1.
         22    1    3    3    0    0  0.10231419174E+03  0.41604347043E+02 -0.88723425600E+03  0.89408262513E+03  0.00000000000E+00 0.  1.
         22    1    3    3    0    0 -0.16787517224E+02 -0.25581607094E+02 -0.63893547580E+03  0.63966771186E+03  0.00000000000E+00 0.  1.
</event>
<event>
 7    1  0.5127424E-006  0.7223525E+02  0.7818608E-02  0.1404249E+00
          2   -1    0    0  502    0  0.00000000000E+00  0.00000000000E+00  0.10492471208E+04  0.10492471208E+04  0.00000000000E+00 0. -1.
          1   -1    0    0  501    0 -0.00000000000E+00 -0.00000000000E+00 -0.86864311766E+02  0.86864311766E+02  0.00000000000E+00 0. -1.
         25    2    1    2    0    0  0.86145355006E+02 -0.70820012388E+02  0.30767686869E+03  0.35032323281E+03  0.12499926231E+03 0.  0.
          2    1    1    2  501    0 -0.23448678531E+02  0.41161189818E+02 -0.55064320493E+02  0.72637204403E+02  0.00000000000E+00 0. -1.
          1    1    1    2  502    0 -0.62696676475E+02  0.29658822569E+02  0.70977026081E+03  0.71315099532E+03  0.00000000000E+00 0. -1.
         22    1    3    3    0    0 -0.88325442264E+01  0.28472042223E+02  0.63252849143E+02  0.69925631571E+02  0.00000000000E+00 0.  1.
         22    1    3    3    0    0  0.94977899232E+02 -0.99292054611E+02  0.24442401954E+03  0.28039760124E+03  0.00000000000E+00 0.  1.
</event>
<event>
 7    1  0.5127424E-006  0.6495571E+02  0.7818608E-02  0.1404100E+00
          2   -1    0    0  502    0  0.00000000000E+00  0.00000000000E+00  0.11766735687E+04  0.11766735687E+04  0.00000000000E+00 0. -1.
          1   -1    0    0  501    0 -0.00000000000E+00 -0.00000000000E+00 -0.30308466357E+03  0.30308466357E+03  0.00000000000E+00 0. -1.
         25    2    1    2    0    0  0.25853754063E+02 -0.58978261614E+01  0.56241621962E+03  0.57674987193E+03  0.12500083892E+03 0.  0.
          2    1    1    2  501    0  0.52742323846E+02 -0.10899596619E+00 -0.29097842216E+03  0.29571981126E+03  0.00000000000E+00 0. -1.
          1    1    1    2  502    0 -0.78596077908E+02  0.60068221276E+01  0.60215110763E+03  0.60728854904E+03  0.00000000000E+00 0. -1.
         22    1    3    3    0    0  0.41497295747E+02 -0.17971033055E+02  0.55302559998E+03  0.55487142458E+03  0.00000000000E+00 0.  1.
         22    1    3    3    0    0 -0.15643541685E+02  0.12073206894E+02  0.93906196335E+01  0.21878447345E+02  0.00000000000E+00 0.  1.
</event>
<event>
 7    1  0.5127424E-006  0.6734332E+02  0.7818608E-02  0.1463783E+00
          2   -1    0    0  502    0  0.00000000000E+00  0.00000000000E+00  0.10807148149E+04  0.10807148149E+04  0.00000000000E+00 0. -1.
          1   -1    0    0  501    0 -0.00000000000E+00 -0.00000000000E+00 -0.23365734325E+03  0.23365734325E+03  0.00000000000E+00 0. -1.
         25    2    1    2    0    0  0.85846462215E+01  0.34570149981E+02  0.23212234484E+03  0.26603450562E+03  0.12499913514E+03 0.  0.
          2    1    1    2  501    0 -0.18287690243E+02 -0.65520212291E+02 -0.21103671945E+03  0.22172919246E+03  0.00000000000E+00 0. -1.
          1    1    1    2  502    0  0.97030440212E+01  0.30950062309E+02  0.82597184626E+03  0.82660846005E+03  0.00000000000E+00 0. -1.
         22    1    3    3    0    0 -0.20908061271E+02 -0.38576988584E+02  0.44429781684E+02  0.62444668105E+02  0.00000000000E+00 0. -1.
         22    1    3    3    0    0  0.29492707493E+02  0.73147138565E+02  0.18769256316E+03  0.20358983752E+03  0.00000000000E+00 0. -1.
</event>
<event>
 7    1  0.5127424E-006  0.4058802E+02  0.7818608E-02  0.1543644E+00
          2   -1    0    0  502    0  0.00000000000E+00  0.00000000000E+00  0.10020023908E+04  0.10020023908E+04  0.00000000000E+00 0. -1.
          1   -1    0    0  501    0 -0.00000000000E+00 -0.00000000000E+00 -0.59889045326E+02  0.59889045326E+02  0.00000000000E+00 0. -1.
         25    2    1    2    0    0  0.10224375322E+01 -0.10243165444E+02  0.18360045110E+03  0.22235913098E+03  0.12501395789E+03 0.  0.
          2    1    1    2  501    0  0.73579408066E+00 -0.31154132455E+02 -0.33894122238E+02  0.46042728897E+02  0.00000000000E+00 0. -1.
          1    1    1    2  502    0 -0.17582316128E+01  0.41397297900E+02  0.79240701661E+03  0.79348957625E+03  0.00000000000E+00 0. -1.
         22    1    3    3    0    0  0.43062981929E+02  0.36040811935E+02  0.51440944501E+02  0.76154653888E+02  0.00000000000E+00 0.  1.
         22    1    3    3    0    0 -0.42040544397E+02 -0.46283977379E+02  0.13215950660E+03  0.14620447709E+03  0.00000000000E+00 0.  1.
</event>
<event>
 7    1  0.5127424E-006  0.1524801E+03  0.7818608E-02  0.1292403E+00
          2   -1    0    0  502    0  0.00000000000E+00  0.00000000000E+00  0.38051866546E+03  0.38051866546E+03  0.00000000000E+00 0. -1.
          1   -1    0    0  501    0 -0.00000000000E+00 -0.00000000000E+00 -0.20680069421E+04  0.20680069421E+04  0.00000000000E+00 0. -1.
         25    2    1    2    0    0 -0.16450245072E+03 -0.72924404756E+02 -0.48203918978E+02  0.22433809981E+03  0.12499976048E+03 0.  0.
          2    1    1    2  501    0  0.15796917805E+02  0.56341274307E+02 -0.19121205509E+04  0.19130156515E+04  0.00000000000E+00 0. -1.
          1    1    1    2  502    0  0.14870553291E+03  0.16583130449E+02  0.27283619327E+03  0.31117185620E+03  0.00000000000E+00 0. -1.
         22    1    3    3    0    0  0.13509590568E+02  0.11713556698E+02  0.76802768502E+01  0.19460295484E+02  0.00000000000E+00 0. -1.
         22    1    3    3    0    0 -0.17801204128E+03 -0.84637961454E+02 -0.55884195828E+02  0.20487780432E+03  0.00000000000E+00 0. -1.
</event>
<event>
 7    1  0.5127424E-006  0.1938152E+03  0.7818608E-02  0.1215135E+00
          2   -1    0    0  502    0  0.00000000000E+00  0.00000000000E+00  0.65693246864E+03  0.65693246864E+03  0.00000000000E+00 0. -1.
          1   -1    0    0  501    0 -0.00000000000E+00 -0.00000000000E+00 -0.37044201811E+03  0.37044201811E+03  0.00000000000E+00 0. -1.
         25    2    1    2    0    0 -0.14537221685E+02  0.12281462629E+03  0.32036840832E+02  0.17873941259E+03  0.12500662062E+03 0.  0.
          2    1    1    2  501    0  0.43526695192E+02 -0.21769381810E+03 -0.25010153944E+03  0.33441882672E+03  0.00000000000E+00 0. -1.
          1    1    1    2  502    0 -0.28989473508E+02  0.94879191817E+02  0.50455514914E+03  0.51421624745E+03  0.00000000000E+00 0. -1.
         22    1    3    3    0    0 -0.55496942331E+02  0.16424730400E+02  0.28907845172E+02  0.64694249276E+02  0.00000000000E+00 0.  1.
         22    1    3    3    0    0  0.40959720647E+02  0.10638989589E+03  0.31289956597E+01  0.11404516332E+03  0.00000000000E+00 0.  1.
</event>
<event>
 7    1  0.5127424E-006  0.9926400E+02  0.7818608E-02  0.1363659E+00
          2   -1    0    0  502    0  0.00000000000E+00  0.00000000000E+00  0.11028677771E+03  0.11028677771E+03  0.00000000000E+00 0. -1.
          1   -1    0    0  501    0 -0.00000000000E+00 -0.00000000000E+00 -0.20156613495E+04  0.20156613495E+04  0.00000000000E+00 0. -1.
         25    2    1    2    0    0 -0.53709822434E+02 -0.24973126665E+02 -0.44821358262E+03  0.46907445750E+03  0.12500811552E+03 0.  0.
          2    1    1    2  501    0  0.10080122273E+03  0.33791483789E+02 -0.15493422257E+04  0.15529855386E+04  0.00000000000E+00 0. -1.
          1    1    1    2  502    0 -0.47091400297E+02 -0.88183571237E+01  0.92181236541E+02  0.10388813106E+03  0.00000000000E+00 0. -1.
         22    1    3    3    0    0 -0.34349333018E+02 -0.75413890938E+02 -0.23740125096E+03  0.25144877328E+03  0.00000000000E+00 0. -1.
         22    1    3    3    0    0 -0.19360489417E+02  0.50440764273E+02 -0.21081233166E+03  0.21762568421E+03  0.00000000000E+00 0. -1.
</event>
<event>
 7    1  0.5127424E-006  0.1070273E+03  0.7818608E-02  0.1306800E+00
          2   -1    0    0  502    0  0.00000000000E+00  0.00000000000E+00  0.86400214204E+03  0.86400214204E+03  0.00000000000E+00 0. -1.
          1   -1    0    0  501    0 -0.00000000000E+00 -0.00000000000E+00 -0.53948351499E+03  0.53948351499E+03  0.00000000000E+00 0. -1.
         25    2    1    2    0    0  0.17135626273E+03  0.24620492722E+02  0.39333773999E+02  0.21711848981E+03  0.12499662155E+03 0.  0.
          2    1    1    2  501    0 -0.98797039846E+02 -0.32599005279E+02 -0.44273607287E+03  0.45479531710E+03  0.00000000000E+00 0. -1.
          1    1    1    2  502    0 -0.72559222885E+02  0.79785125569E+01  0.72792092593E+03  0.73157185012E+03  0.00000000000E+00 0. -1.
         22    1    3    3    0    0 -0.90734181535E+01  0.18351583642E+02 -0.18448882347E+02  0.27558461478E+02  0.00000000000E+00 0.  1.
         22    1    3    3    0    0  0.18042968088E+03  0.62689090801E+01  0.57782656347E+02  0.18956002833E+03  0.00000000000E+00 0.  1.
</event>
<event>
 7    1  0.5127424E-006  0.5344851E+02  0.7818608E-02  0.1471712E+00
          2   -1    0    0  502    0  0.00000000000E+00  0.00000000000E+00  0.87057505258E+03  0.87057505258E+03  0.00000000000E+00 0. -1.
          1   -1    0    0  501    0 -0.00000000000E+00 -0.00000000000E+00 -0.30011901465E+03  0.30011901465E+03  0.00000000000E+00 0. -1.
         25    2    1    2    0    0 -0.44892339945E+01  0.27566125719E+02 -0.28727167457E+02  0.13126459954E+03  0.12500040173E+03 0.  0.
          2    1    1    2  501    0  0.34662335007E+02  0.16994298125E+02 -0.21753821233E+03  0.22093699885E+03  0.00000000000E+00 0. -1.
          1    1    1    2  502    0 -0.30173101013E+02 -0.44560423844E+02  0.81672141771E+03  0.81849246884E+03  0.00000000000E+00 0. -1.
         22    1    3    3    0    0 -0.44014247121E+02  0.47935374176E+02  0.17228157122E+02  0.67319116488E+02  0.00000000000E+00 0. -1.
         22    1    3    3    0    0  0.39525013126E+02 -0.20369248456E+02 -0.45955324579E+02  0.63945483050E+02  0.00000000000E+00 0. -1.
</event>
<event>
 7    1  0.5127424E-006  0.6551564E+02  0.7818608E-02  0.1394122E+00
          2   -1    0    0  502    0  0.00000000000E+00  0.00000000000E+00  0.12104024366E+04  0.12104024366E+04  0.00000000000E+00 0. -1.
          1   -1    0    0  501    0 -0.00000000000E+00 -0.00000000000E+00 -0.44139911151E+03  0.44139911151E+03  0.00000000000E+00 0. -1.
         25    2    1    2    0    0 -0.64334792777E+02 -0.13457373236E+02  0.15592426886E+02  0.14208686025E+03  0.12500194248E+03 0.  0.
          2    1    1    2  501    0  0.13230514519E+02  0.55028421526E+02 -0.37506824270E+03  0.37931432925E+03  0.00000000000E+00 0. -1.
          1    1    1    2  502    0  0.51104278257E+02 -0.41571048291E+02  0.11284791409E+04  0.11304003586E+04  0.00000000000E+00 0. -1.
         22    1    3    3    0    0  0.26871352724E+02 -0.28829042616E+02  0.28586056598E+02  0.48686198529E+02  0.00000000000E+00 0. -1.
         22    1    3    3    0    0 -0.91206145501E+02  0.15371669380E+02 -0.12993629712E+02  0.93400661720E+02  0.00000000000E+00 0. -1.
</event>
<event>
 7    1  0.5127424E-006  0.6857463E+02  0.7818608E-02  0.1374024E+00
          2   -1    0    0  502    0  0.00000000000E+00  0.00000000000E+00  0.90732892582E+03  0.90732892582E+03  0.00000000000E+00 0. -1.
          1   -1    0    0  501    0 -0.00000000000E+00 -0.00000000000E+00 -0.67885063800E+02  0.67885063800E+02  0.00000000000E+00 0. -1.
         25    2    1    2    0    0 -0.20338220618E+02 -0.23082744340E+02  0.21657110842E+03  0.25194055376E+03  0.12499816528E+03 0.  0.
          2    1    1    2  501    0  0.40738252696E+02 -0.48891794744E+02 -0.26984543094E+02  0.69124369017E+02  0.00000000000E+00 0. -1.
          1    1    1    2  502    0 -0.20400032078E+02  0.71974539084E+02  0.64985729669E+03  0.65414906684E+03  0.00000000000E+00 0. -1.
         22    1    3    3    0    0 -0.58900624501E+02  0.21579665398E+02  0.70311602240E+02  0.94226784593E+02  0.00000000000E+00 0.  1.
         22    1    3    3    0    0  0.38562403883E+02 -0.44662409737E+02  0.14625950618E+03  0.15771376917E+03  0.00000000000E+00 0.  1.
</event>
<event>
 7    1  0.5127424E-006  0.1597427E+03  0.7818608E-02  0.1223909E+00
          2   -1    0    0  502    0  0.00000000000E+00  0.00000000000E+00  0.16277406898E+04  0.16277406898E+04  0.00000000000E+00 0. -1.
          1   -1    0    0  501    0 -0.00000000000E+00 -0.00000000000E+00 -0.94039321898E+03  0.94039321898E+03  0.00000000000E+00 0. -1.
         25    2    1    2    0    0  0.10671816729E+03 -0.16699127011E+02  0.29603202604E+03  0.33900784000E+03  0.12499490816E+03 0.  0.
          2    1    1    2  501    0  0.22782611549E+02 -0.10737923632E+03 -0.90945204007E+03  0.91605259727E+03  0.00000000000E+00 0. -1.
          1    1    1    2  502    0 -0.12950077884E+03  0.12407836333E+03  0.13007674848E+04  0.13130734715E+04  0.00000000000E+00 0. -1.
         22    1    3    3    0    0 -0.19068177105E+02 -0.33170417165E+02  0.73128348257E+02  0.82532583092E+02  0.00000000000E+00 0.  1.
         22    1    3    3    0    0  0.12578634440E+03  0.16471290154E+02  0.22290367779E+03  0.25647525691E+03  0.00000000000E+00 0.  1.
</event>
<event>
 7    1  0.5127424E-006  0.8377331E+02  0.7818608E-02  0.1491003E+00
          2   -1    0    0  502    0  0.00000000000E+00  0.00000000000E+00  0.12652301095E+03  0.12652301095E+03  0.00000000000E+00 0. -1.
          1   -1    0    0  501    0 -0.00000000000E+00 -0.00000000000E+00 -0.30813408127E+04  0.30813408127E+04  0.00000000000E+00 0. -1.
         25    2    1    2    0    0 -0.68320242765E+01  0.83300605109E+02 -0.71476900072E+03  0.73041411275E+03  0.12499753738E+03 0.  0.
          2    1    1    2  501    0 -0.14658596290E+02 -0.82743913202E+02 -0.23570209693E+04  0.23585184500E+04  0.00000000000E+00 0. -1.
          1    1    1    2  502    0  0.21490620566E+02 -0.55669190752E+00  0.11697216821E+03  0.11893126088E+03  0.00000000000E+00 0. -1.
         22    1    3    3    0    0  0.20169277586E+02 -0.15372582848E+02 -0.36330154136E+02  0.44305712514E+02  0.00000000000E+00 0.  1.
         22    1    3    3    0    0 -0.27001301862E+02  0.98673187958E+02 -0.67843884659E+03  0.68610840024E+03  0.00000000000E+00 0.  1.
</event>
<event>
 7    1  0.5127424E-006  0.6576881E+02  0.7818608E-02  0.1509187E+00
          2   -1    0    0  502    0  0.00000000000E+00  0.00000000000E+00  0.52778762178E+03  0.52778762178E+03  0.00000000000E+00 0. -1.
          1   -1    0    0  501    0 -0.00000000000E+00 -0.00000000000E+00 -0.21343817616E+03  0.21343817616E+03  0.00000000000E+00 0. -1.
         25    2    1    2    0    0  0.55283320433E+02  0.37229644450E+02  0.45045834325E+03  0.47220796587E+03  0.12500140835E+03 0.  0.
          2    1    1    2  501    0 -0.16599125303E+02  0.17564650690E+02 -0.18464834786E+03  0.18622314648E+03  0.00000000000E+00 0. -1.
          1    1    1    2  502    0 -0.38684195130E+02 -0.54794295140E+02  0.48539450239E+02  0.82794685591E+02  0.00000000000E+00 0. -1.
         22    1    3    3    0    0  0.61248493400E+02  0.15353797897E+02  0.84188670302E+02  0.10523710971E+03  0.00000000000E+00 0.  1.
         22    1    3    3    0    0 -0.59651729675E+01  0.21875846553E+02  0.36626967295E+03  0.36697085616E+03  0.00000000000E+00 0.  1.
</event>
<event>
 7    1  0.5127424E-006  0.5235047E+02  0.7818608E-02  0.1444808E+00
          2   -1    0    0  502    0  0.00000000000E+00  0.00000000000E+00  0.19681537836E+04  0.19681537836E+04  0.00000000000E+00 0. -1.
          1   -1    0    0  501    0 -0.00000000000E+00 -0.00000000000E+00 -0.90665236292E+03  0.90665236292E+03  0.00000000000E+00 0. -1.
         25    2    1    2    0    0 -0.31888535075E+02 -0.81069852652E+02  0.10808523361E+03  0.18681004935E+03  0.12500550841E+03 0.  0.
          2    1    1    2  501    0 -0.78109356775E+01  0.47303757686E+02 -0.86625397738E+03  0.86757974246E+03  0.00000000000E+00 0. -1.
          1    1    1    2  502    0  0.39699470752E+02  0.33766094966E+02  0.18196701645E+04  0.18204163548E+04  0.00000000000E+00 0. -1.
         22    1    3    3    0    0 -0.27605340696E+02 -0.94003704835E+02  0.22994542750E+02  0.10063548258E+03  0.00000000000E+00 0.  1.
         22    1    3    3    0    0 -0.42831943783E+01  0.12933852183E+02  0.85090690862E+02  0.86174566769E+02  0.00000000000E+00 0.  1.
</event>
<event>
 7    1  0.5127424E-006  0.6190955E+02  0.7818608E-02  0.1434516E+00
          2   -1    0    0  502    0  0.00000000000E+00  0.00000000000E+00  0.71212343810E+03  0.71212343810E+03  0.00000000000E+00 0. -1.
          1   -1    0    0  501    0 -0.00000000000E+00 -0.00000000000E+00 -0.16224743962E+03  0.16224743962E+03  0.00000000000E+00 0. -1.
         25    2    1    2    0    0  0.37627757473E+02 -0.13762829669E+02  0.13280931700E+03  0.18672922851E+03  0.12499690591E+03 0.  0.
          2    1    1    2  501    0 -0.28607980986E+02  0.56608005702E+02 -0.12692528686E+03  0.14189049062E+03  0.00000000000E+00 0. -1.
          1    1    1    2  502    0 -0.90197764867E+01 -0.42845176033E+02  0.54399196834E+03  0.54575115858E+03  0.00000000000E+00 0. -1.
         22    1    3    3    0    0  0.98606983925E+01  0.37075122674E+02 -0.35974847015E+01  0.38532323966E+02  0.00000000000E+00 0. -1.
         22    1    3    3    0    0  0.27767059080E+02 -0.50837952343E+02  0.13640680170E+03  0.14819690455E+03  0.00000000000E+00 0. -1.
</event>
<event>
 7    1  0.5127424E-006  0.1095891E+03  0.7818608E-02  0.1403102E+00
          2   -1    0    0  502    0  0.00000000000E+00  0.00000000000E+00  0.30708429406E+04  0.30708429406E+04  0.00000000000E+00 0. -1.
          1   -1    0    0  501    0 -0.00000000000E+00 -0.00000000000E+00 -0.37737885247E+02  0.37737885247E+02  0.00000000000E+00 0. -1.
         25    2    1    2    0    0  0.57502903840E+01  0.81019532467E+02  0.28027915379E+03  0.31745708208E+03  0.12500145772E+03 0.  0.
          2    1    1    2  501    0  0.12949197687E+02  0.28724515439E+02 -0.42565745293E+01  0.31794621159E+02  0.00000000000E+00 0. -1.
          1    1    1    2  502    0 -0.18699488070E+02 -0.10974404791E+03  0.27570824761E+04  0.27593291226E+04  0.00000000000E+00 0. -1.
         22    1    3    3    0    0 -0.49502942751E+02  0.77404417452E+02  0.19802109693E+03  0.21829874029E+03  0.00000000000E+00 0.  1.
         22    1    3    3    0    0  0.55253233135E+02  0.36151150152E+01  0.82258056861E+02  0.99158341792E+02  0.00000000000E+00 0.  1.
</event>
<event>
 7    1  0.5127424E-006  0.1964100E+03  0.7818608E-02  0.1207121E+00
          2   -1    0    0  502    0  0.00000000000E+00  0.00000000000E+00  0.16756597698E+04  0.16756597698E+04  0.00000000000E+00 0. -1.
          1   -1    0    0  501    0 -0.00000000000E+00 -0.00000000000E+00 -0.97888596170E+02  0.97888596170E+02  0.00000000000E+00 0. -1.
         25    2    1    2    0    0 -0.23628520383E+03 -0.10580532331E+03  0.82568250844E+03  0.87430115079E+03  0.12500173417E+03 0.  0.
          2    1    1    2  501    0  0.62961375193E+02  0.86053184887E+02 -0.19317346548E+02  0.10836256398E+03  0.00000000000E+00 0. -1.
          1    1    1    2  502    0  0.17332382864E+03  0.19752138420E+02  0.77140601173E+03  0.79088465118E+03  0.00000000000E+00 0. -1.
         22    1    3    3    0    0 -0.64647073898E+01 -0.28292108744E+02  0.27127064556E+02  0.39725476589E+02  0.00000000000E+00 0. -1.
         22    1    3    3    0    0 -0.22982049644E+03 -0.77513214563E+02  0.79855544388E+03  0.83457567420E+03  0.00000000000E+00 0. -1.
</event>
<event>
 7    1  0.5127424E-006  0.3833544E+02  0.7818608E-02  0.1623857E+00
          2   -1    0    0  502    0  0.00000000000E+00  0.00000000000E+00  0.62755626506E+03  0.62755626506E+03  0.00000000000E+00 0. -1.
          1   -1    0    0  501    0 -0.00000000000E+00 -0.00000000000E+00 -0.11508389529E+04  0.11508389529E+04  0.00000000000E+00 0. -1.
         25    2    1    2    0    0 -0.43716315674E+02  0.59106028863E+01 -0.92454019784E+02  0.16161284982E+03  0.12499966388E+03 0.  0.
          2    1    1    2  501    0  0.75721320537E+01 -0.18671899406E+02 -0.10230867808E+04  0.10232851694E+04  0.00000000000E+00 0. -1.
          1    1    1    2  502    0  0.36144183620E+02  0.12761296520E+02  0.59225811275E+03  0.59349719866E+03  0.00000000000E+00 0. -1.
         22    1    3    3    0    0 -0.27891609333E+02  0.51088603345E+02 -0.80099443197E+00  0.58211930521E+02  0.00000000000E+00 0. -1.
         22    1    3    3    0    0 -0.15824706342E+02 -0.45178000458E+02 -0.91653025352E+02  0.10340091930E+03  0.00000000000E+00 0. -1.
</event>
<event>
 7    1  0.5127424E-006  0.1231376E+03  0.7818608E-02  0.1323771E+00
          2   -1    0    0  502    0  0.00000000000E+00  0.00000000000E+00  0.22160838231E+04  0.22160838231E+04  0.00000000000E+00 0. -1.
          1   -1    0    0  501    0 -0.00000000000E+00 -0.00000000000E+00 -0.24519448740E+04  0.24519448740E+04  0.00000000000E+00 0. -1.
         25    2    1    2    0    0  0.14008627159E+03  0.12101407960E+01  0.11264031150E+03  0.21894659196E+03  0.12499656966E+03 0.  0.
          2    1    1    2  501    0 -0.11311135581E+03 -0.48519876212E+02 -0.23968508294E+04  0.24000088033E+04  0.00000000000E+00 0. -1.
          1    1    1    2  502    0 -0.26974915782E+02  0.47309735416E+02  0.20483494671E+04  0.20490733019E+04  0.00000000000E+00 0. -1.
         22    1    3    3    0    0  0.75828369764E+02  0.31808913397E+02  0.12203904787E+03  0.14715732342E+03  0.00000000000E+00 0. -1.
         22    1    3    3    0    0  0.64257901826E+02 -0.30598772601E+02 -0.93987363660E+01  0.71789268537E+02  0.00000000000E+00 0. -1.
</event>
<event>
 7    1  0.5127424E-006  0.1377558E+03  0.7818608E-02  0.1298843E+00
          2   -1    0    0  502    0  0.00000000000E+00  0.00000000000E+00  0.11369193607E+04  0.11369193607E+04  0.00000000000E+00 0. -1.
          1   -1    0    0  501    0 -0.00000000000E+00 -0.00000000000E+00 -0.81509476817E+03  0.81509476817E+03  0.00000000000E+00 0. -1.
         25    2    1    2    0    0  0.91339968347E+02 -0.46465477853E+01 -0.12986534123E+03  0.20212439095E+03  0.12499872935E+03 0.  0.
          2    1    1    2  501    0 -0.14527807866E+03  0.33157752278E+02 -0.63968439680E+03  0.65681145254E+03  0.00000000000E+00 0. -1.
          1    1    1    2  502    0  0.53938110317E+02 -0.28511204492E+02  0.10913743306E+04  0.10930782854E+04  0.00000000000E+00 0. -1.
         22    1    3    3    0    0  0.75559076651E+02 -0.56257935139E+02 -0.10948682693E+03  0.14443508785E+03  0.00000000000E+00 0. -1.
         22    1    3    3    0    0  0.15780891696E+02  0.51611387354E+02 -0.20378514302E+02  0.57689303103E+02  0.00000000000E+00 0. -1.
</event>
<event>
 7    1  0.5127424E-006  0.4221345E+03  0.7818608E-02  0.1136255E+00
          2   -1    0    0  502    0  0.00000000000E+00  0.00000000000E+00  0.33819138264E+04  0.33819138264E+04  0.00000000000E+00 0. -1.
          1   -1    0    0  501    0 -0.00000000000E+00 -0.00000000000E+00 -0.64897147754E+03  0.64897147754E+03  0.00000000000E+00 0. -1.
         25    2    1    2    0    0 -0.27836474388E+03  0.21791274662E+03  0.17918830132E+03  0.41558271792E+03  0.12501060885E+03 0.  0.
          2    1    1    2  501    0 -0.89005051347E+00  0.11139010245E+03 -0.50961902327E+03  0.52165131648E+03  0.00000000000E+00 0. -1.
          1    1    1    2  502    0  0.27925479440E+03 -0.32930284907E+03  0.30633730708E+04  0.30936512696E+04  0.00000000000E+00 0. -1.
         22    1    3    3    0    0 -0.13407435293E+03  0.16441617703E+03  0.14770741251E+03  0.25850742947E+03  0.00000000000E+00 0. -1.
         22    1    3    3    0    0 -0.14429039096E+03  0.53496569593E+02  0.31480888814E+02  0.15707528845E+03  0.00000000000E+00 0. -1.
</event>
<event>
 7    1  0.5127424E-006  0.4006421E+02  0.7818608E-02  0.1551197E+00
          2   -1    0    0  502    0  0.00000000000E+00  0.00000000000E+00  0.78698615538E+03  0.78698615538E+03  0.00000000000E+00 0. -1.
          1   -1    0    0  501    0 -0.00000000000E+00 -0.00000000000E+00 -0.26891984521E+03  0.26891984521E+03  0.00000000000E+00 0. -1.
         25    2    1    2    0    0  0.32190710413E+02 -0.42542012789E+02  0.53317454974E+03  0.55022359235E+03  0.12499934561E+03 0.  0.
          2    1    1    2  501    0 -0.37878642169E+02  0.13014669812E+02 -0.25792225231E+03  0.26101352723E+03  0.00000000000E+00 0. -1.
          1    1    1    2  502    0  0.56879317562E+01  0.29527342976E+02  0.24281401274E+03  0.24466888100E+03  0.00000000000E+00 0. -1.
         22    1    3    3    0    0 -0.18975324398E+02 -0.67096300320E+02  0.39048901754E+03  0.39666566434E+03  0.00000000000E+00 0. -1.
         22    1    3    3    0    0  0.51166034811E+02  0.24554287531E+02  0.14268553220E+03  0.15355792801E+03  0.00000000000E+00 0. -1.
</event>
<event>
 7    1  0.5127424E-006  0.9956308E+02  0.7818608E-02  0.1283612E+00
          2   -1    0    0  502    0  0.00000000000E+00  0.00000000000E+00  0.41986366493E+03  0.41986366493E+03  0.00000000000E+00 0. -1.
          1   -1    0    0  501    0 -0.00000000000E+00 -0.00000000000E+00 -0.32314045039E+03  0.32314045039E+03  0.00000000000E+00 0. -1.
         25    2    1    2    0    0  0.94047941339E+02  0.84946883758E+01 -0.15607631286E+03  0.22113656119E+03  0.12499755301E+03 0.  0.
          2    1    1    2  501    0 -0.63009626528E+02 -0.10309611900E+03 -0.99028564924E+02  0.15622317196E+03  0.00000000000E+00 0. -1.
          1    1    1    2  502    0 -0.31038314811E+02  0.94601430621E+02  0.35182809232E+03  0.36564438217E+03  0.00000000000E+00 0. -1.
         22    1    3    3    0    0  0.48558512520E+02  0.62016416918E+02 -0.47996056775E+02  0.92236579357E+02  0.00000000000E+00 0.  1.
         22    1    3    3    0    0  0.45489428819E+02 -0.53521728542E+02 -0.10808025609E+03  0.12889998183E+03  0.00000000000E+00 0.  1.
</event>
<event>
 7    1  0.5127424E-006  0.8422984E+02  0.7818608E-02  0.1477936E+00
          2   -1    0    0  502    0  0.00000000000E+00  0.00000000000E+00  0.55449265085E+03  0.55449265085E+03  0.00000000000E+00 0. -1.
          1   -1    0    0  501    0 -0.00000000000E+00 -0.00000000000E+00 -0.14934689199E+04  0.14934689199E+04  0.00000000000E+00 0. -1.
         25    2    1    2    0    0  0.90907942220E+01  0.10657785994E+03  0.79501587771E+02  0.18272357032E+03  0.12500367164E+03 0.  0.
          2    1    1    2  501    0 -0.11337614257E+02 -0.83250329254E+02 -0.14403084350E+04  0.14427569257E+04  0.00000000000E+00 0. -1.
          1    1    1    2  502    0  0.22468200353E+01 -0.23327530689E+02  0.42183057812E+03  0.42248107475E+03  0.00000000000E+00 0. -1.
         22    1    3    3    0    0  0.25938340552E+02 -0.15645728907E+02  0.45647520964E+02  0.54783962195E+02  0.00000000000E+00 0. -1.
         22    1    3    3    0    0 -0.16847546330E+02  0.12222358885E+03  0.33854066807E+02  0.12793960813E+03  0.00000000000E+00 0. -1.
</event>
<event>
 7    1  0.5127424E-006  0.4281643E+02  0.7818608E-02  0.1497905E+00
          2   -1    0    0  502    0  0.00000000000E+00  0.00000000000E+00  0.17683545739E+04  0.17683545739E+04  0.00000000000E+00 0. -1.
          1   -1    0    0  501    0 -0.00000000000E+00 -0.00000000000E+00 -0.79378135123E+03  0.79378135123E+03  0.00000000000E+00 0. -1.
         25    2    1    2    0    0  0.12919047598E+02 -0.38971200323E+00  0.38983674043E+02  0.13157450308E+03  0.12500027741E+03 0.  0.
          2    1    1    2  501    0  0.42084791062E+01  0.39877769733E+02 -0.74667267578E+03  0.74774864264E+03  0.00000000000E+00 0. -1.
          1    1    1    2  502    0 -0.17127526704E+02 -0.39488057730E+02  0.16822622244E+04  0.16828127794E+04  0.00000000000E+00 0. -1.
         22    1    3    3    0    0  0.18286125986E+02 -0.60822687574E+02  0.30004542833E+02  0.70242823960E+02  0.00000000000E+00 0.  1.
         22    1    3    3    0    0 -0.53670783885E+01  0.60432975571E+02  0.89791312100E+01  0.61331679123E+02  0.00000000000E+00 0.  1.
</event>
<event>
 7    1  0.5127424E-006  0.1132746E+03  0.7818608E-02  0.1281271E+00
          2   -1    0    0  502    0  0.00000000000E+00  0.00000000000E+00  0.23673132657E+04  0.23673132657E+04  0.00000000000E+00 0. -1.
          1   -1    0    0  501    0 -0.00000000000E+00 -0.00000000000E+00 -0.71682732264E+03  0.71682732264E+03  0.00000000000E+00 0. -1.
         25    2    1    2    0    0  0.52068793345E+02 -0.83759599330E+02 -0.39395344505E+03  0.42491220257E+03  0.12499693320E+03 0.  0.
          2    1    1    2  501    0 -0.13258159568E+03  0.49582551832E+02 -0.29023677293E+03  0.32291437459E+03  0.00000000000E+00 0. -1.
          1    1    1    2  502    0  0.80512802331E+02  0.34177047499E+02  0.23346761611E+04  0.23363140112E+04  0.00000000000E+00 0. -1.
         22    1    3    3    0    0 -0.33134208927E+02 -0.42647743657E+02 -0.76360915783E+02  0.93529114715E+02  0.00000000000E+00 0. -1.
         22    1    3    3    0    0  0.85203002271E+02 -0.41111855674E+02 -0.31759252927E+03  0.33138308786E+03  0.00000000000E+00 0. -1.
</event>
<event>
 7    1  0.5127424E-006  0.1242920E+03  0.7818608E-02  0.1259216E+00
          2   -1    0    0  502    0  0.00000000000E+00  0.00000000000E+00  0.98994312755E+03  0.98994312755E+03  0.00000000000E+00 0. -1.
          1   -1    0    0  501    0 -0.00000000000E+00 -0.00000000000E+00 -0.57155381643E+03  0.57155381643E+03  0.00000000000E+00 0. -1.
         25    2    1    2    0    0  0.90141716743E+02 -0.13430559702E+03  0.30464160145E+03  0.36687120489E+03  0.12499781261E+03 0.  0.
          2    1    1    2  501    0 -0.97905968472E+02  0.12141033687E+02 -0.53012161975E+03  0.53922343707E+03  0.00000000000E+00 0. -1.
          1    1    1    2  502    0  0.77642517291E+01  0.12216456334E+03  0.64386932941E+03  0.65540230202E+03  0.00000000000E+00 0. -1.
         22    1    3    3    0    0 -0.33396535425E+01 -0.89397941790E+02  0.20216222070E+03  0.22107172764E+03  0.00000000000E+00 0.  1.
         22    1    3    3    0    0  0.93481370286E+02 -0.44907655233E+02  0.10247938075E+03  0.14579947725E+03  0.00000000000E+00 0.  1.
</event>
<event>
 7    1  0.5127424E-006  0.4963303E+02  0.7818608E-02  0.1482982E+00
          2   -1    0    0  502    0  0.00000000000E+00  0.00000000000E+00  0.32705733487E+03  0.32705733487E+03  0.00000000000E+00 0. -1.
          1   -1    0    0  501    0 -0.00000000000E+00 -0.00000000000E+00 -0.98787957651E+03  0.98787957651E+03  0.00000000000E+00 0. -1.
         25    2    1    2    0    0 -0.20347546824E+02 -0.11363096678E+02 -0.29000603693E+03  0.31665793925E+03  0.12500242560E+03 0.  0.
          2    1    1    2  501    0  0.92635928002E+01 -0.37244680727E+02 -0.68202402208E+03  0.68310302816E+03  0.00000000000E+00 0. -1.
          1    1    1    2  502    0  0.11083954024E+02  0.48607777405E+02  0.31120781737E+03  0.31517594396E+03  0.00000000000E+00 0. -1.
         22    1    3    3    0    0  0.18190408317E+02 -0.60769802894E+02 -0.12544829640E+03  0.14057430408E+03  0.00000000000E+00 0.  1.
         22    1    3    3    0    0 -0.38537955141E+02  0.49406706216E+02 -0.16455774053E+03  0.17608363517E+03  0.00000000000E+00 0.  1.
</event>
<event>
 7    1  0.5127424E-006  0.2746843E+03  0.7818608E-02  0.1203194E+00
          2   -1    0    0  502    0  0.00000000000E+00  0.00000000000E+00  0.20680243297E+04  0.20680243297E+04  0.00000000000E+00 0. -1.
          1   -1    0    0  501    0 -0.00000000000E+00 -0.00000000000E+00 -0.27642957863E+03  0.27642957863E+03  0.00000000000E+00 0. -1.
         25    2    1    2    0    0 -0.49970342814E+02 -0.26790291372E+03  0.12239587796E+04  0.12601438165E+04  0.12497334747E+03 0.  0.
          2    1    1    2  501    0  0.78147946392E+02 -0.14787945550E+02 -0.22694030323E+03  0.24047387819E+03  0.00000000000E+00 0. -1.
          1    1    1    2  502    0 -0.28177603578E+02  0.28269085927E+03  0.79457627465E+03  0.84383621367E+03  0.00000000000E+00 0. -1.
         22    1    3    3    0    0  0.37395096255E+02 -0.13912968419E+03  0.60711010986E+03  0.62396966892E+03  0.00000000000E+00 0.  1.
         22    1    3    3    0    0 -0.87365439069E+02 -0.12877322953E+03  0.61684866977E+03  0.63617414753E+03  0.00000000000E+00 0.  1.
</event>
<event>
 7    1  0.5127424E-006  0.7564433E+02  0.7818608E-02  0.1465706E+00
          2   -1    0    0  502    0  0.00000000000E+00  0.00000000000E+00  0.12070116670E+04  0.12070116670E+04  0.00000000000E+00 0. -1.
          1   -1    0    0  501    0 -0.00000000000E+00 -0.00000000000E+00 -0.37105255046E+03  0.37105255046E+03  0.00000000000E+00 0. -1.
         25    2    1    2    0    0 -0.83234817674E+02 -0.43795442482E+02  0.13693950009E+03  0.20790158140E+03  0.12499826082E+03 0.  0.
          2    1    1    2  501    0  0.10185052011E+02  0.26594480643E+02 -0.33360309684E+03  0.33481640925E+03  0.00000000000E+00 0. -1.
          1    1    1    2  502    0  0.73049765663E+02  0.17200961839E+02  0.10326227133E+04  0.10353462269E+04  0.00000000000E+00 0. -1.
         22    1    3    3    0    0 -0.16239119851E+02  0.39308486298E+01  0.12341411256E+03  0.12453996854E+03  0.00000000000E+00 0. -1.
         22    1    3    3    0    0 -0.66995697823E+02 -0.47726291112E+02  0.13525387524E+02  0.83361612855E+02  0.00000000000E+00 0. -1.
</event>
<event>
 7    1  0.5127424E-006  0.7378557E+02  0.7818608E-02  0.1493318E+00
          2   -1    0    0  502    0  0.00000000000E+00  0.00000000000E+00  0.10162647335E+04  0.10162647335E+04  0.00000000000E+00 0. -1.
          1   -1    0    0  501    0 -0.00000000000E+00 -0.00000000000E+00 -0.33483332133E+03  0.33483332133E+03  0.00000000000E+00 0. -1.
         25    2    1    2    0    0 -0.11602785148E+02 -0.85603816964E+02  0.44554452952E+03  0.47074241939E+03  0.12500343804E+03 0.  0.
          2    1    1    2  501    0  0.28085615270E+02  0.68133641201E+02 -0.31775705029E+03  0.32619095305E+03  0.00000000000E+00 0. -1.
          1    1    1    2  502    0 -0.16482830122E+02  0.17470175763E+02  0.55364393293E+03  0.55416468238E+03  0.00000000000E+00 0. -1.
         22    1    3    3    0    0 -0.65565464601E+02 -0.68007388953E+02  0.30001878347E+03  0.31453951348E+03  0.00000000000E+00 0.  1.
         22    1    3    3    0    0  0.53962679453E+02 -0.17596428011E+02  0.14552574605E+03  0.15620290591E+03  0.00000000000E+00 0.  1.
</event>
<event>
 7    1  0.5127424E-006  0.6571248E+02  0.7818608E-02  0.1431542E+00
          2   -1    0    0  502    0  0.00000000000E+00  0.00000000000E+00  0.10122071341E+04  0.10122071341E+04  0.00000000000E+00 0. -1.
          1   -1    0    0  501    0 -0.00000000000E+00 -0.00000000000E+00 -0.14185213507E+03  0.14185213507E+03  0.00000000000E+00 0. -1.
         25    2    1    2    0    0 -0.95715494675E+02 -0.13089538427E+02  0.30859849888E+03  0.34668648391E+03  0.12500277067E+03 0.  0.
          2    1    1    2  501    0  0.33329712621E+02  0.25862256657E+02 -0.11765180745E+03  0.12498669473E+03  0.00000000000E+00 0. -1.
          1    1    1    2  502    0  0.62385782054E+02 -0.12772718230E+02  0.67940830760E+03  0.68238609055E+03  0.00000000000E+00 0. -1.
         22    1    3    3    0    0 -0.60520611912E+02  0.23788020479E+02  0.28158193439E+03  0.28899307978E+03  0.00000000000E+00 0.  1.
         22    1    3    3    0    0 -0.35194882763E+02 -0.36877558906E+02  0.27016564497E+02  0.57693404136E+02  0.00000000000E+00 0.  1.
</event>
<event>
 7    1  0.5127424E-006  0.1276513E+03  0.7818608E-02  0.1364537E+00
          2   -1    0    0  502    0  0.00000000000E+00  0.00000000000E+00  0.10064095234E+04  0.10064095234E+04  0.00000000000E+00 0. -1.
          1   -1    0    0  501    0 -0.00000000000E+00 -0.00000000000E+00 -0.50896157490E+03  0.50896157490E+03  0.00000000000E+00 0. -1.
         25    2    1    2    0    0  0.46462241592E+02 -0.12266736773E+03 -0.16419909569E+03  0.24452746749E+03  0.12500526521E+03 0.  0.
          2    1    1    2  501    0 -0.97858903408E+01  0.12742521501E+03 -0.29081828324E+03  0.31766054671E+03  0.00000000000E+00 0. -1.
          1    1    1    2  502    0 -0.36676351251E+02 -0.47578472782E+01  0.95246532746E+03  0.95318308413E+03  0.00000000000E+00 0. -1.
         22    1    3    3    0    0  0.37133513928E+02 -0.14879075326E+03 -0.14195975770E+03  0.20897406279E+03  0.00000000000E+00 0.  1.
         22    1    3    3    0    0  0.93287276643E+01  0.26123385530E+02 -0.22239337989E+02  0.35553404697E+02  0.00000000000E+00 0.  1.
</event>
<event>
 7    1  0.5127424E-006  0.1101501E+03  0.7818608E-02  0.1300824E+00
          2   -1    0    0  502    0  0.00000000000E+00  0.00000000000E+00  0.27701091713E+03  0.27701091713E+03  0.00000000000E+00 0. -1.
          1   -1    0    0  501    0 -0.00000000000E+00 -0.00000000000E+00 -0.69880169827E+03  0.69880169827E+03  0.00000000000E+00 0. -1.
         25    2    1    2    0    0 -0.11079668533E+03  0.12227580756E+03  0.11961350594E+03  0.23908017512E+03  0.12499864295E+03 0.  0.
          2    1    1    2  501    0  0.45795154295E+02 -0.59293820098E+02 -0.61532715452E+03  0.61987132564E+03  0.00000000000E+00 0. -1.
          1    1    1    2  502    0  0.65001531030E+02 -0.62981987466E+02  0.73922867446E+02  0.11686111463E+03  0.00000000000E+00 0. -1.
         22    1    3    3    0    0  0.51444479432E+01 -0.15567617281E+01 -0.19167408096E+02  0.19906742196E+02  0.00000000000E+00 0.  1.
         22    1    3    3    0    0 -0.11594113327E+03  0.12383256929E+03  0.13878091403E+03  0.21917343293E+03  0.00000000000E+00 0.  1.
</event>
<event>
 7    1  0.5127424E-006  0.5134054E+02  0.7818608E-02  0.1440923E+00
          2   -1    0    0  502    0  0.00000000000E+00  0.00000000000E+00  0.64984888264E+03  0.64984888264E+03  0.00000000000E+00 0. -1.
          1   -1    0    0  501    0 -0.00000000000E+00 -0.00000000000E+00 -0.35830088020E+03  0.35830088020E+03  0.00000000000E+00 0. -1.
         25    2    1    2    0    0  0.96100635357E+02 -0.12861028671E+00 -0.28744955625E+03  0.32785002410E+03  0.12499216879E+03 0.  0.
          2    1    1    2  501    0 -0.47606539552E+02 -0.16306003422E+02 -0.36822191516E+02  0.62354968878E+02  0.00000000000E+00 0. -1.
          1    1    1    2  502    0 -0.48494095805E+02  0.16434613709E+02  0.61581975021E+03  0.61794476986E+03  0.00000000000E+00 0. -1.
         22    1    3    3    0    0  0.22105008773E+01  0.25958744251E+02 -0.18897308689E+01  0.26121137034E+02  0.00000000000E+00 0. -1.
         22    1    3    3    0    0  0.93890134480E+02 -0.26087354538E+02 -0.28555982538E+03  0.30172888707E+03  0.00000000000E+00 0. -1.
</event>
<event>
 7    1  0.5127424E-006  0.8939550E+02  0.7818608E-02  0.1414634E+00
          2   -1    0    0  502    0  0.00000000000E+00  0.00000000000E+00  0.22784785267E+04  0.22784785267E+04  0.00000000000E+00 0. -1.
          1   -1    0    0  501    0 -0.00000000000E+00 -0.00000000000E+00 -0.61985859287E+02  0.61985859287E+02  0.00000000000E+00 0. -1.
         25    2    1    2    0    0 -0.82877551217E+02  0.43732030600E+02  0.52124417082E+03  0.54415215076E+03  0.12499959426E+03 0.  0.
          2    1    1    2  501    0 -0.62578494808E+01 -0.34737443540E+02 -0.43070679682E+02  0.55686031570E+02  0.00000000000E+00 0. -1.
          1    1    1    2  502    0  0.89135400697E+02 -0.89945870596E+01  0.17383191762E+04  0.17406262036E+04  0.00000000000E+00 0. -1.
         22    1    3    3    0    0 -0.86937948238E+02  0.79899153504E+02  0.36070805173E+03  0.37954232987E+03  0.00000000000E+00 0.  1.
         22    1    3    3    0    0  0.40603970209E+01 -0.36167122904E+02  0.16053611909E+03  0.16460982090E+03  0.00000000000E+00 0.  1.
</event>
<event>
 7    1  0.5127424E-006  0.1000046E+03  0.7818608E-02  0.1334990E+00
          2   -1    0    0  502    0  0.00000000000E+00  0.00000000000E+00  0.30995515102E+03  0.30995515102E+03  0.00000000000E+00 0. -1.
          1   -1    0    0  501    0 -0.00000000000E+00 -0.00000000000E+00 -0.21145367708E+04  0.21145367708E+04  0.00000000000E+00 0. -1.
         25    2    1    2    0    0  0.81613210697E+02 -0.67159068673E+02 -0.82744869305E+02  0.18341844563E+03  0.12499822452E+03 0.  0.
          2    1    1    2  501    0 -0.28277745213E+02  0.96242818200E+02 -0.19766119555E+04  0.19791556618E+04  0.00000000000E+00 0. -1.
          1    1    1    2  502    0 -0.53335465484E+02 -0.29083749526E+02  0.25477520507E+03  0.26191781437E+03  0.00000000000E+00 0. -1.
         22    1    3    3    0    0 -0.30376772512E+02 -0.36271064879E+02 -0.28214301432E+02  0.55085254479E+02  0.00000000000E+00 0. -1.
         22    1    3    3    0    0  0.11198998321E+03 -0.30888003794E+02 -0.54530567873E+02  0.12833319115E+03  0.00000000000E+00 0. -1.
</event>
<event>
 7    1  0.5127424E-006  0.1345280E+03  0.7818608E-02  0.1327266E+00
          2   -1    0    0  502    0  0.00000000000E+00  0.00000000000E+00  0.28082345371E+03  0.28082345371E+03  0.00000000000E+00 0. -1.
          1   -1    0    0  501    0 -0.00000000000E+00 -0.00000000000E+00 -0.48379369173E+03  0.48379369173E+03  0.00000000000E+00 0. -1.
         25    2    1    2    0    0 -0.36546092665E+02  0.97063033315E+02 -0.92301777970E+02  0.18682031606E+03  0.12500145179E+03 0.  0.
          2    1    1    2  501    0  0.22688795815E+02 -0.14336296377E+03 -0.32613543849E+03  0.35697625282E+03  0.00000000000E+00 0. -1.
          1    1    1    2  502    0  0.13857296849E+02  0.46299930452E+02  0.21546697844E+03  0.22082057656E+03  0.00000000000E+00 0. -1.
         22    1    3    3    0    0 -0.72870778661E+02  0.97207372269E+02 -0.50840371868E+02  0.13169725516E+03  0.00000000000E+00 0. -1.
         22    1    3    3    0    0  0.36324685997E+02 -0.14433895407E+00 -0.41461406103E+02  0.55123060895E+02  0.00000000000E+00 0. -1.
</event>
<event>
 7    1  0.5127424E-006  0.7969608E+02  0.7818608E-02  0.1458337E+00
          2   -1    0    0  502    0  0.00000000000E+00  0.00000000000E+00  0.10613475690E+04  0.10613475690E+04  0.00000000000E+00 0. -1.
          1   -1    0    0  501    0 -0.00000000000E+00 -0.00000000000E+00 -0.13813354356E+03  0.13813354356E+03  0.00000000000E+00 0. -1.
         25    2    1    2    0    0  0.45456598261E+02 -0.67662605124E+02 -0.39089353986E+02  0.15429771881E+03  0.12504110515E+03 0.  0.
          2    1    1    2  501    0  0.19243232168E+02  0.21039211962E+02 -0.34747559666E+02  0.44948229409E+02  0.00000000000E+00 0. -1.
          1    1    1    2  502    0 -0.64699830429E+02  0.46623393162E+02  0.99705093908E+03  0.10002351643E+04  0.00000000000E+00 0. -1.
         22    1    3    3    0    0  0.80372423458E+02 -0.57716374447E+02  0.26423346525E+01  0.98984282915E+02  0.00000000000E+00 0. -1.
         22    1    3    3    0    0 -0.34915825197E+02 -0.99462306767E+01 -0.41731688638E+02  0.55313435895E+02  0.00000000000E+00 0. -1.
</event>
<event>
 7    1  0.5127424E-006  0.1693068E+03  0.7818608E-02  0.1298334E+00
          2   -1    0    0  502    0  0.00000000000E+00  0.00000000000E+00  0.16121255405E+03  0.16121255405E+03  0.00000000000E+00 0. -1.
          1   -1    0    0  501    0 -0.00000000000E+00 -0.00000000000E+00 -0.14338356732E+04  0.14338356732E+04  0.00000000000E+00 0. -1.
         25    2    1    2    0    0  0.85676922166E+02 -0.10177498228E+03 -0.33919881215E+03  0.38520016888E+03  0.12499861573E+03 0.  0.
          2    1    1    2  501    0  0.20719766813E+01 -0.49831763825E+02 -0.10152745134E+04  0.10164988122E+04  0.00000000000E+00 0. -1.
          1    1    1    2  502    0 -0.87748898847E+02  0.15160674611E+03  0.81850206337E+02  0.19334924616E+03  0.00000000000E+00 0. -1.
         22    1    3    3    0    0  0.49576361822E+01  0.24706662251E+02 -0.97598956158E+02  0.10079957123E+03  0.00000000000E+00 0.  1.
         22    1    3    3    0    0  0.80719285983E+02 -0.12648164454E+03 -0.24159985599E+03  0.28440059766E+03  0.00000000000E+00 0.  1.
</event>
<event>
 7    1  0.5127424E-006  0.1254040E+03  0.7818608E-02  0.1244004E+00
          2   -1    0    0  502    0  0.00000000000E+00  0.00000000000E+00  0.18369118153E+04  0.18369118153E+04  0.00000000000E+00 0. -1.
          1   -1    0    0  501    0 -0.00000000000E+00 -0.00000000000E+00 -0.22158024846E+04  0.22158024846E+04  0.00000000000E+00 0. -1.
         25    2    1    2    0    0  0.15342910753E+02 -0.11349445841E+03 -0.20495886513E+03  0.26598729068E+03  0.12499882162E+03 0.  0.
          2    1    1    2  501    0  0.95412877597E+02  0.87424712709E+02 -0.19764195048E+04  0.19806515990E+04  0.00000000000E+00 0. -1.
          1    1    1    2  502    0 -0.11075578835E+03  0.26069745702E+02  0.18024877006E+04  0.18060754102E+04  0.00000000000E+00 0. -1.
         22    1    3    3    0    0  0.49860386591E+02 -0.89253658454E+02 -0.68261454241E+02  0.12293046748E+03  0.00000000000E+00 0. -1.
         22    1    3    3    0    0 -0.34517475838E+02 -0.24240799957E+02 -0.13669741089E+03  0.14305682320E+03  0.00000000000E+00 0. -1.
</event>
<event>
 7    1  0.5127424E-006  0.1101709E+03  0.7818608E-02  0.1354528E+00
          2   -1    0    0  502    0  0.00000000000E+00  0.00000000000E+00  0.14803576785E+04  0.14803576785E+04  0.00000000000E+00 0. -1.
          1   -1    0    0  501    0 -0.00000000000E+00 -0.00000000000E+00 -0.30422175379E+03  0.30422175379E+03  0.00000000000E+00 0. -1.
         25    2    1    2    0    0 -0.12286446218E+03 -0.15680458357E+02  0.44125589082E+03  0.47505149874E+03  0.12500244967E+03 0.  0.
          2    1    1    2  501    0  0.17306217304E+02  0.43283059335E+02 -0.28249698232E+03  0.28631708542E+03  0.00000000000E+00 0. -1.
          1    1    1    2  502    0  0.10555824488E+03 -0.27602600978E+02  0.10173770162E+04  0.10232108481E+04  0.00000000000E+00 0. -1.
         22    1    3    3    0    0 -0.12601606533E+03  0.29220904738E+02  0.35349233694E+03  0.37641830757E+03  0.00000000000E+00 0. -1.
         22    1    3    3    0    0  0.31516031521E+01 -0.44901363094E+02  0.87763553884E+02  0.98633191170E+02  0.00000000000E+00 0. -1.
</event>
<event>
 7    1  0.5127424E-006  0.6889493E+02  0.7818608E-02  0.1444573E+00
          2   -1    0    0  502    0  0.00000000000E+00  0.00000000000E+00  0.16534540386E+04  0.16534540386E+04  0.00000000000E+00 0. -1.
          1   -1    0    0  501    0 -0.00000000000E+00 -0.00000000000E+00 -0.75659811803E+02  0.75659811803E+02  0.00000000000E+00 0. -1.
         25    2    1    2    0    0 -0.59313897315E+02 -0.40214783454E+02  0.73621072828E+02  0.16180467180E+03  0.12500128891E+03 0.  0.
          2    1    1    2  501    0  0.70155551522E+02  0.53675684994E+01  0.81387819246E+01  0.70829739321E+02  0.00000000000E+00 0. -1.
          1    1    1    2  502    0 -0.10841654207E+02  0.34847214955E+02  0.14960343720E+04  0.14964794392E+04  0.00000000000E+00 0. -1.
         22    1    3    3    0    0 -0.33129278822E+02 -0.41385262780E+02 -0.25821070903E+02  0.58966234349E+02  0.00000000000E+00 0. -1.
         22    1    3    3    0    0 -0.26184618494E+02  0.11704793260E+01  0.99442143731E+02  0.10283843745E+03  0.00000000000E+00 0. -1.
</event>
<event>
 7    1  0.5127424E-006  0.5714751E+02  0.7818608E-02  0.1414274E+00
          2   -1    0    0  502    0  0.00000000000E+00  0.00000000000E+00  0.20968442232E+03  0.20968442232E+03  0.00000000000E+00 0. -1.
          1   -1    0    0  501    0 -0.00000000000E+00 -0.00000000000E+00 -0.52562119762E+03  0.52562119762E+03  0.00000000000E+00 0. -1.
         25    2    1    2    0    0 -0.51728060579E+02  0.28088964755E+02 -0.23254867521E+03  0.27049336573E+03  0.12499196923E+03 0.  0.
          2    1    1    2  501    0  0.54387426116E+02  0.27215669410E+02 -0.26658336527E+03  0.27343257930E+03  0.00000000000E+00 0. -1.
          1    1    1    2  502    0 -0.26593655365E+01 -0.55304634165E+02  0.18319526518E+03  0.19137967492E+03  0.00000000000E+00 0. -1.
         22    1    3    3    0    0 -0.54586766735E+02 -0.25221099879E+02 -0.19793563758E+03  0.20686791826E+03  0.00000000000E+00 0.  1.
         22    1    3    3    0    0  0.28587061560E+01  0.53310064634E+02 -0.34613037636E+02  0.63625447476E+02  0.00000000000E+00 0.  1.
</event>
<event>
 7    1  0.5127424E-006  0.2189086E+02  0.7818608E-02  0.1715485E+00
          2   -1    0    0  502    0  0.00000000000E+00  0.00000000000E+00  0.11056505641E+04  0.11056505641E+04  0.00000000000E+00 0. -1.
          1   -1    0    0  501    0 -0.00000000000E+00 -0.00000000000E+00 -0.48491452358E+02  0.48491452358E+02  0.00000000000E+00 0. -1.
         25    2    1    2    0    0  0.21942098432E+01 -0.28799631362E+02  0.79268072457E+02  0.15080624827E+03  0.12499945553E+03 0.  0.
          2    1    1    2  501    0 -0.17066027573E+02  0.12725782135E+02 -0.36084418501E+01  0.21592028174E+02  0.00000000000E+00 0. -1.
          1    1    1    2  502    0  0.14871817729E+02  0.16073849227E+02  0.98149948118E+03  0.98174374006E+03  0.00000000000E+00 0. -1.
         22    1    3    3    0    0  0.15168488788E+02  0.12823988565E+02  0.10040715355E+03  0.10235298832E+03  0.00000000000E+00 0. -1.
         22    1    3    3    0    0 -0.12974278945E+02 -0.41623619927E+02 -0.21139081092E+02  0.48453259946E+02  0.00000000000E+00 0. -1.
</event>
<event>
 7    1  0.5127424E-006  0.1372084E+03  0.7818608E-02  0.1288023E+00
          2   -1    0    0  502    0  0.00000000000E+00  0.00000000000E+00  0.74486787457E+03  0.74486787457E+03  0.00000000000E+00 0. -1.
          1   -1    0    0  501    0 -0.00000000000E+00 -0.00000000000E+00 -0.45059146520E+03  0.45059146520E+03  0.00000000000E+00 0. -1.
         25    2    1    2    0    0 -0.12937773075E+03  0.79076428594E+02  0.12863831721E+03  0.23487329699E+03  0.12500388079E+03 0.  0.
          2    1    1    2  501    0 -0.72132876291E+01 -0.67363298283E+02 -0.38613698245E+03  0.39203522123E+03  0.00000000000E+00 0. -1.
          1    1    1    2  502    0  0.13659101838E+03 -0.11713130311E+02  0.55177507461E+03  0.56855082154E+03  0.00000000000E+00 0. -1.
         22    1    3    3    0    0 -0.11791335040E+03  0.29038046584E+02  0.32215634956E+02  0.12563683173E+03  0.00000000000E+00 0.  1.
         22    1    3    3    0    0 -0.11464380353E+02  0.50038382010E+02  0.96422682253E+02  0.10923646527E+03  0.00000000000E+00 0.  1.
</event>
<event>
 7    1  0.5127424E-006  0.1416969E+03  0.7818608E-02  0.1391481E+00
          2   -1    0    0  502    0  0.00000000000E+00  0.00000000000E+00  0.20490257385E+03  0.20490257385E+03  0.00000000000E+00 0. -1.
          1   -1    0    0  501    0 -0.00000000000E+00 -0.00000000000E+00 -0.33901217173E+03  0.33901217173E+03  0.00000000000E+00 0. -1.
         25    2    1    2    0    0 -0.11455224979E+03 -0.32405422329E+02 -0.15416846733E+03  0.23144116261E+03  0.12499906440E+03 0.  0.
          2    1    1    2  501    0 -0.26562898602E+02 -0.29575475425E+01 -0.11251701421E+03  0.11564779789E+03  0.00000000000E+00 0. -1.
          1    1    1    2  502    0  0.14111514840E+03  0.35362969872E+02  0.13257588366E+03  0.19682578508E+03  0.00000000000E+00 0. -1.
         22    1    3    3    0    0 -0.30118778545E+02 -0.30769866441E+02  0.12297910383E+02  0.44779058739E+02  0.00000000000E+00 0. -1.
         22    1    3    3    0    0 -0.84433471249E+02 -0.16355558884E+01 -0.16646637772E+03  0.18666210387E+03  0.00000000000E+00 0. -1.
</event>
<event>
 7    1  0.5127424E-006  0.1245089E+03  0.7818608E-02  0.1271511E+00
          2   -1    0    0  502    0  0.00000000000E+00  0.00000000000E+00  0.13089524742E+04  0.13089524742E+04  0.00000000000E+00 0. -1.
          1   -1    0    0  501    0 -0.00000000000E+00 -0.00000000000E+00 -0.89880861197E+03  0.89880861197E+03  0.00000000000E+00 0. -1.
         25    2    1    2    0    0  0.18854911367E+03 -0.90320606610E+00  0.52927272976E+03  0.57559219772E+03  0.12500068620E+03 0.  0.
          2    1    1    2  501    0 -0.11465380377E+03  0.47511709932E+02 -0.86870139094E+03  0.87752205894E+03  0.00000000000E+00 0. -1.
          1    1    1    2  502    0 -0.73895309907E+02 -0.46608503866E+02  0.74957252342E+03  0.75464682953E+03  0.00000000000E+00 0. -1.
         22    1    3    3    0    0  0.16594446567E+03  0.46716167628E+02  0.42817751400E+03  0.46157984088E+03  0.00000000000E+00 0. -1.
         22    1    3    3    0    0  0.22604648004E+02 -0.47619373694E+02  0.10109521576E+03  0.11401235684E+03  0.00000000000E+00 0. -1.
</event>
<event>
 7    1  0.5127424E-006  0.9122929E+02  0.7818608E-02  0.1304476E+00
          2   -1    0    0  502    0  0.00000000000E+00  0.00000000000E+00  0.14680764374E+03  0.14680764374E+03  0.00000000000E+00 0. -1.
          1   -1    0    0  501    0 -0.00000000000E+00 -0.00000000000E+00 -0.81145594570E+03  0.81145594570E+03  0.00000000000E+00 0. -1.
         25    2    1    2    0    0 -0.58029837336E+01 -0.72402422930E+01 -0.40577106305E+02  0.13174924902E+03  0.12500106933E+03 0.  0.
          2    1    1    2  501    0 -0.54844634252E+02  0.75391909649E+02 -0.70100425796E+03  0.70717667073E+03  0.00000000000E+00 0. -1.
          1    1    1    2  502    0  0.60647617985E+02 -0.68151667356E+02  0.76933062304E+02  0.11933766969E+03  0.00000000000E+00 0. -1.
         22    1    3    3    0    0 -0.71747202865E+01  0.40964359714E+02  0.26368657096E+02  0.49242882277E+02  0.00000000000E+00 0. -1.
         22    1    3    3    0    0  0.13717365529E+01 -0.48204602007E+02 -0.66945763401E+02  0.82506366743E+02  0.00000000000E+00 0. -1.
</event>
<event>
 7    1  0.5127424E-006  0.1279381E+03  0.7818608E-02  0.1380216E+00
          2   -1    0    0  502    0  0.00000000000E+00  0.00000000000E+00  0.19756897113E+04  0.19756897113E+04  0.00000000000E+00 0. -1.
          1   -1    0    0  501    0 -0.00000000000E+00 -0.00000000000E+00 -0.10276040001E+04  0.10276040001E+04  0.00000000000E+00 0. -1.
         25    2    1    2    0    0  0.52435132667E+01  0.96681628629E+02  0.50625833733E+02  0.16602052235E+03  0.12500002822E+03 0.  0.
          2    1    1    2  501    0  0.47479623469E+01  0.32074607138E+02 -0.96740189653E+03  0.96794511878E+03  0.00000000000E+00 0. -1.
          1    1    1    2  502    0 -0.99914756136E+01 -0.12875623577E+03  0.18648617741E+04  0.18693280702E+04  0.00000000000E+00 0. -1.
         22    1    3    3    0    0  0.36833881157E+02  0.83313325318E+02 -0.14666686008E+02  0.92265685144E+02  0.00000000000E+00 0.  1.
         22    1    3    3    0    0 -0.31590367891E+02  0.13368303312E+02  0.65292519741E+02  0.73754837205E+02  0.00000000000E+00 0.  1.
</event>
<event>
 7    1  0.5127424E-006  0.6030770E+02  0.7818608E-02  0.1461153E+00
          2   -1    0    0  502    0  0.00000000000E+00  0.00000000000E+00  0.39373770202E+03  0.39373770202E+03  0.00000000000E+00 0. -1.
          1   -1    0    0  501    0 -0.00000000000E+00 -0.00000000000E+00 -0.93852119798E+03  0.93852119798E+03  0.00000000000E+00 0. -1.
         25    2    1    2    0    0  0.38047800991E+02  0.11582271897E+02  0.75895496513E+02  0.15154309073E+03  0.12499359093E+03 0.  0.
          2    1    1    2  501    0 -0.57162886890E+02  0.19998809951E+02 -0.89845693696E+03  0.90049564997E+03  0.00000000000E+00 0. -1.
          1    1    1    2  502    0  0.19115085899E+02 -0.31581081848E+02  0.27777794449E+03  0.28022015931E+03  0.00000000000E+00 0. -1.
         22    1    3    3    0    0 -0.34502064223E+02 -0.30538255336E+02  0.36908716522E+02  0.59035843603E+02  0.00000000000E+00 0. -1.
         22    1    3    3    0    0  0.72549865214E+02  0.42120527233E+02  0.38986779991E+02  0.92507247127E+02  0.00000000000E+00 0. -1.
</event>
<event>
 7    1  0.5127424E-006  0.6455135E+02  0.7818608E-02  0.1392033E+00
          2   -1    0    0  502    0  0.00000000000E+00  0.00000000000E+00  0.11552527562E+04  0.11552527562E+04  0.00000000000E+00 0. -1.
          1   -1    0    0  501    0 -0.00000000000E+00 -0.00000000000E+00 -0.13910376955E+03  0.13910376955E+03  0.00000000000E+00 0. -1.
         25    2    1    2    0    0  0.18409140971E+02 -0.10623521746E+02 -0.78061186344E+00  0.12679933768E+03  0.12500282795E+03 0.  0.
          2    1    1    2  501    0 -0.59426483639E+02  0.52208440129E+02 -0.53525140267E+02  0.95510045644E+02  0.00000000000E+00 0. -1.
          1    1    1    2  502    0  0.41017342668E+02 -0.41584918382E+02  0.10704547388E+04  0.10720471424E+04  0.00000000000E+00 0. -1.
         22    1    3    3    0    0 -0.38168906258E+02 -0.17732612971E+02 -0.39623127832E+02  0.57804007014E+02  0.00000000000E+00 0.  1.
         22    1    3    3    0    0  0.56578047228E+02  0.71090912247E+01  0.38842515969E+02  0.68995330661E+02  0.00000000000E+00 0.  1.
</event>
<event>
 7    1  0.5127424E-006  0.1874794E+03  0.7818608E-02  0.1317917E+00
          2   -1    0    0  502    0  0.00000000000E+00  0.00000000000E+00  0.23921350356E+03  0.23921350356E+03  0.00000000000E+00 0. -1.
          1   -1    0    0  501    0 -0.00000000000E+00 -0.00000000000E+00 -0.74739493152E+03  0.74739493152E+03  0.00000000000E+00 0. -1.
         25    2    1    2    0    0 -0.12026924405E+03 -0.17688339261E+03 -0.98844308239E+01  0.24794021094E+03  0.12499688230E+03 0.  0.
          2    1    1    2  501    0  0.84897297504E+02  0.16387703091E+03 -0.60129991368E+03  0.62898713705E+03  0.00000000000E+00 0. -1.
          1    1    1    2  502    0  0.35371946546E+02  0.13006361697E+02  0.10300291655E+03  0.10968108709E+03  0.00000000000E+00 0. -1.
         22    1    3    3    0    0 -0.17822038823E+02 -0.13012092729E+03  0.16236134454E+02  0.13233553131E+03  0.00000000000E+00 0.  1.
         22    1    3    3    0    0 -0.10244720523E+03 -0.46762465318E+02 -0.26120565278E+02  0.11560467963E+03  0.00000000000E+00 0.  1.
</event>
<event>
 7    1  0.5127424E-006  0.8628817E+02  0.7818608E-02  0.1336618E+00
          2   -1    0    0  502    0  0.00000000000E+00  0.00000000000E+00  0.25180185284E+03  0.25180185284E+03  0.00000000000E+00 0. -1.
          1   -1    0    0  501    0 -0.00000000000E+00 -0.00000000000E+00 -0.19915818073E+03  0.19915818073E+03  0.00000000000E+00 0. -1.
         25    2    1    2    0    0 -0.81571229678E+02  0.11315918069E+03 -0.55603857650E+02  0.19538754147E+03  0.12500254673E+03 0.  0.
          2    1    1    2  501    0  0.50341977750E+02 -0.51166730079E+02 -0.46804772262E+02  0.85691514733E+02  0.00000000000E+00 0. -1.
          1    1    1    2  502    0  0.31229251928E+02 -0.61992450613E+02  0.15505230203E+03  0.16988097737E+03  0.00000000000E+00 0. -1.
         22    1    3    3    0    0 -0.43068516376E+02  0.29979392269E+00  0.26536788637E+02  0.50588418936E+02  0.00000000000E+00 0. -1.
         22    1    3    3    0    0 -0.38502713302E+02  0.11285938677E+03 -0.82140646286E+02  0.14479912253E+03  0.00000000000E+00 0. -1.
</event>
<event>
 7    1  0.5127424E-006  0.8200141E+02  0.7818608E-02  0.1400358E+00
          2   -1    0    0  502    0  0.00000000000E+00  0.00000000000E+00  0.21443156264E+04  0.21443156264E+04  0.00000000000E+00 0. -1.
          1   -1    0    0  501    0 -0.00000000000E+00 -0.00000000000E+00 -0.10279075414E+03  0.10279075414E+03  0.00000000000E+00 0. -1.
         25    2    1    2    0    0 -0.43692207949E+00 -0.42773171656E+02  0.19597817493E+02  0.13356323021E+03  0.12500130759E+03 0.  0.
          2    1    1    2  501    0 -0.22824978714E+02 -0.36478750649E+02 -0.34687225248E+02  0.55270991466E+02  0.00000000000E+00 0. -1.
          1    1    1    2  502    0  0.23261900794E+02  0.79251922305E+02  0.20566142800E+04  0.20582721589E+04  0.00000000000E+00 0. -1.
         22    1    3    3    0    0 -0.23829953108E+02  0.38908627391E+02 -0.27462883531E+01  0.45708752447E+02  0.00000000000E+00 0. -1.
         22    1    3    3    0    0  0.23393031029E+02 -0.81681799046E+02  0.22344105846E+02  0.87854477759E+02  0.00000000000E+00 0. -1.
</event>
<event>
 7    1  0.5127424E-006  0.2175027E+03  0.7818608E-02  0.1292006E+00
          2   -1    0    0  502    0  0.00000000000E+00  0.00000000000E+00  0.30837809983E+04  0.30837809983E+04  0.00000000000E+00 0. -1.
          1   -1    0    0  501    0 -0.00000000000E+00 -0.00000000000E+00 -0.19098284590E+03  0.19098284590E+03  0.00000000000E+00 0. -1.
         25    2    1    2    0    0 -0.19276154297E+03  0.22177630010E+02  0.28578919655E+02  0.23257604135E+03  0.12500400249E+03 0.  0.
          2    1    1    2  501    0 -0.25534541844E+02 -0.32299050266E+02 -0.79944911174E+02  0.89924581166E+02  0.00000000000E+00 0. -1.
          1    1    1    2  502    0  0.21829608481E+03  0.10121420256E+02  0.29441641439E+04  0.29522632217E+04  0.00000000000E+00 0. -1.
         22    1    3    3    0    0 -0.27644318123E+02  0.13058794579E+02  0.57095950111E+02  0.64766410735E+02  0.00000000000E+00 0. -1.
         22    1    3    3    0    0 -0.16511722485E+03  0.91188354304E+01 -0.28517030456E+02  0.16780963061E+03  0.00000000000E+00 0. -1.
</event>
<event>
 7    1  0.5127424E-006  0.4739352E+02  0.7818608E-02  0.1507301E+00
          2   -1    0    0  502    0  0.00000000000E+00  0.00000000000E+00  0.22264504343E+04  0.22264504343E+04  0.00000000000E+00 0. -1.
          1   -1    0    0  501    0 -0.00000000000E+00 -0.00000000000E+00 -0.66307884076E+02  0.66307884076E+02  0.00000000000E+00 0. -1.
         25    2    1    2    0    0 -0.21957972886E+02 -0.18422049785E+02  0.39803936735E+03  0.41820693680E+03  0.12506070340E+03 0.  0.
          2    1    1    2  501    0 -0.26173269913E+02  0.21653663119E+02 -0.50742893771E+02  0.61063593512E+02  0.00000000000E+00 0. -1.
          1    1    1    2  502    0  0.48131242799E+02 -0.32316133339E+01  0.18128460766E+04  0.18134877880E+04  0.00000000000E+00 0. -1.
         22    1    3    3    0    0  0.10195515940E+02  0.49145801429E+01 -0.55924941884E+01  0.12624485515E+02  0.00000000000E+00 0. -1.
         22    1    3    3    0    0 -0.32153488827E+02 -0.23336629928E+02  0.40363186154E+03  0.40558245129E+03  0.00000000000E+00 0. -1.
</event>
<event>
 7    1  0.5127424E-006  0.8333406E+02  0.7818608E-02  0.1331136E+00
          2   -1    0    0  502    0  0.00000000000E+00  0.00000000000E+00  0.12036692558E+04  0.12036692558E+04  0.00000000000E+00 0. -1.
          1   -1    0    0  501    0 -0.00000000000E+00 -0.00000000000E+00 -0.73003289513E+02  0.73003289513E+02  0.00000000000E+00 0. -1.
         25    2    1    2    0    0  0.66163043312E+02  0.50142615227E+02  0.71042584651E+03  0.72609921019E+03  0.12499339776E+03 0.  0.
          2    1    1    2  501    0 -0.75358634934E+02  0.35575869573E+02 -0.32686379360E+02  0.89515170505E+02  0.00000000000E+00 0. -1.
          1    1    1    2  502    0  0.91955916220E+01 -0.85718484800E+02  0.45292649911E+03  0.46105816459E+03  0.00000000000E+00 0. -1.
         22    1    3    3    0    0 -0.11052921543E+02  0.60284803773E+02  0.18388626517E+03  0.19383132656E+03  0.00000000000E+00 0. -1.
         22    1    3    3    0    0  0.77215964854E+02 -0.10142188545E+02  0.52653958135E+03  0.53226788363E+03  0.00000000000E+00 0. -1.
</event>
<event>
 7    1  0.5127424E-006  0.3652707E+02  0.7818608E-02  0.1628464E+00
          2   -1    0    0  502    0  0.00000000000E+00  0.00000000000E+00  0.28690504557E+03  0.28690504557E+03  0.00000000000E+00 0. -1.
          1   -1    0    0  501    0 -0.00000000000E+00 -0.00000000000E+00 -0.66481140589E+03  0.66481140589E+03  0.00000000000E+00 0. -1.
         25    2    1    2    0    0  0.33152998860E+02  0.23355441707E+00  0.75784558429E+01  0.12954588824E+03  0.12500211313E+03 0.  0.
          2    1    1    2  501    0 -0.30242464619E+02 -0.20613752151E+02 -0.60278613178E+03  0.60389622794E+03  0.00000000000E+00 0. -1.
          1    1    1    2  502    0 -0.29105342409E+01  0.20380197734E+02  0.21730131563E+03  0.21827433528E+03  0.00000000000E+00 0. -1.
         22    1    3    3    0    0  0.44096857603E+02  0.14554982822E+02 -0.50576854068E+02  0.68661477867E+02  0.00000000000E+00 0. -1.
         22    1    3    3    0    0 -0.10943858743E+02 -0.14321428405E+02  0.58155309910E+02  0.60884410374E+02  0.00000000000E+00 0. -1.
</event>
<event>
 7    1  0.5127424E-006  0.4036448E+02  0.7818608E-02  0.1546148E+00
          2   -1    0    0  502    0  0.00000000000E+00  0.00000000000E+00  0.36731803097E+03  0.36731803097E+03  0.00000000000E+00 0. -1.
          1   -1    0    0  501    0 -0.00000000000E+00 -0.00000000000E+00 -0.13055163371E+04  0.13055163371E+04  0.00000000000E+00 0. -1.
         25    2    1    2    0    0  0.87077678182E+01  0.32897228065E+02 -0.70999772280E+02  0.14772987223E+03  0.12500037860E+03 0.  0.
          2    1    1    2  501    0  0.27328681515E+02 -0.14274376082E+02 -0.11947013581E+04  0.11950991380E+04  0.00000000000E+00 0. -1.
          1    1    1    2  502    0 -0.36036449333E+02 -0.18622851983E+02  0.32750282425E+03  0.33000535782E+03  0.00000000000E+00 0. -1.
         22    1    3    3    0    0 -0.49629711886E+02 -0.17068543182E+02 -0.24282811179E+02  0.57828179869E+02  0.00000000000E+00 0. -1.
         22    1    3    3    0    0  0.58337479704E+02  0.49965771246E+02 -0.46716961100E+02  0.89901692358E+02  0.00000000000E+00 0. -1.
</event>
<event>
 7    1  0.5127424E-006  0.1434168E+03  0.7818608E-02  0.1301543E+00
          2   -1    0    0  502    0  0.00000000000E+00  0.00000000000E+00  0.88774458275E+02  0.88774458275E+02  0.00000000000E+00 0. -1.
          1   -1    0    0  501    0 -0.00000000000E+00 -0.00000000000E+00 -0.94031422439E+03  0.94031422439E+03  0.00000000000E+00 0. -1.
         25    2    1    2    0    0  0.11004377146E+03 -0.12719060992E+02 -0.41003975029E+03  0.44275242994E+03  0.12500284498E+03 0.  0.
          2    1    1    2  501    0  0.37307265023E+02  0.43308420401E+02 -0.43176140933E+03  0.43552883474E+03  0.00000000000E+00 0. -1.
          1    1    1    2  502    0 -0.14735103648E+03 -0.30589359409E+02 -0.97386064899E+01  0.15080741798E+03  0.00000000000E+00 0. -1.
         22    1    3    3    0    0  0.10311251406E+03 -0.59673323937E+02 -0.30705063747E+03  0.32935268348E+03  0.00000000000E+00 0.  1.
         22    1    3    3    0    0  0.69312573982E+01  0.46954262945E+02 -0.10298911281E+03  0.11339974646E+03  0.00000000000E+00 0.  1.
</event>
<event>
 7    1  0.5127424E-006  0.9306445E+02  0.7818608E-02  0.1306148E+00
          2   -1    0    0  502    0  0.00000000000E+00  0.00000000000E+00  0.13784800677E+04  0.13784800677E+04  0.00000000000E+00 0. -1.
          1   -1    0    0  501    0 -0.00000000000E+00 -0.00000000000E+00 -0.37137980656E+03  0.37137980656E+03  0.00000000000E+00 0. -1.
         25    2    1    2    0    0 -0.54374409722E+00  0.42306692055E+02 -0.51835820858E+02  0.14178279711E+03  0.12500102952E+03 0.  0.
          2    1    1    2  501    0  0.78968239486E+02 -0.73633761996E+02 -0.26255563542E+03  0.28388972409E+03  0.00000000000E+00 0. -1.
          1    1    1    2  502    0 -0.78424495389E+02  0.31327069942E+02  0.13214917174E+04  0.13241873531E+04  0.00000000000E+00 0. -1.
         22    1    3    3    0    0  0.22604736474E+02 -0.34373503371E+02  0.78626875825E+01  0.41884766933E+02  0.00000000000E+00 0. -1.
         22    1    3    3    0    0 -0.23148480571E+02  0.76680195426E+02 -0.59698508440E+02  0.99898030177E+02  0.00000000000E+00 0. -1.
</event>
<event>
 7    1  0.5127424E-006  0.8415911E+02  0.7818608E-02  0.1401862E+00
          2   -1    0    0  502    0  0.00000000000E+00  0.00000000000E+00  0.20133877034E+04  0.20133877034E+04  0.00000000000E+00 0. -1.
          1   -1    0    0  501    0 -0.00000000000E+00 -0.00000000000E+00 -0.17687363333E+03  0.17687363333E+03  0.00000000000E+00 0. -1.
         25    2    1    2    0    0 -0.16538818833E+02 -0.55383975346E+02 -0.98920215071E+02  0.16955731485E+03  0.12499422713E+03 0.  0.
          2    1    1    2  501    0  0.30729621047E+02 -0.27791018177E+02 -0.31446187479E+02  0.52014546119E+02  0.00000000000E+00 0. -1.
          1    1    1    2  502    0 -0.14190802214E+02  0.83174993523E+02  0.19668804726E+04  0.19686894757E+04  0.00000000000E+00 0. -1.
         22    1    3    3    0    0 -0.41593770866E+02 -0.11938501663E+02  0.14423399659E+02  0.45613638909E+02  0.00000000000E+00 0.  1.
         22    1    3    3    0    0  0.25054952033E+02 -0.43445473683E+02 -0.11334361473E+03  0.12394367594E+03  0.00000000000E+00 0.  1.
</event>
<event>
 7    1  0.1017310E-005  0.5743639E+02  0.7818608E-02  0.1449657E+00
          2   -1    0    0  502    0  0.00000000000E+00  0.00000000000E+00  0.11582953247E+04  0.11582953247E+04  0.00000000000E+00 0. -1.
          1   -1    0    0  501    0 -0.00000000000E+00 -0.00000000000E+00 -0.13024903979E+04  0.13024903979E+04  0.00000000000E+00 0. -1.
         25    2    1    2    0    0  0.23491708527E+02  0.36230377663E+02 -0.42760381389E+03  0.44758745753E+03  0.12500003938E+03 0.  0.
          2    1    1    2  501    0 -0.58711870147E+02 -0.13057544842E+02 -0.86346129852E+03  0.86555357847E+03  0.00000000000E+00 0. -1.
          1    1    1    2  502    0  0.35220161621E+02 -0.23172832821E+02  0.11468700392E+04  0.11476446866E+04  0.00000000000E+00 0. -1.
         22    1    3    3    0    0  0.36257130463E+02 -0.28404536869E+02 -0.68858413074E+02  0.82842490760E+02  0.00000000000E+00 0. -1.
         22    1    3    3    0    0 -0.12765421937E+02  0.64634914532E+02 -0.35874540082E+03  0.36474496677E+03  0.00000000000E+00 0. -1.
</event>
<event>
 7    1  0.5127424E-006  0.1170176E+03  0.7818608E-02  0.1274295E+00
          2   -1    0    0  502    0  0.00000000000E+00  0.00000000000E+00  0.40415929939E+03  0.40415929939E+03  0.00000000000E+00 0. -1.
          1   -1    0    0  501    0 -0.00000000000E+00 -0.00000000000E+00 -0.20745533328E+04  0.20745533328E+04  0.00000000000E+00 0. -1.
         25    2    1    2    0    0 -0.15045845804E+03  0.13778627024E+03 -0.11137353849E+02  0.23952366932E+03  0.12499897460E+03 0.  0.
          2    1    1    2  501    0  0.74534672108E+02 -0.88531664096E+02 -0.19403949837E+04  0.19438430918E+04  0.00000000000E+00 0. -1.
          1    1    1    2  502    0  0.75923785936E+02 -0.49254606141E+02  0.28113830412E+03  0.29534587104E+03  0.00000000000E+00 0. -1.
         22    1    3    3    0    0  0.20592951158E+02  0.27177327693E+02  0.76992194410E+01  0.34956469472E+02  0.00000000000E+00 0.  1.
         22    1    3    3    0    0 -0.17105140920E+03  0.11060894254E+03 -0.18836573290E+02  0.20456719985E+03  0.00000000000E+00 0.  1.
</event>
<event>
 7    1  0.5127424E-006  0.1482059E+03  0.7818608E-02  0.1329673E+00
          2   -1    0    0  502    0  0.00000000000E+00  0.00000000000E+00  0.13204495859E+04  0.13204495859E+04  0.00000000000E+00 0. -1.
          1   -1    0    0  501    0 -0.00000000000E+00 -0.00000000000E+00 -0.21881954885E+04  0.21881954885E+04  0.00000000000E+00 0. -1.
         25    2    1    2    0    0 -0.13405169690E+02  0.18730197326E+03 -0.19030125223E+03  0.29513623826E+03  0.12501641799E+03 0.  0.
          2    1    1    2  501    0  0.16119780097E+02 -0.39807668177E+02 -0.19409478969E+04  0.19414229927E+04  0.00000000000E+00 0. -1.
          1    1    1    2  502    0 -0.27146104069E+01 -0.14749430509E+03  0.12635032465E+04  0.12720858435E+04  0.00000000000E+00 0. -1.
         22    1    3    3    0    0 -0.19549363112E+02  0.77687327772E+02 -0.56445679438E+01  0.80307905226E+02  0.00000000000E+00 0.  1.
         22    1    3    3    0    0  0.61441934223E+01  0.10961464549E+03 -0.18465668429E+03  0.21482833303E+03  0.00000000000E+00 0.  1.
</event>
<event>
 7    1  0.5127424E-006  0.6698712E+02  0.7818608E-02  0.1416154E+00
          2   -1    0    0  502    0  0.00000000000E+00  0.00000000000E+00  0.21492557470E+03  0.21492557470E+03  0.00000000000E+00 0. -1.
          1   -1    0    0  501    0 -0.00000000000E+00 -0.00000000000E+00 -0.19168071275E+03  0.19168071275E+03  0.00000000000E+00 0. -1.
         25    2    1    2    0    0  0.53426176110E+02 -0.29687565285E+02  0.84278327547E+02  0.16267756416E+03  0.12500178223E+03 0.  0.
          2    1    1    2  501    0 -0.26156828138E+02 -0.38509328196E+02 -0.13311483223E+03  0.14102023464E+03  0.00000000000E+00 0. -1.
          1    1    1    2  502    0 -0.27269347971E+02  0.68196893481E+02  0.72081366641E+02  0.10290848865E+03  0.00000000000E+00 0. -1.
         22    1    3    3    0    0  0.48071520775E+02  0.34055597512E+02  0.78923136354E+02  0.98486122289E+02  0.00000000000E+00 0.  1.
         22    1    3    3    0    0  0.53546553346E+01 -0.63743162798E+02  0.53551911935E+01  0.64191441874E+02  0.00000000000E+00 0.  1.
</event>
<event>
 7    1  0.5127424E-006  0.5335804E+02  0.7818608E-02  0.1452450E+00
          2   -1    0    0  502    0  0.00000000000E+00  0.00000000000E+00  0.11100578297E+04  0.11100578297E+04  0.00000000000E+00 0. -1.
          1   -1    0    0  501    0 -0.00000000000E+00 -0.00000000000E+00 -0.28910932321E+02  0.28910932321E+02  0.00000000000E+00 0. -1.
         25    2    1    2    0    0  0.35171555695E+02 -0.17201979810E+02  0.42352124645E+03  0.44331384920E+03  0.12499590496E+03 0.  0.
          2    1    1    2  501    0  0.16305516211E+02  0.41361042699E+02  0.10041478201E+02  0.45578909559E+02  0.00000000000E+00 0. -1.
          1    1    1    2  502    0 -0.51477071906E+02 -0.24159062890E+02  0.64758417273E+03  0.65007600327E+03  0.00000000000E+00 0. -1.
         22    1    3    3    0    0  0.22954605491E+02  0.44996279401E+02  0.84735577181E+02  0.98649364486E+02  0.00000000000E+00 0.  1.
         22    1    3    3    0    0  0.12216950204E+02 -0.62198259210E+02  0.33878566927E+03  0.34466448471E+03  0.00000000000E+00 0.  1.
</event>
<event>
 7    1  0.5127424E-006  0.9453532E+02  0.7818608E-02  0.1314754E+00
          2   -1    0    0  502    0  0.00000000000E+00  0.00000000000E+00  0.33357503794E+04  0.33357503794E+04  0.00000000000E+00 0. -1.
          1   -1    0    0  501    0 -0.00000000000E+00 -0.00000000000E+00 -0.55983451877E+02  0.55983451877E+02  0.00000000000E+00 0. -1.
         25    2    1    2    0    0 -0.35184224626E+02 -0.12663724080E+03  0.82133867030E+03  0.84112853242E+03  0.12500030518E+03 0.  0.
          2    1    1    2  501    0  0.72463540689E+02  0.59383439322E+02  0.27546136673E+01  0.93728040049E+02  0.00000000000E+00 0. -1.
          1    1    1    2  502    0 -0.37279316062E+02  0.67253801478E+02  0.24556736436E+04  0.24568772588E+04  0.00000000000E+00 0. -1.
         22    1    3    3    0    0  0.97278535070E+01 -0.13504047341E+03  0.59234363579E+03  0.60761957132E+03  0.00000000000E+00 0. -1.
         22    1    3    3    0    0 -0.44912078133E+02  0.84032326128E+01  0.22899503452E+03  0.23350896110E+03  0.00000000000E+00 0. -1.
</event>
<event>
 7    1  0.5127424E-006  0.9993601E+02  0.7818608E-02  0.1372244E+00
          2   -1    0    0  502    0  0.00000000000E+00  0.00000000000E+00  0.38111729739E+03  0.38111729739E+03  0.00000000000E+00 0. -1.
          1   -1    0    0  501    0 -0.00000000000E+00 -0.00000000000E+00 -0.15263704181E+04  0.15263704181E+04  0.00000000000E+00 0. -1.
         25    2    1    2    0    0 -0.11250465504E+03  0.50293617895E+02  0.59817896501E+02  0.18543535302E+03  0.12498537515E+03 0.  0.
          2    1    1    2  501    0  0.15549183719E+02 -0.41496206409E+02 -0.14540457126E+04  0.14547208140E+04  0.00000000000E+00 0. -1.
          1    1    1    2  502    0  0.96955471324E+02 -0.87974114853E+01  0.24897469540E+03  0.26733154849E+03  0.00000000000E+00 0. -1.
         22    1    3    3    0    0 -0.34420030150E+01  0.52623149877E+02 -0.12952919660E+02  0.54303051622E+02  0.00000000000E+00 0. -1.
         22    1    3    3    0    0 -0.10906265203E+03 -0.23295319821E+01  0.72770816160E+02  0.13113230140E+03  0.00000000000E+00 0. -1.
</event>
<event>
 7    1  0.5127424E-006  0.4399534E+02  0.7818608E-02  0.1496624E+00
          2   -1    0    0  502    0  0.00000000000E+00  0.00000000000E+00  0.16145179810E+04  0.16145179810E+04  0.00000000000E+00 0. -1.
          1   -1    0    0  501    0 -0.00000000000E+00 -0.00000000000E+00 -0.15272031410E+03  0.15272031410E+03  0.00000000000E+00 0. -1.
         25    2    1    2    0    0 -0.43699337275E+02 -0.39023244460E+02 -0.30954200776E+02  0.14147881207E+03  0.12500258411E+03 0.  0.
          2    1    1    2  501    0  0.45912008553E+01  0.43565515215E+02 -0.59012934906E+02  0.73495304119E+02  0.00000000000E+00 0. -1.
          1    1    1    2  502    0  0.39108136420E+02 -0.45422707557E+01  0.15517648026E+04  0.15522641789E+04  0.00000000000E+00 0. -1.
         22    1    3    3    0    0 -0.60120967994E+02  0.25517156882E+02 -0.36204380554E+02  0.74675385899E+02  0.00000000000E+00 0. -1.
         22    1    3    3    0    0  0.16421630719E+02 -0.64540401342E+02  0.52501797780E+01  0.66803426174E+02  0.00000000000E+00 0. -1.
</event>
<event>
 7    1  0.6341913E-006  0.2229136E+03  0.7818608E-02  0.1289046E+00
          2   -1    0    0  502    0  0.00000000000E+00  0.00000000000E+00  0.18536958520E+04  0.18536958520E+04  0.00000000000E+00 0. -1.
          1   -1    0    0  501    0 -0.00000000000E+00 -0.00000000000E+00 -0.16443506360E+04  0.16443506360E+04  0.00000000000E+00 0. -1.
         25    2    1    2    0    0  0.17512556886E+03 -0.17951226718E+03 -0.56472084990E+03  0.63041903501E+03  0.12499960979E+03 0.  0.
          2    1    1    2  501    0 -0.13666104023E+03  0.16446765833E+03 -0.10356220189E+04  0.10574681161E+04  0.00000000000E+00 0. -1.
          1    1    1    2  502    0 -0.38464528631E+02  0.15044608853E+02  0.18096880848E+04  0.18101593368E+04  0.00000000000E+00 0. -1.
         22    1    3    3    0    0  0.13346001799E+03 -0.53987390435E+02 -0.34692206438E+03  0.37560768560E+03  0.00000000000E+00 0.  1.
         22    1    3    3    0    0  0.41665550869E+02 -0.12552487674E+03 -0.21779878552E+03  0.25481134940E+03  0.00000000000E+00 0.  1.
</event>
<event>
 7    1  0.5127424E-006  0.7325541E+02  0.7818608E-02  0.1452584E+00
          2   -1    0    0  502    0  0.00000000000E+00  0.00000000000E+00  0.77400165938E+03  0.77400165938E+03  0.00000000000E+00 0. -1.
          1   -1    0    0  501    0 -0.00000000000E+00 -0.00000000000E+00 -0.27192636125E+02  0.27192636125E+02  0.00000000000E+00 0. -1.
         25    2    1    2    0    0 -0.59190477981E+02 -0.10055771506E+02  0.29683513547E+03  0.32762892372E+03  0.12499993114E+03 0.  0.
          2    1    1    2  501    0 -0.55918317216E+01 -0.31864564874E+02  0.23046910817E+02  0.39721268545E+02  0.00000000000E+00 0. -1.
          1    1    1    2  502    0  0.64782309703E+02  0.41920336380E+02  0.42692697697E+03  0.43384410324E+03  0.00000000000E+00 0. -1.
         22    1    3    3    0    0  0.26617022546E+02 -0.29810915376E+02  0.41842213367E+02  0.57861277071E+02  0.00000000000E+00 0.  1.
         22    1    3    3    0    0 -0.85807500527E+02  0.19755143870E+02  0.25499292210E+03  0.26976764665E+03  0.00000000000E+00 0.  1.
</event>
<event>
 7    1  0.5127424E-006  0.7103257E+02  0.7818608E-02  0.1434583E+00
          2   -1    0    0  502    0  0.00000000000E+00  0.00000000000E+00  0.81898257693E+03  0.81898257693E+03  0.00000000000E+00 0. -1.
          1   -1    0    0  501    0 -0.00000000000E+00 -0.00000000000E+00 -0.92418833870E+03  0.92418833870E+03  0.00000000000E+00 0. -1.
         25    2    1    2    0    0  0.26245588065E+02  0.83596254643E+02 -0.16268559731E+03  0.22311314922E+03  0.12504282905E+03 0.  0.
          2    1    1    2  501    0 -0.35757653004E+02 -0.13273388279E+02 -0.72919343889E+03  0.73019029295E+03  0.00000000000E+00 0. -1.
          1    1    1    2  502    0  0.95120649382E+01 -0.70322866365E+02  0.78667327445E+03  0.78986747347E+03  0.00000000000E+00 0. -1.
         22    1    3    3    0    0  0.48815224904E+02  0.10577672910E+03 -0.14765995325E+03  0.18808270626E+03  0.00000000000E+00 0.  1.
         22    1    3    3    0    0 -0.22569636838E+02 -0.22180474456E+02 -0.15025644062E+02  0.35030442954E+02  0.00000000000E+00 0.  1.
</event>
<event>
 7    1  0.5127424E-006  0.1600812E+03  0.7818608E-02  0.1260141E+00
          2   -1    0    0  502    0  0.00000000000E+00  0.00000000000E+00  0.26172924131E+04  0.26172924131E+04  0.00000000000E+00 0. -1.
          1   -1    0    0  501    0 -0.00000000000E+00 -0.00000000000E+00 -0.11084554960E+04  0.11084554960E+04  0.00000000000E+00 0. -1.
         25    2    1    2    0    0 -0.27488467115E+02  0.12005905484E+03  0.54064400104E+02  0.18362308122E+03  0.12499873649E+03 0.  0.
          2    1    1    2  501    0 -0.75746529542E+02  0.49129396540E+01 -0.10396618940E+04  0.10424291474E+04  0.00000000000E+00 0. -1.
          1    1    1    2  502    0  0.10323499666E+03 -0.12497199449E+03  0.24944344110E+04  0.24996956804E+04  0.00000000000E+00 0. -1.
         22    1    3    3    0    0 -0.63103152501E+02  0.81478748823E+02  0.74621411792E+02  0.12723658854E+03  0.00000000000E+00 0.  1.
         22    1    3    3    0    0  0.35614685386E+02  0.38580306012E+02 -0.20557011688E+02  0.56386492679E+02  0.00000000000E+00 0.  1.
</event>
<event>
 7    1  0.5127424E-006  0.6481068E+02  0.7818608E-02  0.1488741E+00
          2   -1    0    0  502    0  0.00000000000E+00  0.00000000000E+00  0.45193962440E+03  0.45193962440E+03  0.00000000000E+00 0. -1.
          1   -1    0    0  501    0 -0.00000000000E+00 -0.00000000000E+00 -0.10654577890E+04  0.10654577890E+04  0.00000000000E+00 0. -1.
         25    2    1    2    0    0  0.56179183270E+02 -0.38199376401E+01  0.10542737089E+03  0.17294699096E+03  0.12500015436E+03 0.  0.
          2    1    1    2  501    0 -0.60269602124E+02 -0.24111513081E+02 -0.10300371736E+04  0.10320806020E+04  0.00000000000E+00 0. -1.
          1    1    1    2  502    0  0.40904188538E+01  0.27931450721E+02  0.31109163808E+03  0.31236982049E+03  0.00000000000E+00 0. -1.
         22    1    3    3    0    0  0.23943694907E+02  0.32404132312E+02 -0.15103009432E+02  0.43028237364E+02  0.00000000000E+00 0.  1.
         22    1    3    3    0    0  0.32235488363E+02 -0.36224069952E+02  0.12053038032E+03  0.12991875359E+03  0.00000000000E+00 0.  1.
</event>
<event>
 7    1  0.5127424E-006  0.5232821E+02  0.7818608E-02  0.1443832E+00
          2   -1    0    0  502    0  0.00000000000E+00  0.00000000000E+00  0.20089840502E+03  0.20089840502E+03  0.00000000000E+00 0. -1.
          1   -1    0    0  501    0 -0.00000000000E+00 -0.00000000000E+00 -0.31085574196E+03  0.31085574196E+03  0.00000000000E+00 0. -1.
         25    2    1    2    0    0 -0.19616060857E+02 -0.21812404376E+02 -0.30209511663E+02  0.13190283744E+03  0.12500069240E+03 0.  0.
          2    1    1    2  501    0 -0.18396521773E+02  0.51632820606E+02 -0.22249635169E+03  0.22914843812E+03  0.00000000000E+00 0. -1.
          1    1    1    2  502    0  0.38012582630E+02 -0.29820416230E+02  0.14274852641E+03  0.15070287142E+03  0.00000000000E+00 0. -1.
         22    1    3    3    0    0 -0.54234598153E+02  0.31853687080E+02 -0.44963069231E+01  0.63057638660E+02  0.00000000000E+00 0.  1.
         22    1    3    3    0    0  0.34618537296E+02 -0.53666091456E+02 -0.25713204740E+02  0.68845198777E+02  0.00000000000E+00 0.  1.
</event>
<event>
 7    1  0.5127424E-006  0.5864920E+02  0.7818608E-02  0.1465174E+00
          2   -1    0    0  502    0  0.00000000000E+00  0.00000000000E+00  0.99028682110E+02  0.99028682110E+02  0.00000000000E+00 0. -1.
          1   -1    0    0  501    0 -0.00000000000E+00 -0.00000000000E+00 -0.87693492303E+03  0.87693492303E+03  0.00000000000E+00 0. -1.
         25    2    1    2    0    0  0.33106526468E+02  0.39311410984E+02 -0.15277052186E+03  0.20396426056E+03  0.12498463148E+03 0.  0.
          2    1    1    2  501    0  0.25406152511E+02 -0.26721413469E+02 -0.68579367438E+03  0.68678415120E+03  0.00000000000E+00 0. -1.
          1    1    1    2  502    0 -0.58512678979E+02 -0.12589997515E+02  0.60657955322E+02  0.85215193378E+02  0.00000000000E+00 0. -1.
         22    1    3    3    0    0 -0.24934833061E+02 -0.19176096283E+02 -0.10301003925E+03  0.10770578793E+03  0.00000000000E+00 0.  1.
         22    1    3    3    0    0  0.58041359529E+02  0.58487507267E+02 -0.49760482611E+02  0.96258472624E+02  0.00000000000E+00 0.  1.
</event>
<event>
 7    1  0.5127424E-006  0.1206312E+03  0.7818608E-02  0.1312272E+00
          2   -1    0    0  502    0  0.00000000000E+00  0.00000000000E+00  0.17133461421E+03  0.17133461421E+03  0.00000000000E+00 0. -1.
          1   -1    0    0  501    0 -0.00000000000E+00 -0.00000000000E+00 -0.24321886236E+04  0.24321886236E+04  0.00000000000E+00 0. -1.
         25    2    1    2    0    0  0.43054051378E+02 -0.45069699890E+02 -0.15912573657E+02  0.14058013601E+03  0.12499854180E+03 0.  0.
          2    1    1    2  501    0 -0.68185787598E+02  0.10133720954E+03 -0.23435127995E+04  0.23466935832E+04  0.00000000000E+00 0. -1.
          1    1    1    2  502    0  0.25131736220E+02 -0.56267509649E+02  0.98571363835E+02  0.11624951860E+03  0.00000000000E+00 0. -1.
         22    1    3    3    0    0  0.36616130426E+02  0.40021410441E+02 -0.87523756932E+01  0.54945958735E+02  0.00000000000E+00 0. -1.
         22    1    3    3    0    0  0.64379209521E+01 -0.85091110330E+02 -0.71601979640E+01  0.85634177279E+02  0.00000000000E+00 0. -1.
</event>
<event>
 7    1  0.5127424E-006  0.8707153E+02  0.7818608E-02  0.1345041E+00
          2   -1    0    0  502    0  0.00000000000E+00  0.00000000000E+00  0.16819948944E+03  0.16819948944E+03  0.00000000000E+00 0. -1.
          1   -1    0    0  501    0 -0.00000000000E+00 -0.00000000000E+00 -0.94298294271E+03  0.94298294271E+03  0.00000000000E+00 0. -1.
         25    2    1    2    0    0  0.78135459176E+02 -0.24267485619E+02 -0.17615182205E+03  0.23097204209E+03  0.12499823590E+03 0.  0.
          2    1    1    2  501    0 -0.43829500764E+02  0.78242656418E+02 -0.72926662372E+03  0.73476033296E+03  0.00000000000E+00 0. -1.
          1    1    1    2  502    0 -0.34305958412E+02 -0.53975170799E+02  0.13063499250E+03  0.14545005710E+03  0.00000000000E+00 0. -1.
         22    1    3    3    0    0 -0.11414076348E+02  0.72305425342E+00  0.14732304751E+02  0.18650596494E+02  0.00000000000E+00 0. -1.
         22    1    3    3    0    0  0.89549535524E+02 -0.24990539872E+02 -0.19088412680E+03  0.21232144560E+03  0.00000000000E+00 0. -1.
</event>
<event>
 7    1  0.5127424E-006  0.2003750E+03  0.7818608E-02  0.1357027E+00
          2   -1    0    0  502    0  0.00000000000E+00  0.00000000000E+00  0.13449389562E+04  0.13449389562E+04  0.00000000000E+00 0. -1.
          1   -1    0    0  501    0 -0.00000000000E+00 -0.00000000000E+00 -0.33189049105E+03  0.33189049105E+03  0.00000000000E+00 0. -1.
         25    2    1    2    0    0 -0.79543753761E+02 -0.19464475323E+03  0.31829796031E+03  0.40143662260E+03  0.12499592674E+03 0.  0.
          2    1    1    2  501    0  0.54597405090E+02  0.19192881640E+03 -0.25584851736E+03  0.32446264969E+03  0.00000000000E+00 0. -1.
          1    1    1    2  502    0  0.24946348671E+02  0.27159368256E+01  0.95059902223E+03  0.95093017498E+03  0.00000000000E+00 0. -1.
         22    1    3    3    0    0 -0.44505129884E+02 -0.56857509091E+01  0.10582937114E+03  0.11494733640E+03  0.00000000000E+00 0. -1.
         22    1    3    3    0    0 -0.35038623878E+02 -0.18895900232E+03  0.21246858918E+03  0.28648928620E+03  0.00000000000E+00 0. -1.
</event>
<event>
 7    1  0.5127424E-006  0.6478109E+02  0.7818608E-02  0.1486619E+00
          2   -1    0    0  502    0  0.00000000000E+00  0.00000000000E+00  0.12944769409E+04  0.12944769409E+04  0.00000000000E+00 0. -1.
          1   -1    0    0  501    0 -0.00000000000E+00 -0.00000000000E+00 -0.17111001563E+03  0.17111001563E+03  0.00000000000E+00 0. -1.
         25    2    1    2    0    0  0.68916447940E+02 -0.10089846304E+02  0.62881550419E+02  0.15633621407E+03  0.12504255536E+03 0.  0.
          2    1    1    2  501    0 -0.14325011603E+02 -0.24827833010E+02 -0.12183210026E+03  0.12515865094E+03  0.00000000000E+00 0. -1.
          1    1    1    2  502    0 -0.54591436338E+02  0.34917679315E+02  0.11823174751E+04  0.11840920915E+04  0.00000000000E+00 0. -1.
         22    1    3    3    0    0  0.71044773804E+02 -0.57575011688E+02  0.23012040506E+02  0.94296319462E+02  0.00000000000E+00 0.  1.
         22    1    3    3    0    0 -0.21283258632E+01  0.47485165384E+02  0.39869509913E+02  0.62039894610E+02  0.00000000000E+00 0.  1.
</event>
<event>
 7    1  0.5127424E-006  0.5782931E+02  0.7818608E-02  0.1485100E+00
          2   -1    0    0  502    0  0.00000000000E+00  0.00000000000E+00  0.98878626084E+03  0.98878626084E+03  0.00000000000E+00 0. -1.
          1   -1    0    0  501    0 -0.00000000000E+00 -0.00000000000E+00 -0.16269671235E+03  0.16269671235E+03  0.00000000000E+00 0. -1.
         25    2    1    2    0    0 -0.40181999865E+02 -0.29999401047E+02 -0.94555080032E+02  0.16456171146E+03  0.12500134616E+03 0.  0.
          2    1    1    2  501    0  0.67613546784E+02  0.12657825196E+02  0.31577684583E+01  0.68860611012E+02  0.00000000000E+00 0. -1.
          1    1    1    2  502    0 -0.27431546919E+02  0.17341575852E+02  0.91748686006E+03  0.91806065072E+03  0.00000000000E+00 0. -1.
         22    1    3    3    0    0 -0.42789543019E+02 -0.76340805836E+02 -0.69907699737E+02  0.11200870551E+03  0.00000000000E+00 0.  1.
         22    1    3    3    0    0  0.26075431549E+01  0.46341404789E+02 -0.24647380295E+02  0.52553005951E+02  0.00000000000E+00 0.  1.
</event>
<event>
 7    1  0.5127424E-006  0.1302201E+03  0.7818608E-02  0.1359298E+00
          2   -1    0    0  502    0  0.00000000000E+00  0.00000000000E+00  0.25210173220E+03  0.25210173220E+03  0.00000000000E+00 0. -1.
          1   -1    0    0  501    0 -0.00000000000E+00 -0.00000000000E+00 -0.13166017657E+04  0.13166017657E+04  0.00000000000E+00 0. -1.
         25    2    1    2    0    0 -0.26369807425E+02 -0.13298060959E+03 -0.21784437100E+03  0.28541340659E+03  0.12500173364E+03 0.  0.
          2    1    1    2  501    0 -0.11365409624E+02  0.12966027836E+03 -0.10593160093E+04  0.10672822344E+04  0.00000000000E+00 0. -1.
          1    1    1    2  502    0  0.37735217049E+02  0.33203312239E+01  0.21266034673E+03  0.21600785698E+03  0.00000000000E+00 0. -1.
         22    1    3    3    0    0  0.99558123526E+01 -0.27688260407E+02 -0.15450350239E+03  0.15728029188E+03  0.00000000000E+00 0.  1.
         22    1    3    3    0    0 -0.36325619778E+02 -0.10529234918E+03 -0.63340868615E+02  0.12813311471E+03  0.00000000000E+00 0.  1.
</event>
<event>
 7    1  0.5127424E-006  0.2490035E+02  0.7818608E-02  0.1693578E+00
          2   -1    0    0  502    0  0.00000000000E+00  0.00000000000E+00  0.96472596356E+03  0.96472596356E+03  0.00000000000E+00 0. -1.
          1   -1    0    0  501    0 -0.00000000000E+00 -0.00000000000E+00 -0.14034002847E+04  0.14034002847E+04  0.00000000000E+00 0. -1.
         25    2    1    2    0    0  0.18780253673E+02 -0.29421692326E+02 -0.33198358163E+02  0.13395755807E+03  0.12499664984E+03 0.  0.
          2    1    1    2  501    0 -0.23250557308E+02  0.88921885316E+01 -0.13195842255E+04  0.13198189980E+04  0.00000000000E+00 0. -1.
          1    1    1    2  502    0  0.44703036354E+01  0.20529503794E+02  0.91410826246E+03  0.91434969221E+03  0.00000000000E+00 0. -1.
         22    1    3    3    0    0 -0.51915272000E+02 -0.26044099832E+02 -0.70610117203E+01  0.58509388045E+02  0.00000000000E+00 0.  1.
         22    1    3    3    0    0  0.70695525673E+02 -0.33775924946E+01 -0.26137346443E+02  0.75448170026E+02  0.00000000000E+00 0.  1.
</event>
<event>
 7    1  0.5917567E-006  0.5634770E+02  0.7818608E-02  0.1470954E+00
          2   -1    0    0  502    0  0.00000000000E+00  0.00000000000E+00  0.21578721444E+04  0.21578721444E+04  0.00000000000E+00 0. -1.
          1   -1    0    0  501    0 -0.00000000000E+00 -0.00000000000E+00 -0.75051000926E+03  0.75051000926E+03  0.00000000000E+00 0. -1.
         25    2    1    2    0    0  0.28798202968E+02  0.16325190482E+02 -0.12040165305E+03  0.17668561163E+03  0.12500159584E+03 0.  0.
          2    1    1    2  501    0 -0.57395398370E+02  0.68627228695E+01 -0.60041911961E+03  0.60319519884E+03  0.00000000000E+00 0. -1.
          1    1    1    2  502    0  0.28597195403E+02 -0.23187913351E+02  0.21281829078E+04  0.21285013432E+04  0.00000000000E+00 0. -1.
         22    1    3    3    0    0 -0.49350405969E+02  0.11552097467E+01 -0.39939132075E+02  0.63497490893E+02  0.00000000000E+00 0. -1.
         22    1    3    3    0    0  0.78148608937E+02  0.15169980735E+02 -0.80462520973E+02  0.11318812074E+03  0.00000000000E+00 0. -1.
</event>
<event>
 7    1  0.5127424E-006  0.5263843E+02  0.7818608E-02  0.1447297E+00
          2   -1    0    0  502    0  0.00000000000E+00  0.00000000000E+00  0.80566573177E+03  0.80566573177E+03  0.00000000000E+00 0. -1.
          1   -1    0    0  501    0 -0.00000000000E+00 -0.00000000000E+00 -0.24071886675E+02  0.24071886675E+02  0.00000000000E+00 0. -1.
         25    2    1    2    0    0 -0.34538937552E+01  0.28933268361E+02  0.41853713234E+03  0.43777574499E+03  0.12500083342E+03 0.  0.
          2    1    1    2  501    0 -0.50363175728E+02 -0.15308637067E+02  0.45465383238E+02  0.69555049502E+02  0.00000000000E+00 0. -1.
          1    1    1    2  502    0  0.53817069483E+02 -0.13624631294E+02  0.31759132951E+03  0.32240682395E+03  0.00000000000E+00 0. -1.
         22    1    3    3    0    0 -0.23319732183E+02  0.18756251317E+02  0.14735711596E+02  0.33357878661E+02  0.00000000000E+00 0.  1.
         22    1    3    3    0    0  0.19865838428E+02  0.10177017044E+02  0.40380142074E+03  0.40441786633E+03  0.00000000000E+00 0.  1.
</event>
<event>
 7    1  0.7515140E-006  0.8939630E+02  0.7818608E-02  0.1406698E+00
          2   -1    0    0  502    0  0.00000000000E+00  0.00000000000E+00  0.20064232671E+04  0.20064232671E+04  0.00000000000E+00 0. -1.
          1   -1    0    0  501    0 -0.00000000000E+00 -0.00000000000E+00 -0.10193011816E+04  0.10193011816E+04  0.00000000000E+00 0. -1.
         25    2    1    2    0    0  0.77578317242E+02  0.86021330815E+02 -0.66558281361E+03  0.68705354735E+03  0.12499612189E+03 0.  0.
          2    1    1    2  501    0 -0.36998632997E+02 -0.64032403845E+01 -0.34095142560E+03  0.34301279123E+03  0.00000000000E+00 0. -1.
          1    1    1    2  502    0 -0.40579684245E+02 -0.79618090431E+02  0.19936563248E+04  0.19956581101E+04  0.00000000000E+00 0. -1.
         22    1    3    3    0    0  0.42304293935E+02  0.96649370204E+02 -0.27190547135E+03  0.29165620069E+03  0.00000000000E+00 0.  1.
         22    1    3    3    0    0  0.35274023307E+02 -0.10628039388E+02 -0.39367734226E+03  0.39539734666E+03  0.00000000000E+00 0.  1.
</event>
<event>
 7    1  0.5127424E-006  0.1794028E+03  0.7818608E-02  0.1335703E+00
          2   -1    0    0  502    0  0.00000000000E+00  0.00000000000E+00  0.78088940427E+03  0.78088940427E+03  0.00000000000E+00 0. -1.
          1   -1    0    0  501    0 -0.00000000000E+00 -0.00000000000E+00 -0.44075012413E+03  0.44075012413E+03  0.00000000000E+00 0. -1.
         25    2    1    2    0    0  0.15568938513E+03  0.73339613920E+02  0.17274147573E+02  0.21340225478E+03  0.12499697020E+03 0.  0.
          2    1    1    2  501    0 -0.92038346617E+01  0.32370691455E+02 -0.32955556288E+03  0.33126943907E+03  0.00000000000E+00 0. -1.
          1    1    1    2  502    0 -0.14648555047E+03 -0.10571030537E+03  0.65242069545E+03  0.67696783455E+03  0.00000000000E+00 0. -1.
         22    1    3    3    0    0  0.27187014067E+02 -0.63433388036E+01 -0.42470291135E+02  0.50824180368E+02  0.00000000000E+00 0. -1.
         22    1    3    3    0    0  0.12850237107E+03  0.79682952723E+02  0.59744438707E+02  0.16257807442E+03  0.00000000000E+00 0. -1.
</event>
<event>
 7    1  0.5127424E-006  0.3264882E+02  0.7818608E-02  0.1618147E+00
          2   -1    0    0  502    0  0.00000000000E+00  0.00000000000E+00  0.11691918212E+04  0.11691918212E+04  0.00000000000E+00 0. -1.
          1   -1    0    0  501    0 -0.00000000000E+00 -0.00000000000E+00 -0.66581883483E+02  0.66581883483E+02  0.00000000000E+00 0. -1.
         25    2    1    2    0    0  0.19343750447E+01 -0.10966945901E+02  0.67180252986E+03  0.68342459014E+03  0.12500606212E+03 0.  0.
          2    1    1    2  501    0 -0.53019696321E+01 -0.23881386853E+02 -0.57656827771E+02  0.62631791517E+02  0.00000000000E+00 0. -1.
          1    1    1    2  502    0  0.33675945874E+01  0.34848332754E+02  0.48846423564E+03  0.48971732304E+03  0.00000000000E+00 0. -1.
         22    1    3    3    0    0  0.45275873163E+02 -0.10066512171E+02  0.58053334652E+03  0.58238321214E+03  0.00000000000E+00 0.  1.
         22    1    3    3    0    0 -0.43341498119E+02 -0.90043372969E+00  0.91269183338E+02  0.10104137800E+03  0.00000000000E+00 0.  1.
</event>
<event>
 7    1  0.5127424E-006  0.2445804E+03  0.7818608E-02  0.1197345E+00
          2   -1    0    0  502    0  0.00000000000E+00  0.00000000000E+00  0.11938980057E+04  0.11938980057E+04  0.00000000000E+00 0. -1.
          1   -1    0    0  501    0 -0.00000000000E+00 -0.00000000000E+00 -0.36639576230E+03  0.36639576230E+03  0.00000000000E+00 0. -1.
         25    2    1    2    0    0 -0.52828427780E+02 -0.15040659077E+03 -0.71063180140E+02  0.21467837971E+03  0.12499538317E+03 0.  0.
          2    1    1    2  501    0 -0.49909565120E+02 -0.81044099423E+02 -0.19826775763E+03  0.21993002173E+03  0.00000000000E+00 0. -1.
          1    1    1    2  502    0  0.10273799290E+03  0.23145069019E+03  0.10968331812E+04  0.11256853666E+04  0.00000000000E+00 0. -1.
         22    1    3    3    0    0  0.36268658028E+02 -0.82127455003E+02 -0.23781301833E+02  0.92875641249E+02  0.00000000000E+00 0.  1.
         22    1    3    3    0    0 -0.89097085808E+02 -0.68279135763E+02 -0.47281878307E+02  0.12180273846E+03  0.00000000000E+00 0.  1.
</event>
<event>
 7    1  0.5127424E-006  0.1475495E+03  0.7818608E-02  0.1265648E+00
          2   -1    0    0  502    0  0.00000000000E+00  0.00000000000E+00  0.10033702702E+04  0.10033702702E+04  0.00000000000E+00 0. -1.
          1   -1    0    0  501    0 -0.00000000000E+00 -0.00000000000E+00 -0.93395927709E+02  0.93395927709E+02  0.00000000000E+00 0. -1.
         25    2    1    2    0    0 -0.17767759796E+03  0.73452476220E+02  0.65745370364E+03  0.69630166979E+03  0.12500419130E+03 0.  0.
          2    1    1    2  501    0  0.58750028415E+02 -0.51358763250E+02 -0.37243417048E+02  0.86465950031E+02  0.00000000000E+00 0. -1.
          1    1    1    2  502    0  0.11892756954E+03 -0.22093712970E+02  0.28976405587E+03  0.31399857806E+03  0.00000000000E+00 0. -1.
         22    1    3    3    0    0 -0.11633066338E+03  0.85253647566E+02  0.57524518781E+03  0.59304977343E+03  0.00000000000E+00 0. -1.
         22    1    3    3    0    0 -0.61346934579E+02 -0.11801171346E+02  0.82208515836E+02  0.10325189637E+03  0.00000000000E+00 0. -1.
</event>
<event>
 7    1  0.5127424E-006  0.7600162E+02  0.7818608E-02  0.1387869E+00
          2   -1    0    0  502    0  0.00000000000E+00  0.00000000000E+00  0.28249774971E+04  0.28249774971E+04  0.00000000000E+00 0. -1.
          1   -1    0    0  501    0 -0.00000000000E+00 -0.00000000000E+00 -0.38341360320E+02  0.38341360320E+02  0.00000000000E+00 0. -1.
         25    2    1    2    0    0  0.11308744383E+02  0.36772324947E+02  0.59216965309E+03  0.60644110026E+03  0.12500327381E+03 0.  0.
          2    1    1    2  501    0  0.48366057014E+02  0.17094605740E+02 -0.88835184052E+01  0.52061674154E+02  0.00000000000E+00 0. -1.
          1    1    1    2  502    0 -0.59674801397E+02 -0.53866930687E+02  0.22033500021E+04  0.22048160830E+04  0.00000000000E+00 0. -1.
         22    1    3    3    0    0 -0.23839358357E+02 -0.22653203872E+02  0.41489525530E+03  0.41619653473E+03  0.00000000000E+00 0. -1.
         22    1    3    3    0    0  0.35148102740E+02  0.59425528819E+02  0.17727439779E+03  0.19024456553E+03  0.00000000000E+00 0. -1.
</event>
<event>
 7    1  0.5127424E-006  0.7028992E+02  0.7818608E-02  0.1485600E+00
          2   -1    0    0  502    0  0.00000000000E+00  0.00000000000E+00  0.11224295051E+03  0.11224295051E+03  0.00000000000E+00 0. -1.
          1   -1    0    0  501    0 -0.00000000000E+00 -0.00000000000E+00 -0.32806074813E+03  0.32806074813E+03  0.00000000000E+00 0. -1.
         25    2    1    2    0    0 -0.38515086889E+02 -0.34262423987E+02  0.51529902839E+02  0.14469716423E+03  0.12499845133E+03 0.  0.
          2    1    1    2  501    0  0.64759090478E+02  0.29883706084E+02 -0.25756650160E+03  0.26725882293E+03  0.00000000000E+00 0. -1.
          1    1    1    2  502    0 -0.26244003589E+02  0.43787179029E+01 -0.97811988567E+01  0.28347711476E+02  0.00000000000E+00 0. -1.
         22    1    3    3    0    0  0.34200039267E+01 -0.44601674866E+02 -0.29003882405E+02  0.53312578462E+02  0.00000000000E+00 0. -1.
         22    1    3    3    0    0 -0.41935090816E+02  0.10339250879E+02  0.80533785243E+02  0.91384585769E+02  0.00000000000E+00 0. -1.
</event>
<event>
 7    1  0.5127424E-006  0.6303916E+02  0.7818608E-02  0.1391943E+00
          2   -1    0    0  502    0  0.00000000000E+00  0.00000000000E+00  0.10695347011E+04  0.10695347011E+04  0.00000000000E+00 0. -1.
          1   -1    0    0  501    0 -0.00000000000E+00 -0.00000000000E+00 -0.16689712972E+03  0.16689712972E+03  0.00000000000E+00 0. -1.
         25    2    1    2    0    0 -0.32443999301E+02 -0.26308456822E+01 -0.70884682384E+02  0.14734027551E+03  0.12499993661E+03 0.  0.
          2    1    1    2  501    0  0.76832753999E+02 -0.42130451332E+02 -0.22986845454E+02  0.90590518712E+02  0.00000000000E+00 0. -1.
          1    1    1    2  502    0 -0.44388754698E+02  0.44761297015E+02  0.99650909918E+03  0.99850103655E+03  0.00000000000E+00 0. -1.
         22    1    3    3    0    0 -0.20750693949E+02 -0.52567256366E+02 -0.77189752406E+02  0.95666951544E+02  0.00000000000E+00 0.  1.
         22    1    3    3    0    0 -0.11693305352E+02  0.49936410684E+02  0.63050700216E+01  0.51673323969E+02  0.00000000000E+00 0.  1.
</event>
<event>
 7    1  0.5127424E-006  0.8564074E+02  0.7818608E-02  0.1493791E+00
          2   -1    0    0  502    0  0.00000000000E+00  0.00000000000E+00  0.27413648333E+04  0.27413648333E+04  0.00000000000E+00 0. -1.
          1   -1    0    0  501    0 -0.00000000000E+00 -0.00000000000E+00 -0.57171984562E+03  0.57171984562E+03  0.00000000000E+00 0. -1.
         25    2    1    2    0    0  0.88560011559E+02 -0.57401150827E+02 -0.14822384491E+03  0.22075566457E+03  0.12499994989E+03 0.  0.
          2    1    1    2  501    0 -0.14330347122E+02  0.14834769849E+02 -0.38627819990E+03  0.38682848520E+03  0.00000000000E+00 0. -1.
          1    1    1    2  502    0 -0.74229664437E+02  0.42566380978E+02  0.27041470325E+04  0.27055005291E+04  0.00000000000E+00 0. -1.
         22    1    3    3    0    0  0.13883281459E+02 -0.16201966564E+02 -0.13228096454E+03  0.13399068179E+03  0.00000000000E+00 0.  1.
         22    1    3    3    0    0  0.74676730100E+02 -0.41199184263E+02 -0.15942880369E+02  0.86764982780E+02  0.00000000000E+00 0.  1.
</event>
<event>
 7    1  0.5127424E-006  0.6220911E+02  0.7818608E-02  0.1399264E+00
          2   -1    0    0  502    0  0.00000000000E+00  0.00000000000E+00  0.55883485801E+03  0.55883485801E+03  0.00000000000E+00 0. -1.
          1   -1    0    0  501    0 -0.00000000000E+00 -0.00000000000E+00 -0.45907750478E+03  0.45907750478E+03  0.00000000000E+00 0. -1.
         25    2    1    2    0    0 -0.67161933220E+02  0.15582692898E+02  0.18834349604E+03  0.23632959094E+03  0.12499942986E+03 0.  0.
          2    1    1    2  501    0  0.26954543256E+02 -0.56288470478E+02 -0.43045677290E+03  0.43495743774E+03  0.00000000000E+00 0. -1.
          1    1    1    2  502    0  0.40207389964E+02  0.40705777580E+02  0.34187063008E+03  0.34662533411E+03  0.00000000000E+00 0. -1.
         22    1    3    3    0    0 -0.22005546734E+02  0.30913280093E+02 -0.40062245885E+01  0.38156582769E+02  0.00000000000E+00 0. -1.
         22    1    3    3    0    0 -0.45156386486E+02 -0.15330587195E+02  0.19234972063E+03  0.19817300817E+03  0.00000000000E+00 0. -1.
</event>
<event>
 7    1  0.5127424E-006  0.2835414E+03  0.7818608E-02  0.1151030E+00
          2   -1    0    0  502    0  0.00000000000E+00  0.00000000000E+00  0.62443196350E+03  0.62443196350E+03  0.00000000000E+00 0. -1.
          1   -1    0    0  501    0 -0.00000000000E+00 -0.00000000000E+00 -0.57143148753E+03  0.57143148753E+03  0.00000000000E+00 0. -1.
         25    2    1    2    0    0 -0.27486085362E+03 -0.24308580921E+01  0.28166628465E+03  0.41293572890E+03  0.12500248946E+03 0.  0.
          2    1    1    2  501    0  0.25228221900E+03  0.13951771473E+03 -0.44237821445E+03  0.52802461625E+03  0.00000000000E+00 0. -1.
          1    1    1    2  502    0  0.22578634618E+02 -0.13708685664E+03  0.21371240577E+03  0.25490310587E+03  0.00000000000E+00 0. -1.
         22    1    3    3    0    0 -0.11347762500E+03  0.51824194635E+02  0.16363577424E+03  0.20576585027E+03  0.00000000000E+00 0. -1.
         22    1    3    3    0    0 -0.16138322861E+03 -0.54255052727E+02  0.11803051041E+03  0.20716987863E+03  0.00000000000E+00 0. -1.
</event>
<event>
 7    1  0.5127424E-006  0.1073408E+03  0.7818608E-02  0.1366171E+00
          2   -1    0    0  502    0  0.00000000000E+00  0.00000000000E+00  0.25492280707E+03  0.25492280707E+03  0.00000000000E+00 0. -1.
          1   -1    0    0  501    0 -0.00000000000E+00 -0.00000000000E+00 -0.27794742302E+04  0.27794742302E+04  0.00000000000E+00 0. -1.
         25    2    1    2    0    0 -0.71469731175E+02 -0.95778618771E+02 -0.59327976537E+03  0.61796759543E+03  0.12498641013E+03 0.  0.
          2    1    1    2  501    0  0.42723699078E+02 -0.75548976778E+01 -0.21617661409E+04  0.21622014797E+04  0.00000000000E+00 0. -1.
          1    1    1    2  502    0  0.28746032097E+02  0.10333351645E+03  0.23049448313E+03  0.25422796214E+03  0.00000000000E+00 0. -1.
         22    1    3    3    0    0 -0.94246105099E+02 -0.32106766636E+02 -0.42718683141E+03  0.43863625217E+03  0.00000000000E+00 0.  1.
         22    1    3    3    0    0  0.22776373924E+02 -0.63671852135E+02 -0.16609293397E+03  0.17933134326E+03  0.00000000000E+00 0.  1.
</event>
<event>
 7    1  0.5127424E-006  0.3797164E+02  0.7818608E-02  0.1581324E+00
          2   -1    0    0  502    0  0.00000000000E+00  0.00000000000E+00  0.34032124823E+04  0.34032124823E+04  0.00000000000E+00 0. -1.
          1   -1    0    0  501    0 -0.00000000000E+00 -0.00000000000E+00 -0.73787556313E+02  0.73787556313E+02  0.00000000000E+00 0. -1.
         25    2    1    2    0    0  0.35549682293E+01 -0.63696512820E+02  0.22157259533E+04  0.22201658165E+04  0.12499947606E+03 0.  0.
          2    1    1    2  501    0 -0.54847670434E+01  0.37514812248E+02 -0.66390093781E+02  0.76453177564E+02  0.00000000000E+00 0. -1.
          1    1    1    2  502    0  0.19297988141E+01  0.26181700572E+02  0.11800890664E+04  0.11803810445E+04  0.00000000000E+00 0. -1.
         22    1    3    3    0    0 -0.41321332623E+02 -0.27795102947E+02  0.17762715299E+04  0.17769694899E+04  0.00000000000E+00 0.  1.
         22    1    3    3    0    0  0.44876300853E+02 -0.35901409873E+02  0.43945442346E+03  0.44319632659E+03  0.00000000000E+00 0.  1.
</event>
<event>
 7    1  0.5127424E-006  0.7910973E+02  0.7818608E-02  0.1400495E+00
          2   -1    0    0  502    0  0.00000000000E+00  0.00000000000E+00  0.16895215414E+04  0.16895215414E+04  0.00000000000E+00 0. -1.
          1   -1    0    0  501    0 -0.00000000000E+00 -0.00000000000E+00 -0.55860788796E+02  0.55860788796E+02  0.00000000000E+00 0. -1.
         25    2    1    2    0    0 -0.65315344021E+02 -0.88548568178E+01  0.42200253056E+03  0.44503462427E+03  0.12500071340E+03 0.  0.
          2    1    1    2  501    0  0.32727750297E+01 -0.44435225727E+02 -0.31459361727E+02  0.54542568532E+02  0.00000000000E+00 0. -1.
          1    1    1    2  502    0  0.62042568991E+02  0.53290082545E+02  0.12431175838E+04  0.12458051374E+04  0.00000000000E+00 0. -1.
         22    1    3    3    0    0 -0.69502197690E+02 -0.42911942382E+02  0.14931640428E+03  0.17019805778E+03  0.00000000000E+00 0.  1.
         22    1    3    3    0    0  0.41868536689E+01  0.34057085564E+02  0.27268612628E+03  0.27483656650E+03  0.00000000000E+00 0.  1.
</event>
<event>
 7    1  0.5127424E-006  0.5449929E+02  0.7818608E-02  0.1435563E+00
          2   -1    0    0  502    0  0.00000000000E+00  0.00000000000E+00  0.95730601730E+03  0.95730601730E+03  0.00000000000E+00 0. -1.
          1   -1    0    0  501    0 -0.00000000000E+00 -0.00000000000E+00 -0.23522121124E+02  0.23522121124E+02  0.00000000000E+00 0. -1.
         25    2    1    2    0    0 -0.28577442109E+02  0.70533652253E+01  0.52518018951E+03  0.54065214837E+03  0.12499637566E+03 0.  0.
          2    1    1    2  501    0  0.19449459624E+02 -0.55548989341E+02  0.47269239149E+02  0.75487433830E+02  0.00000000000E+00 0. -1.
          1    1    1    2  502    0  0.91279824843E+01  0.48495624116E+02  0.36133446751E+03  0.36468855622E+03  0.00000000000E+00 0. -1.
         22    1    3    3    0    0  0.46608322022E+02 -0.41668531452E+01  0.12853243180E+03  0.13678554153E+03  0.00000000000E+00 0. -1.
         22    1    3    3    0    0 -0.75185764131E+02  0.11220218370E+02  0.39664775771E+03  0.40386660684E+03  0.00000000000E+00 0. -1.
</event>
<event>
 7    1  0.5127424E-006  0.1160000E+03  0.7818608E-02  0.1313008E+00
          2   -1    0    0  502    0  0.00000000000E+00  0.00000000000E+00  0.17853763797E+04  0.17853763797E+04  0.00000000000E+00 0. -1.
          1   -1    0    0  501    0 -0.00000000000E+00 -0.00000000000E+00 -0.73104698338E+03  0.73104698338E+03  0.00000000000E+00 0. -1.
         25    2    1    2    0    0 -0.14291724545E+03 -0.97057348438E+02 -0.11978111844E+03  0.24457694168E+03  0.12499958453E+03 0.  0.
          2    1    1    2  501    0  0.84341976262E+02  0.72125228633E+02 -0.54266240761E+03  0.55389358743E+03  0.00000000000E+00 0. -1.
          1    1    1    2  502    0  0.58575269185E+02  0.24932119805E+02  0.17167729223E+04  0.17179528339E+04  0.00000000000E+00 0. -1.
         22    1    3    3    0    0 -0.12980794186E+03 -0.98024991908E+02 -0.14385504606E+03  0.21714804877E+03  0.00000000000E+00 0. -1.
         22    1    3    3    0    0 -0.13109303590E+02  0.96764347029E+00  0.24073927628E+02  0.27428892904E+02  0.00000000000E+00 0. -1.
</event>
<event>
 7    1  0.5127424E-006  0.9844545E+02  0.7818608E-02  0.1387846E+00
          2   -1    0    0  502    0  0.00000000000E+00  0.00000000000E+00  0.14959929334E+04  0.14959929334E+04  0.00000000000E+00 0. -1.
          1   -1    0    0  501    0 -0.00000000000E+00 -0.00000000000E+00 -0.11853375936E+04  0.11853375936E+04  0.00000000000E+00 0. -1.
         25    2    1    2    0    0  0.66516068824E+02  0.11771226681E+03  0.15803923689E+02  0.18481024028E+03  0.12499798294E+03 0.  0.
          2    1    1    2  501    0 -0.28193784501E+02 -0.27822602751E+02 -0.10987667212E+04  0.10994804656E+04  0.00000000000E+00 0. -1.
          1    1    1    2  502    0 -0.38322284323E+02 -0.89889664056E+02  0.13936181373E+04  0.13970398211E+04  0.00000000000E+00 0. -1.
         22    1    3    3    0    0 -0.24621164608E+02  0.55191632222E+02 -0.27128087605E+02  0.66243876329E+02  0.00000000000E+00 0. -1.
         22    1    3    3    0    0  0.91137233432E+02  0.62520634585E+02  0.42932011294E+02  0.11856636395E+03  0.00000000000E+00 0. -1.
</event>
<event>
 7    1  0.7179038E-006  0.6016346E+02  0.7818608E-02  0.1445525E+00
          2   -1    0    0  502    0  0.00000000000E+00  0.00000000000E+00  0.96590984450E+03  0.96590984450E+03  0.00000000000E+00 0. -1.
          1   -1    0    0  501    0 -0.00000000000E+00 -0.00000000000E+00 -0.11485179064E+04  0.11485179064E+04  0.00000000000E+00 0. -1.
         25    2    1    2    0    0  0.21418186610E+02 -0.89830379104E+02 -0.36286839527E+03  0.39474985881E+03  0.12500297204E+03 0.  0.
          2    1    1    2  501    0  0.52103408698E+01  0.58003918026E+02 -0.76815284392E+03  0.77035731565E+03  0.00000000000E+00 0. -1.
          1    1    1    2  502    0 -0.26628527480E+02  0.31826461078E+02  0.94841317726E+03  0.94932057646E+03  0.00000000000E+00 0. -1.
         22    1    3    3    0    0  0.13052139933E+02 -0.10505694857E+03 -0.36221012184E+03  0.37736387369E+03  0.00000000000E+00 0.  1.
         22    1    3    3    0    0  0.83660466774E+01  0.15226569470E+02 -0.65827342728E+00  0.17385985124E+02  0.00000000000E+00 0.  1.
</event>
<event>
 7    1  0.5127424E-006  0.1460994E+03  0.7818608E-02  0.1310499E+00
          2   -1    0    0  502    0  0.00000000000E+00  0.00000000000E+00  0.46625581900E+03  0.46625581900E+03  0.00000000000E+00 0. -1.
          1   -1    0    0  501    0 -0.00000000000E+00 -0.00000000000E+00 -0.11725172848E+04  0.11725172848E+04  0.00000000000E+00 0. -1.
         25    2    1    2    0    0  0.15741909612E+03  0.41846682913E+02 -0.14092661080E+03  0.24903216840E+03  0.12499917830E+03 0.  0.
          2    1    1    2  501    0 -0.35516954728E+02  0.37577534531E+02 -0.96398488613E+03  0.96537059509E+03  0.00000000000E+00 0. -1.
          1    1    1    2  502    0 -0.12190214139E+03 -0.79424217444E+02  0.39865003114E+03  0.42437034029E+03  0.00000000000E+00 0. -1.
         22    1    3    3    0    0  0.17727868049E+03  0.37876508427E+02 -0.13947789155E+03  0.22872787910E+03  0.00000000000E+00 0. -1.
         22    1    3    3    0    0 -0.19859584367E+02  0.39701744863E+01 -0.14487192453E+01  0.20304289303E+02  0.00000000000E+00 0. -1.
</event>
<event>
 7    1  0.5127424E-006  0.4797703E+02  0.7818608E-02  0.1522600E+00
          2   -1    0    0  502    0  0.00000000000E+00  0.00000000000E+00  0.13831805968E+04  0.13831805968E+04  0.00000000000E+00 0. -1.
          1   -1    0    0  501    0 -0.00000000000E+00 -0.00000000000E+00 -0.12670522706E+02  0.12670522706E+02  0.00000000000E+00 0. -1.
         25    2    1    2    0    0 -0.11780326479E+02  0.35365429718E+02  0.50113934420E+03  0.51783366113E+03  0.12498627360E+03 0.  0.
          2    1    1    2  501    0  0.27993094467E+02  0.11523059601E+02  0.60734218805E+02  0.67860441895E+02  0.00000000000E+00 0. -1.
          1    1    1    2  502    0 -0.16212767988E+02 -0.46888489319E+02  0.80863651105E+03  0.81015701644E+03  0.00000000000E+00 0. -1.
         22    1    3    3    0    0 -0.39247865542E+02 -0.17025693305E+02  0.65743868401E+02  0.78438035509E+02  0.00000000000E+00 0.  1.
         22    1    3    3    0    0  0.27467539063E+02  0.52391123023E+02  0.43539547580E+03  0.43939562563E+03  0.00000000000E+00 0.  1.
</event>
<event>
 7    1  0.5127424E-006  0.1277435E+03  0.7818608E-02  0.1432807E+00
          2   -1    0    0  502    0  0.00000000000E+00  0.00000000000E+00  0.75959058014E+03  0.75959058014E+03  0.00000000000E+00 0. -1.
          1   -1    0    0  501    0 -0.00000000000E+00 -0.00000000000E+00 -0.42544333915E+03  0.42544333915E+03  0.00000000000E+00 0. -1.
         25    2    1    2    0    0  0.86110006736E+02 -0.98150806478E+02  0.43959628492E+03  0.47530967134E+03  0.12500350348E+03 0.  0.
          2    1    1    2  501    0 -0.67298494103E+02  0.10855063889E+03 -0.39717608657E+03  0.41720639048E+03  0.00000000000E+00 0. -1.
          1    1    1    2  502    0 -0.18811512633E+02 -0.10399832416E+02  0.29172704265E+03  0.29251785746E+03  0.00000000000E+00 0. -1.
         22    1    3    3    0    0  0.10668535015E+03 -0.88657923687E+02  0.42787315949E+03  0.44979710091E+03  0.00000000000E+00 0. -1.
         22    1    3    3    0    0 -0.20575343416E+02 -0.94928827913E+01  0.11723125426E+02  0.25512570433E+02  0.00000000000E+00 0. -1.
</event>
<event>
 7    1  0.5127424E-006  0.7882574E+02  0.7818608E-02  0.1384452E+00
          2   -1    0    0  502    0  0.00000000000E+00  0.00000000000E+00  0.26457156314E+04  0.26457156314E+04  0.00000000000E+00 0. -1.
          1   -1    0    0  501    0 -0.00000000000E+00 -0.00000000000E+00 -0.36350637673E+04  0.36350637673E+04  0.00000000000E+00 0. -1.
         25    2    1    2    0    0 -0.37674490363E+02 -0.10849610292E+02 -0.61989310755E+03  0.63358388752E+03  0.12499598579E+03 0.  0.
          2    1    1    2  501    0 -0.37676702921E+02  0.34141693105E+02 -0.30075210454E+04  0.30079508021E+04  0.00000000000E+00 0. -1.
          1    1    1    2  502    0  0.75351193284E+02 -0.23292082813E+02  0.26380660171E+04  0.26392447090E+04  0.00000000000E+00 0. -1.
         22    1    3    3    0    0 -0.55597745087E+02 -0.52477816074E+02 -0.26498444975E+03  0.27579301849E+03  0.00000000000E+00 0.  1.
         22    1    3    3    0    0  0.17923254725E+02  0.41628205782E+02 -0.35490865781E+03  0.35779086903E+03  0.00000000000E+00 0.  1.
</event>
<event>
 7    1  0.5127424E-006  0.2219340E+03  0.7818608E-02  0.1193249E+00
          2   -1    0    0  502    0  0.00000000000E+00  0.00000000000E+00  0.18939636968E+04  0.18939636968E+04  0.00000000000E+00 0. -1.
          1   -1    0    0  501    0 -0.00000000000E+00 -0.00000000000E+00 -0.39000027358E+03  0.39000027358E+03  0.00000000000E+00 0. -1.
         25    2    1    2    0    0  0.20473967014E+03 -0.65985396630E+02  0.14754564437E+03  0.28925496790E+03  0.12500525663E+03 0.  0.
          2    1    1    2  501    0  0.16482568932E+02  0.10845646543E+03 -0.30187313494E+03  0.32118821518E+03  0.00000000000E+00 0. -1.
          1    1    1    2  502    0 -0.22122223907E+03 -0.42471068802E+02  0.16582909138E+04  0.16735207873E+04  0.00000000000E+00 0. -1.
         22    1    3    3    0    0  0.73767996126E+02  0.31385573785E+02  0.78006342641E+02  0.11185598324E+03  0.00000000000E+00 0. -1.
         22    1    3    3    0    0  0.13097167401E+03 -0.97370970414E+02  0.69539301731E+02  0.17739898466E+03  0.00000000000E+00 0. -1.
</event>
<event>
 7    1  0.8171475E-006  0.1010137E+03  0.7818608E-02  0.1438711E+00
          2   -1    0    0  502    0  0.00000000000E+00  0.00000000000E+00  0.26060933809E+04  0.26060933809E+04  0.00000000000E+00 0. -1.
          1   -1    0    0  501    0 -0.00000000000E+00 -0.00000000000E+00 -0.18172643871E+04  0.18172643871E+04  0.00000000000E+00 0. -1.
         25    2    1    2    0    0  0.77912238434E+02  0.20032695198E+01 -0.76487395615E+03  0.77892943956E+03  0.12499829210E+03 0.  0.
          2    1    1    2  501    0  0.21837744306E+02  0.14115440369E+02 -0.10442187065E+04  0.10445424069E+04  0.00000000000E+00 0. -1.
          1    1    1    2  502    0 -0.99749982741E+02 -0.16118709889E+02  0.25979216565E+04  0.25998859216E+04  0.00000000000E+00 0. -1.
         22    1    3    3    0    0 -0.75798522206E+01 -0.47120854060E+02 -0.29328767400E+03  0.29714556832E+03  0.00000000000E+00 0. -1.
         22    1    3    3    0    0  0.85492090655E+02  0.49124123580E+02 -0.47158628214E+03  0.48178387124E+03  0.00000000000E+00 0. -1.
</event>
<event>
 7    1  0.5127424E-006  0.7451015E+02  0.7818608E-02  0.1415251E+00
          2   -1    0    0  502    0  0.00000000000E+00  0.00000000000E+00  0.12182048598E+04  0.12182048598E+04  0.00000000000E+00 0. -1.
          1   -1    0    0  501    0 -0.00000000000E+00 -0.00000000000E+00 -0.34479632135E+03  0.34479632135E+03  0.00000000000E+00 0. -1.
         25    2    1    2    0    0  0.90148839759E+01  0.31712194506E+02 -0.14900814192E+03  0.19727111653E+03  0.12500214257E+03 0.  0.
          2    1    1    2  501    0  0.38045560248E+01  0.41973991807E+02 -0.16787813976E+03  0.17308772471E+03  0.00000000000E+00 0. -1.
          1    1    1    2  502    0 -0.12819440001E+02 -0.73686186313E+02  0.11902948202E+04  0.11926423399E+04  0.00000000000E+00 0. -1.
         22    1    3    3    0    0 -0.50066006606E+02 -0.16811671817E+02 -0.62093743990E+02  0.81516074301E+02  0.00000000000E+00 0. -1.
         22    1    3    3    0    0  0.59080890582E+02  0.48523866323E+02 -0.86914397930E+02  0.11575504223E+03  0.00000000000E+00 0. -1.
</event>
<event>
 7    1  0.5127424E-006  0.1751492E+03  0.7818608E-02  0.1304043E+00
          2   -1    0    0  502    0  0.00000000000E+00  0.00000000000E+00  0.60266296300E+03  0.60266296300E+03  0.00000000000E+00 0. -1.
          1   -1    0    0  501    0 -0.00000000000E+00 -0.00000000000E+00 -0.41598246462E+03  0.41598246462E+03  0.00000000000E+00 0. -1.
         25    2    1    2    0    0 -0.89707010104E+02  0.16829135008E+03  0.13398479328E+03  0.26447429491E+03  0.12500160663E+03 0.  0.
          2    1    1    2  501    0  0.45692636227E+02 -0.21684299338E+01 -0.33079035405E+03  0.33393828386E+03  0.00000000000E+00 0. -1.
          1    1    1    2  502    0  0.44014373877E+02 -0.16612292015E+03  0.38348605915E+03  0.42023284886E+03  0.00000000000E+00 0. -1.
         22    1    3    3    0    0 -0.46909965853E+02 -0.28003426390E+01  0.51680507502E+02  0.69851712011E+02  0.00000000000E+00 0. -1.
         22    1    3    3    0    0 -0.42797044251E+02  0.17109169272E+03  0.82304285782E+02  0.19462258290E+03  0.00000000000E+00 0. -1.
</event>
<event>
 7    1  0.5127424E-006  0.1173801E+03  0.7818608E-02  0.1358456E+00
          2   -1    0    0  502    0  0.00000000000E+00  0.00000000000E+00  0.22867622761E+03  0.22867622761E+03  0.00000000000E+00 0. -1.
          1   -1    0    0  501    0 -0.00000000000E+00 -0.00000000000E+00 -0.49090616240E+03  0.49090616240E+03  0.00000000000E+00 0. -1.
         25    2    1    2    0    0  0.13674265073E+02 -0.81015467433E+02 -0.19989905496E+03  0.24967128165E+03  0.12500250085E+03 0.  0.
          2    1    1    2  501    0  0.27824567749E+02 -0.31891834198E+02 -0.24640686051E+03  0.25001527267E+03  0.00000000000E+00 0. -1.
          1    1    1    2  502    0 -0.41498832822E+02  0.11290730163E+03  0.18407598068E+03  0.21989583568E+03  0.00000000000E+00 0. -1.
         22    1    3    3    0    0 -0.36597796249E+02 -0.83649983375E+02 -0.16446422001E+03  0.18810953743E+03  0.00000000000E+00 0.  1.
         22    1    3    3    0    0  0.50272061322E+02  0.26345159420E+01 -0.35434834951E+02  0.61561744223E+02  0.00000000000E+00 0.  1.
</event>
<event>
 7    1  0.5127424E-006  0.1088466E+03  0.7818608E-02  0.1382713E+00
          2   -1    0    0  502    0  0.00000000000E+00  0.00000000000E+00  0.19517886141E+03  0.19517886141E+03  0.00000000000E+00 0. -1.
          1   -1    0    0  501    0 -0.00000000000E+00 -0.00000000000E+00 -0.31092704147E+03  0.31092704147E+03  0.00000000000E+00 0. -1.
         25    2    1    2    0    0 -0.31852665372E+02  0.10196697291E+03  0.51074340362E+02  0.17218545125E+03  0.12500954173E+03 0.  0.
          2    1    1    2  501    0  0.66251703119E+02 -0.87430423874E+02 -0.23322628244E+03  0.25773603940E+03  0.00000000000E+00 0. -1.
          1    1    1    2  502    0 -0.34399037746E+02 -0.14536549034E+02  0.66403762018E+02  0.76184412223E+02  0.00000000000E+00 0. -1.
         22    1    3    3    0    0 -0.34184300794E+02 -0.14337598771E+02  0.41226405526E+02  0.55441407557E+02  0.00000000000E+00 0. -1.
         22    1    3    3    0    0  0.23316354220E+01  0.11630457168E+03  0.98479348362E+01  0.11674404369E+03  0.00000000000E+00 0. -1.
</event>
<event>
 7    1  0.5127424E-006  0.4652440E+02  0.7818608E-02  0.1539448E+00
          2   -1    0    0  502    0  0.00000000000E+00  0.00000000000E+00  0.21346937159E+04  0.21346937159E+04  0.00000000000E+00 0. -1.
          1   -1    0    0  501    0 -0.00000000000E+00 -0.00000000000E+00 -0.73761327128E+02  0.73761327128E+02  0.00000000000E+00 0. -1.
         25    2    1    2    0    0  0.98653593122E+01  0.73052714133E+02  0.33330897991E+03  0.36353173842E+03  0.12500569745E+03 0.  0.
          2    1    1    2  501    0 -0.73974563659E+01 -0.45224212961E+02 -0.49572161926E+02  0.67508155334E+02  0.00000000000E+00 0. -1.
          1    1    1    2  502    0 -0.24679029464E+01 -0.27828501172E+02  0.17771955708E+04  0.17774151493E+04  0.00000000000E+00 0. -1.
         22    1    3    3    0    0  0.20497924481E+01  0.36365758470E+02  0.96143948239E+01  0.37671031656E+02  0.00000000000E+00 0. -1.
         22    1    3    3    0    0  0.78155668642E+01  0.36686955663E+02  0.32369458508E+03  0.32586070677E+03  0.00000000000E+00 0. -1.
</event>
<event>
 7    1  0.5127424E-006  0.6036024E+02  0.7818608E-02  0.1455164E+00
          2   -1    0    0  502    0  0.00000000000E+00  0.00000000000E+00  0.21592354456E+03  0.21592354456E+03  0.00000000000E+00 0. -1.
          1   -1    0    0  501    0 -0.00000000000E+00 -0.00000000000E+00 -0.14885039314E+03  0.14885039314E+03  0.00000000000E+00 0. -1.
         25    2    1    2    0    0  0.36139774700E+02 -0.89984614613E+02 -0.54367251385E+02  0.16728406022E+03  0.12499937839E+03 0.  0.
          2    1    1    2  501    0 -0.15002383844E+02  0.35486780014E+02 -0.20745195423E+02  0.43757813130E+02  0.00000000000E+00 0. -1.
          1    1    1    2  502    0 -0.21137390856E+02  0.54497834599E+02  0.14218559822E+03  0.15373206435E+03  0.00000000000E+00 0. -1.
         22    1    3    3    0    0 -0.35671048404E+02 -0.50078049990E+01 -0.42018741624E+02  0.55345067104E+02  0.00000000000E+00 0.  1.
         22    1    3    3    0    0  0.71810823103E+02 -0.84976809614E+02 -0.12348509761E+02  0.11193899312E+03  0.00000000000E+00 0.  1.
</event>
<event>
 7    1  0.5127424E-006  0.3541677E+02  0.7818608E-02  0.1563007E+00
          2   -1    0    0  502    0  0.00000000000E+00  0.00000000000E+00  0.12032870904E+04  0.12032870904E+04  0.00000000000E+00 0. -1.
          1   -1    0    0  501    0 -0.00000000000E+00 -0.00000000000E+00 -0.54374322511E+03  0.54374322511E+03  0.00000000000E+00 0. -1.
         25    2    1    2    0    0  0.30238724060E+02  0.20772922774E+02  0.16938777320E+03  0.21368969047E+03  0.12500068540E+03 0.  0.
          2    1    1    2  501    0 -0.22719011778E+01 -0.35383922304E+02 -0.52074324941E+03  0.52194895852E+03  0.00000000000E+00 0. -1.
          1    1    1    2  502    0 -0.27966822882E+02  0.14610999530E+02  0.10108993415E+04  0.10113916666E+04  0.00000000000E+00 0. -1.
         22    1    3    3    0    0  0.91750124908E+01  0.16440507784E+02  0.18572891949E+03  0.18668075071E+03  0.00000000000E+00 0. -1.
         22    1    3    3    0    0  0.21063711569E+02  0.43324149901E+01 -0.16341146292E+02  0.27008939758E+02  0.00000000000E+00 0. -1.
</event>
<event>
 7    1  0.5127424E-006  0.1086075E+03  0.7818608E-02  0.1299228E+00
          2   -1    0    0  502    0  0.00000000000E+00  0.00000000000E+00  0.71948921258E+03  0.71948921258E+03  0.00000000000E+00 0. -1.
          1   -1    0    0  501    0 -0.00000000000E+00 -0.00000000000E+00 -0.16848272745E+04  0.16848272745E+04  0.00000000000E+00 0. -1.
         25    2    1    2    0    0 -0.73861869925E+02 -0.15026565312E+03 -0.61726350084E+03  0.65167014107E+03  0.12499760378E+03 0.  0.
          2    1    1    2  501    0  0.15416671674E+02  0.99965713073E+02 -0.10457964341E+04  0.10506764484E+04  0.00000000000E+00 0. -1.
          1    1    1    2  502    0  0.58445198251E+02  0.50299940044E+02  0.69772187300E+03  0.70196989767E+03  0.00000000000E+00 0. -1.
         22    1    3    3    0    0 -0.51800578345E+02 -0.74465680904E+02 -0.51264000015E+03  0.52060369506E+03  0.00000000000E+00 0.  1.
         22    1    3    3    0    0 -0.22061291580E+02 -0.75799972213E+02 -0.10462350069E+03  0.13106644601E+03  0.00000000000E+00 0.  1.
</event>
<event>
 7    1  0.5127424E-006  0.2146909E+03  0.7818608E-02  0.1256424E+00
          2   -1    0    0  502    0  0.00000000000E+00  0.00000000000E+00  0.36591364715E+04  0.36591364715E+04  0.00000000000E+00 0. -1.
          1   -1    0    0  501    0 -0.00000000000E+00 -0.00000000000E+00 -0.67796972677E+03  0.67796972677E+03  0.00000000000E+00 0. -1.
         25    2    1    2    0    0 -0.76554227120E+02  0.23560611543E+03  0.37747011106E+02  0.28003912083E+03  0.12500512401E+03 0.  0.
          2    1    1    2  501    0  0.23857347087E+02 -0.20972429733E+03 -0.53656377817E+03  0.57658836438E+03  0.00000000000E+00 0. -1.
          1    1    1    2  502    0  0.52696880033E+02 -0.25881818105E+02  0.34799835117E+04  0.34804787130E+04  0.00000000000E+00 0. -1.
         22    1    3    3    0    0 -0.13410542539E+01  0.18899164328E+03  0.25853506220E+02  0.19075650301E+03  0.00000000000E+00 0. -1.
         22    1    3    3    0    0 -0.75213172866E+02  0.46614472150E+02  0.11893504886E+02  0.89282617820E+02  0.00000000000E+00 0. -1.
</event>
<event>
 7    1  0.5127424E-006  0.1493546E+03  0.7818608E-02  0.1307000E+00
          2   -1    0    0  502    0  0.00000000000E+00  0.00000000000E+00  0.23620727874E+02  0.23620727874E+02  0.00000000000E+00 0. -1.
          1   -1    0    0  501    0 -0.00000000000E+00 -0.00000000000E+00 -0.23349306383E+04  0.23349306383E+04  0.00000000000E+00 0. -1.
         25    2    1    2    0    0  0.37766086601E+01  0.12819534791E+03 -0.67633181661E+03  0.69964083629E+03  0.12499705459E+03 0.  0.
          2    1    1    2  501    0 -0.33820532497E+02  0.39780747619E+02 -0.10012447248E+04  0.10026052739E+04  0.00000000000E+00 0. -1.
          1    1    1    2  502    0  0.30043923837E+02 -0.16797609553E+03 -0.63373336902E+03  0.65630525598E+03  0.00000000000E+00 0. -1.
         22    1    3    3    0    0  0.40421991463E+01 -0.24737449598E+02 -0.71210130777E+02  0.75492804371E+02  0.00000000000E+00 0. -1.
         22    1    3    3    0    0 -0.26559048629E+00  0.15293279750E+03 -0.60512168583E+03  0.62414803192E+03  0.00000000000E+00 0. -1.
</event>
<event>
 7    1  0.5127424E-006  0.4936285E+02  0.7818608E-02  0.1518549E+00
          2   -1    0    0  502    0  0.00000000000E+00  0.00000000000E+00  0.23104831846E+04  0.23104831846E+04  0.00000000000E+00 0. -1.
          1   -1    0    0  501    0 -0.00000000000E+00 -0.00000000000E+00 -0.71265994434E+03  0.71265994434E+03  0.00000000000E+00 0. -1.
         25    2    1    2    0    0  0.42060815892E+02  0.11565406554E+02  0.85759021476E+02  0.15775333751E+03  0.12501453862E+03 0.  0.
          2    1    1    2  501    0 -0.45915142507E+02  0.18417199667E+02 -0.67565401183E+03  0.67746272020E+03  0.00000000000E+00 0. -1.
          1    1    1    2  502    0  0.38543266146E+01 -0.29982606221E+02  0.21877182306E+04  0.21879270712E+04  0.00000000000E+00 0. -1.
         22    1    3    3    0    0  0.70205374592E+02  0.37829968143E+02  0.88535665447E+02  0.11915731269E+03  0.00000000000E+00 0.  1.
         22    1    3    3    0    0 -0.28144558700E+02 -0.26264561590E+02 -0.27766439701E+01  0.38596024816E+02  0.00000000000E+00 0.  1.
</event>
<event>
 7    1  0.5127424E-006  0.1238762E+03  0.7818608E-02  0.1309695E+00
          2   -1    0    0  502    0  0.00000000000E+00  0.00000000000E+00  0.46683648806E+03  0.46683648806E+03  0.00000000000E+00 0. -1.
          1   -1    0    0  501    0 -0.00000000000E+00 -0.00000000000E+00 -0.15919255708E+03  0.15919255708E+03  0.00000000000E+00 0. -1.
         25    2    1    2    0    0  0.33823019496E+02  0.12221440455E+03  0.17320923141E+03  0.24840909273E+03  0.12500112871E+03 0.  0.
          2    1    1    2  501    0 -0.61398367487E+02  0.19194105031E+01 -0.96266093857E+02  0.11419546617E+03  0.00000000000E+00 0. -1.
          1    1    1    2  502    0  0.27575347992E+02 -0.12413381506E+03  0.23070079344E+03  0.26342448624E+03  0.00000000000E+00 0. -1.
         22    1    3    3    0    0  0.72702259949E+02  0.35272248736E+02  0.98233680497E+02  0.12719908064E+03  0.00000000000E+00 0. -1.
         22    1    3    3    0    0 -0.38879240453E+02  0.86942155819E+02  0.74975550911E+02  0.12121001209E+03  0.00000000000E+00 0. -1.
</event>
<event>
 7    1  0.5127424E-006  0.2880598E+03  0.7818608E-02  0.1235210E+00
          2   -1    0    0  502    0  0.00000000000E+00  0.00000000000E+00  0.15744380496E+04  0.15744380496E+04  0.00000000000E+00 0. -1.
          1   -1    0    0  501    0 -0.00000000000E+00 -0.00000000000E+00 -0.10308569542E+04  0.10308569542E+04  0.00000000000E+00 0. -1.
         25    2    1    2    0    0 -0.41419124803E+02 -0.24764000128E+03 -0.23147222436E+02  0.28142880997E+03  0.12500106816E+03 0.  0.
          2    1    1    2  501    0  0.15234119333E+02  0.29505383555E+03 -0.85319963285E+03  0.90290556414E+03  0.00000000000E+00 0. -1.
          1    1    1    2  502    0  0.26185005470E+02 -0.47413834272E+02  0.14199279507E+04  0.14209606298E+04  0.00000000000E+00 0. -1.
         22    1    3    3    0    0 -0.71259765216E+02 -0.10898070054E+03 -0.45320724276E+02  0.13787209753E+03  0.00000000000E+00 0. -1.
         22    1    3    3    0    0  0.29840640413E+02 -0.13865930074E+03  0.22173501840E+02  0.14355671243E+03  0.00000000000E+00 0. -1.
</event>
<event>
 7    1  0.5127424E-006  0.4269569E+02  0.7818608E-02  0.1503459E+00
          2   -1    0    0  502    0  0.00000000000E+00  0.00000000000E+00  0.27617024193E+03  0.27617024193E+03  0.00000000000E+00 0. -1.
          1   -1    0    0  501    0 -0.00000000000E+00 -0.00000000000E+00 -0.54171835194E+03  0.54171835194E+03  0.00000000000E+00 0. -1.
         25    2    1    2    0    0 -0.64466359248E+02 -0.23534787335E+02 -0.25039037151E+03  0.28814948139E+03  0.12499995117E+03 0.  0.
          2    1    1    2  501    0  0.37535502210E+02 -0.94568678598E+01 -0.26929267920E+03  0.27206045900E+03  0.00000000000E+00 0. -1.
          1    1    1    2  502    0  0.26930857038E+02  0.32991655194E+02  0.25413494071E+03  0.25767865348E+03  0.00000000000E+00 0. -1.
         22    1    3    3    0    0 -0.90507094382E+02 -0.38762601221E+02 -0.23388218283E+03  0.25376159842E+03  0.00000000000E+00 0. -1.
         22    1    3    3    0    0  0.26040735134E+02  0.15227813887E+02 -0.16508188679E+02  0.34387882976E+02  0.00000000000E+00 0. -1.
</event>
<event>
 7    1  0.5127424E-006  0.4783480E+02  0.7818608E-02  0.1533096E+00
          2   -1    0    0  502    0  0.00000000000E+00  0.00000000000E+00  0.53078161300E+02  0.53078161300E+02  0.00000000000E+00 0. -1.
          1   -1    0    0  501    0 -0.00000000000E+00 -0.00000000000E+00 -0.38480863658E+03  0.38480863658E+03  0.00000000000E+00 0. -1.
         25    2    1    2    0    0 -0.18833174133E+02  0.15004798955E+02 -0.16132976369E+03  0.20550594245E+03  0.12500226914E+03 0.  0.
          2    1    1    2  501    0  0.45744675178E+02 -0.23841472851E+02 -0.19068656282E+03  0.19754077142E+03  0.00000000000E+00 0. -1.
          1    1    1    2  502    0 -0.26911501045E+02  0.88366738966E+01  0.20285851224E+02  0.34840084012E+02  0.00000000000E+00 0. -1.
         22    1    3    3    0    0 -0.97464245229E+01 -0.24574167916E+02 -0.16273955330E+03  0.16487281380E+03  0.00000000000E+00 0.  1.
         22    1    3    3    0    0 -0.90867496096E+01  0.39578966871E+02  0.14097896183E+01  0.40633128649E+02  0.00000000000E+00 0.  1.
</event>
<event>
 7    1  0.5127424E-006  0.1126783E+03  0.7818608E-02  0.1357461E+00
          2   -1    0    0  502    0  0.00000000000E+00  0.00000000000E+00  0.10840575021E+04  0.10840575021E+04  0.00000000000E+00 0. -1.
          1   -1    0    0  501    0 -0.00000000000E+00 -0.00000000000E+00 -0.13112690098E+03  0.13112690098E+03  0.00000000000E+00 0. -1.
         25    2    1    2    0    0 -0.71880862712E+02 -0.11231705545E+03  0.80109908979E+02  0.19956152369E+03  0.12500089940E+03 0.  0.
          2    1    1    2  501    0  0.82817576362E+02  0.69222379065E+02 -0.29746442192E+02  0.11196133056E+03  0.00000000000E+00 0. -1.
          1    1    1    2  502    0 -0.10936713650E+02  0.43094676385E+02  0.90256713434E+03  0.90366154883E+03  0.00000000000E+00 0. -1.
         22    1    3    3    0    0  0.29030603765E+02 -0.52251103725E+02  0.46128952383E+01  0.59951919051E+02  0.00000000000E+00 0. -1.
         22    1    3    3    0    0 -0.10091146648E+03 -0.60065951725E+02  0.75497013741E+02  0.13960960464E+03  0.00000000000E+00 0. -1.
</event>
<event>
 7    1  0.5127424E-006  0.3234842E+02  0.7818608E-02  0.1575720E+00
          2   -1    0    0  502    0  0.00000000000E+00  0.00000000000E+00  0.11199397317E+04  0.11199397317E+04  0.00000000000E+00 0. -1.
          1   -1    0    0  501    0 -0.00000000000E+00 -0.00000000000E+00 -0.11896514672E+04  0.11896514672E+04  0.00000000000E+00 0. -1.
         25    2    1    2    0    0  0.31389789254E+02  0.23775568518E+02 -0.49210090035E+03  0.50925342623E+03  0.12500063793E+03 0.  0.
          2    1    1    2  501    0 -0.30730771156E+02  0.85698675503E+01 -0.68836932855E+03  0.68910823200E+03  0.00000000000E+00 0. -1.
          1    1    1    2  502    0 -0.65901809738E+00 -0.32345436069E+02  0.11107584934E+04  0.11112295407E+04  0.00000000000E+00 0. -1.
         22    1    3    3    0    0 -0.37619055763E+02  0.41492125241E+02 -0.27874685708E+03  0.28431778022E+03  0.00000000000E+00 0.  1.
         22    1    3    3    0    0  0.69008845016E+02 -0.17716556723E+02 -0.21335404326E+03  0.22493564602E+03  0.00000000000E+00 0.  1.
</event>
<event>
 7    1  0.5127424E-006  0.7963909E+02  0.7818608E-02  0.1424450E+00
          2   -1    0    0  502    0  0.00000000000E+00  0.00000000000E+00  0.10687058515E+04  0.10687058515E+04  0.00000000000E+00 0. -1.
          1   -1    0    0  501    0 -0.00000000000E+00 -0.00000000000E+00 -0.40456151125E+03  0.40456151125E+03  0.00000000000E+00 0. -1.
         25    2    1    2    0    0 -0.25892426686E+02 -0.11290867306E+03  0.36138027346E+03  0.39954906305E+03  0.12499986212E+03 0.  0.
          2    1    1    2  501    0  0.15028761546E+02  0.77813730874E+02 -0.38090529367E+03  0.38906256969E+03  0.00000000000E+00 0. -1.
          1    1    1    2  502    0  0.10863665140E+02  0.35094942182E+02  0.68366936043E+03  0.68465572997E+03  0.00000000000E+00 0. -1.
         22    1    3    3    0    0 -0.44639770908E+02 -0.13455927557E+03  0.29883214299E+03  0.33075603921E+03  0.00000000000E+00 0. -1.
         22    1    3    3    0    0  0.18747344222E+02  0.21650602515E+02  0.62548130463E+02  0.68793023840E+02  0.00000000000E+00 0. -1.
</event>
<event>
 7    1  0.5127424E-006  0.1180926E+03  0.7818608E-02  0.1367758E+00
          2   -1    0    0  502    0  0.00000000000E+00  0.00000000000E+00  0.52969107939E+03  0.52969107939E+03  0.00000000000E+00 0. -1.
          1   -1    0    0  501    0 -0.00000000000E+00 -0.00000000000E+00 -0.29022227436E+03  0.29022227436E+03  0.00000000000E+00 0. -1.
         25    2    1    2    0    0 -0.11653280780E+03  0.99296108377E+02  0.17926870675E+03  0.26683647501E+03  0.12499929096E+03 0.  0.
          2    1    1    2  501    0  0.94518969603E+02 -0.67200972177E+02 -0.23142949683E+03  0.25886177446E+03  0.00000000000E+00 0. -1.
          1    1    1    2  502    0  0.22013838200E+02 -0.32095136200E+02  0.29162959511E+03  0.29421510428E+03  0.00000000000E+00 0. -1.
         22    1    3    3    0    0  0.19490900561E+02  0.21948403225E+01 -0.26623314430E+01  0.19793952042E+02  0.00000000000E+00 0. -1.
         22    1    3    3    0    0 -0.13602370836E+03  0.97101268054E+02  0.18193103819E+03  0.24704252296E+03  0.00000000000E+00 0. -1.
</event>
<event>
 7    1  0.5127424E-006  0.8379354E+02  0.7818608E-02  0.1357718E+00
          2   -1    0    0  502    0  0.00000000000E+00  0.00000000000E+00  0.81546471401E+03  0.81546471401E+03  0.00000000000E+00 0. -1.
          1   -1    0    0  501    0 -0.00000000000E+00 -0.00000000000E+00 -0.18429693271E+03  0.18429693271E+03  0.00000000000E+00 0. -1.
         25    2    1    2    0    0 -0.64029470058E+02  0.32971759296E+02  0.33134211260E+03  0.36138118826E+03  0.12498743015E+03 0.  0.
          2    1    1    2  501    0 -0.25147375112E+02 -0.54098607678E+02 -0.15934853857E+03  0.17014995319E+03  0.00000000000E+00 0. -1.
          1    1    1    2  502    0  0.89176845170E+02  0.21126848382E+02  0.45917420727E+03  0.46823050526E+03  0.00000000000E+00 0. -1.
         22    1    3    3    0    0  0.20258811009E+02  0.42625081465E+02  0.55841978758E+02  0.73113908287E+02  0.00000000000E+00 0. -1.
         22    1    3    3    0    0 -0.84288281067E+02 -0.96533221684E+01  0.27550013384E+03  0.28826727997E+03  0.00000000000E+00 0. -1.
</event>
<event>
 7    1  0.6993475E-006  0.5361067E+02  0.7818608E-02  0.1561526E+00
          2   -1    0    0  502    0  0.00000000000E+00  0.00000000000E+00  0.20006495931E+04  0.20006495931E+04  0.00000000000E+00 0. -1.
          1   -1    0    0  501    0 -0.00000000000E+00 -0.00000000000E+00 -0.11187884947E+04  0.11187884947E+04  0.00000000000E+00 0. -1.
         25    2    1    2    0    0 -0.33574796357E+02  0.22853504520E+02 -0.23403391696E+03  0.26841466180E+03  0.12500002704E+03 0.  0.
          2    1    1    2  501    0  0.25387135489E+01  0.20887443049E+02 -0.86707398799E+03  0.86732925178E+03  0.00000000000E+00 0. -1.
          1    1    1    2  502    0  0.31036082808E+02 -0.43740947569E+02  0.19829690034E+04  0.19836941743E+04  0.00000000000E+00 0. -1.
         22    1    3    3    0    0  0.31102429662E+02  0.34704680286E+02 -0.33548905612E+02  0.57422164992E+02  0.00000000000E+00 0.  1.
         22    1    3    3    0    0 -0.64677226019E+02 -0.11851175766E+02 -0.20048501135E+03  0.21099249680E+03  0.00000000000E+00 0.  1.
</event>
<event>
 7    1  0.5127424E-006  0.1295292E+03  0.7818608E-02  0.1253523E+00
          2   -1    0    0  502    0  0.00000000000E+00  0.00000000000E+00  0.23133919197E+04  0.23133919197E+04  0.00000000000E+00 0. -1.
          1   -1    0    0  501    0 -0.00000000000E+00 -0.00000000000E+00 -0.31199270687E+03  0.31199270687E+03  0.00000000000E+00 0. -1.
         25    2    1    2    0    0  0.16173601683E+03  0.14094061090E+03  0.10536309315E+04  0.10824896894E+04  0.12499197132E+03 0.  0.
          2    1    1    2  501    0 -0.11808065848E+03 -0.50809357332E+02 -0.28154811418E+03  0.30950601496E+03  0.00000000000E+00 0. -1.
          1    1    1    2  502    0 -0.43655358345E+02 -0.90131253567E+02  0.12293163956E+04  0.12333889223E+04  0.00000000000E+00 0. -1.
         22    1    3    3    0    0  0.13426661604E+03  0.16395823547E+03  0.92450618631E+03  0.94848379833E+03  0.00000000000E+00 0.  1.
         22    1    3    3    0    0  0.27469400792E+02 -0.23017624574E+02  0.12912474515E+03  0.13400589103E+03  0.00000000000E+00 0.  1.
</event>
<event>
 7    1  0.5127424E-006  0.9725112E+02  0.7818608E-02  0.1311649E+00
          2   -1    0    0  502    0  0.00000000000E+00  0.00000000000E+00  0.54813850928E+03  0.54813850928E+03  0.00000000000E+00 0. -1.
          1   -1    0    0  501    0 -0.00000000000E+00 -0.00000000000E+00 -0.18213797514E+04  0.18213797514E+04  0.00000000000E+00 0. -1.
         25    2    1    2    0    0  0.21105487824E+02 -0.11143482102E+03 -0.93193753335E+03  0.94709847261E+03  0.12499915921E+03 0.  0.
          2    1    1    2  501    0 -0.78488675441E+02  0.60282158628E+02 -0.87632926702E+03  0.88189987814E+03  0.00000000000E+00 0. -1.
          1    1    1    2  502    0  0.57383187618E+02  0.51152662389E+02  0.53502555824E+03  0.54051990995E+03  0.00000000000E+00 0. -1.
         22    1    3    3    0    0  0.21061412341E+01 -0.10501237303E+03 -0.36514400105E+03  0.37995022809E+03  0.00000000000E+00 0.  1.
         22    1    3    3    0    0  0.18999346590E+02 -0.64224479866E+01 -0.56679353230E+03  0.56714824453E+03  0.00000000000E+00 0.  1.
</event>
<event>
 7    1  0.5127424E-006  0.1368524E+03  0.7818608E-02  0.1376967E+00
          2   -1    0    0  502    0  0.00000000000E+00  0.00000000000E+00  0.42762475571E+03  0.42762475571E+03  0.00000000000E+00 0. -1.
          1   -1    0    0  501    0 -0.00000000000E+00 -0.00000000000E+00 -0.77430707376E+03  0.77430707376E+03  0.00000000000E+00 0. -1.
         25    2    1    2    0    0 -0.24273936232E+02  0.15396793585E+03 -0.64370448179E+01  0.19990591163E+03  0.12500235482E+03 0.  0.
          2    1    1    2  501    0 -0.17172396183E+02 -0.25962180602E+02 -0.65707420524E+03  0.65781109538E+03  0.00000000000E+00 0. -1.
          1    1    1    2  502    0  0.41446332415E+02 -0.12800575525E+03  0.31682893200E+03  0.34421482246E+03  0.00000000000E+00 0. -1.
         22    1    3    3    0    0  0.27551572681E+02  0.11429315021E+03 -0.42891837239E+02  0.12514680596E+03  0.00000000000E+00 0.  1.
         22    1    3    3    0    0 -0.51825508913E+02  0.39674785641E+02  0.36454792421E+02  0.74759105667E+02  0.00000000000E+00 0.  1.
</event>
<event>
 7    1  0.5127424E-006  0.9962845E+02  0.7818608E-02  0.1340810E+00
          2   -1    0    0  502    0  0.00000000000E+00  0.00000000000E+00  0.21788485406E+04  0.21788485406E+04  0.00000000000E+00 0. -1.
          1   -1    0    0  501    0 -0.00000000000E+00 -0.00000000000E+00 -0.18351655630E+04  0.18351655630E+04  0.00000000000E+00 0. -1.
         25    2    1    2    0    0  0.39671858229E+02  0.35390350864E+02  0.29384973288E+03  0.32372688999E+03  0.12500040206E+03 0.  0.
          2    1    1    2  501    0  0.84796823264E+01  0.57347812407E+02 -0.18183049754E+04  0.18192288641E+04  0.00000000000E+00 0. -1.
          1    1    1    2  502    0 -0.48151540555E+02 -0.92738163271E+02  0.18681382201E+04  0.18710583495E+04  0.00000000000E+00 0. -1.
         22    1    3    3    0    0  0.30026187110E+02  0.39730437975E+02  0.26963893033E+02  0.56631538400E+02  0.00000000000E+00 0.  1.
         22    1    3    3    0    0  0.96456711189E+01 -0.43400871118E+01  0.26688583985E+03  0.26709535159E+03  0.00000000000E+00 0.  1.
</event>
<event>
 7    1  0.5127424E-006  0.4152381E+02  0.7818608E-02  0.1507068E+00
          2   -1    0    0  502    0  0.00000000000E+00  0.00000000000E+00  0.10670119619E+04  0.10670119619E+04  0.00000000000E+00 0. -1.
          1   -1    0    0  501    0 -0.00000000000E+00 -0.00000000000E+00 -0.12666938672E+03  0.12666938672E+03  0.00000000000E+00 0. -1.
         25    2    1    2    0    0 -0.42576282701E+02  0.64797372117E+02  0.40394633540E+02  0.15254105839E+03  0.12500243515E+03 0.  0.
          2    1    1    2  501    0  0.12213289527E+02 -0.36862291566E+02 -0.64781475733E+02  0.75529018123E+02  0.00000000000E+00 0. -1.
          1    1    1    2  502    0  0.30362993174E+02 -0.27935080551E+02  0.96472941736E+03  0.96561127209E+03  0.00000000000E+00 0. -1.
         22    1    3    3    0    0 -0.55881919395E+02  0.62875810635E+02  0.76693023439E+02  0.11383310732E+03  0.00000000000E+00 0.  1.
         22    1    3    3    0    0  0.13305636694E+02  0.19215614821E+01 -0.36298389899E+02  0.38707951065E+02  0.00000000000E+00 0.  1.
</event>
<event>
 7    1  0.5127424E-006  0.5496196E+02  0.7818608E-02  0.1553576E+00
          2   -1    0    0  502    0  0.00000000000E+00  0.00000000000E+00  0.14208608228E+04  0.14208608228E+04  0.00000000000E+00 0. -1.
          1   -1    0    0  501    0 -0.00000000000E+00 -0.00000000000E+00 -0.31867916819E+02  0.31867916819E+02  0.00000000000E+00 0. -1.
         25    2    1    2    0    0 -0.11476832674E+02  0.33128115412E+02  0.22527190249E+03  0.26000246303E+03  0.12499864404E+03 0.  0.
          2    1    1    2  501    0  0.79087560200E+00  0.21573658801E+02 -0.54194867257E+01  0.22258011471E+02  0.00000000000E+00 0. -1.
          1    1    1    2  502    0  0.10685957072E+02 -0.54701774214E+02  0.11691404902E+04  0.11704682651E+04  0.00000000000E+00 0. -1.
         22    1    3    3    0    0  0.10788560270E+02 -0.39339409730E+02  0.30311102228E+02  0.50820715352E+02  0.00000000000E+00 0. -1.
         22    1    3    3    0    0 -0.22265392944E+02  0.72467525143E+02  0.19496080026E+03  0.20918174768E+03  0.00000000000E+00 0. -1.
</event>
<event>
 7    1  0.5127424E-006  0.4292717E+02  0.7818608E-02  0.1498407E+00
          2   -1    0    0  502    0  0.00000000000E+00  0.00000000000E+00  0.31472386255E+03  0.31472386255E+03  0.00000000000E+00 0. -1.
          1   -1    0    0  501    0 -0.00000000000E+00 -0.00000000000E+00 -0.96853845960E+03  0.96853845960E+03  0.00000000000E+00 0. -1.
         25    2    1    2    0    0  0.48369474850E+02  0.39745636487E+02 -0.62090420310E+03  0.63644839745E+03  0.12500084586E+03 0.  0.
          2    1    1    2  501    0 -0.39791227653E+02  0.23016956486E+01 -0.33718272956E+03  0.33953031192E+03  0.00000000000E+00 0. -1.
          1    1    1    2  502    0 -0.85782471967E+01 -0.42047332136E+02  0.30427233561E+03  0.30728361278E+03  0.00000000000E+00 0. -1.
         22    1    3    3    0    0 -0.34166694228E+01  0.72805285441E+02 -0.42278165439E+03  0.42901819368E+03  0.00000000000E+00 0. -1.
         22    1    3    3    0    0  0.51786144272E+02 -0.33059648953E+02 -0.19812254871E+03  0.20743020377E+03  0.00000000000E+00 0. -1.
</event>
<event>
 7    1  0.5127424E-006  0.7991415E+02  0.7818608E-02  0.1356013E+00
          2   -1    0    0  502    0  0.00000000000E+00  0.00000000000E+00  0.10549248782E+04  0.10549248782E+04  0.00000000000E+00 0. -1.
          1   -1    0    0  501    0 -0.00000000000E+00 -0.00000000000E+00 -0.56784707695E+03  0.56784707695E+03  0.00000000000E+00 0. -1.
         25    2    1    2    0    0  0.29171995897E+02  0.24594471281E+02  0.51992018154E+03  0.53609508338E+03  0.12500019954E+03 0.  0.
          2    1    1    2  501    0 -0.78815920259E+02  0.14937489987E+02 -0.55495439372E+03  0.56072226369E+03  0.00000000000E+00 0. -1.
          1    1    1    2  502    0  0.49643924362E+02 -0.39531961269E+02  0.52211201339E+03  0.52595460804E+03  0.00000000000E+00 0. -1.
         22    1    3    3    0    0  0.66375958524E+02 -0.18879623045E+02  0.35179205244E+03  0.35849666135E+03  0.00000000000E+00 0.  1.
         22    1    3    3    0    0 -0.37203962626E+02  0.43474094327E+02  0.16812812910E+03  0.17759842203E+03  0.00000000000E+00 0.  1.
</event>
<event>
 7    1  0.5127424E-006  0.3694669E+02  0.7818608E-02  0.1553716E+00
          2   -1    0    0  502    0  0.00000000000E+00  0.00000000000E+00  0.46358246342E+03  0.46358246342E+03  0.00000000000E+00 0. -1.
          1   -1    0    0  501    0 -0.00000000000E+00 -0.00000000000E+00 -0.59790347724E+02  0.59790347724E+02  0.00000000000E+00 0. -1.
         25    2    1    2    0    0  0.12099998340E+02 -0.42510246636E+01  0.28118135670E+03  0.30798051422E+03  0.12499824245E+03 0.  0.
          2    1    1    2  501    0 -0.10370106907E+02  0.36290186808E+02 -0.36842058184E+02  0.52743284189E+02  0.00000000000E+00 0. -1.
          1    1    1    2  502    0 -0.17298914332E+01 -0.32039162144E+02  0.15945281718E+03  0.16264901273E+03  0.00000000000E+00 0. -1.
         22    1    3    3    0    0  0.28778505563E+02  0.36972308653E+01  0.29814690855E+01  0.29167808564E+02  0.00000000000E+00 0.  1.
         22    1    3    3    0    0 -0.16678507223E+02 -0.79482555290E+01  0.27819988761E+03  0.27881270566E+03  0.00000000000E+00 0.  1.
</event>
<event>
 7    1  0.5127424E-006  0.1039446E+03  0.7818608E-02  0.1282589E+00
          2   -1    0    0  502    0  0.00000000000E+00  0.00000000000E+00  0.34771731290E+04  0.34771731290E+04  0.00000000000E+00 0. -1.
          1   -1    0    0  501    0 -0.00000000000E+00 -0.00000000000E+00 -0.17091128078E+02  0.17091128078E+02  0.00000000000E+00 0. -1.
         25    2    1    2    0    0 -0.26158320838E+02 -0.26639957377E+02  0.12161518293E+04  0.12231304493E+04  0.12501551483E+03 0.  0.
          2    1    1    2  501    0  0.12008427612E+03  0.20397604874E+02  0.28492857257E+03  0.30987188825E+03  0.00000000000E+00 0. -1.
          1    1    1    2  502    0 -0.93925955284E+02  0.62423525037E+01  0.19590015990E+04  0.19612619195E+04  0.00000000000E+00 0. -1.
         22    1    3    3    0    0 -0.59549390792E+02 -0.37985491194E+02  0.39800821377E+03  0.40422712145E+03  0.00000000000E+00 0.  1.
         22    1    3    3    0    0  0.33391069954E+02  0.11345533817E+02  0.81814361556E+03  0.81890332786E+03  0.00000000000E+00 0.  1.
</event>
<event>
 7    1  0.5127424E-006  0.7484717E+02  0.7818608E-02  0.1346990E+00
          2   -1    0    0  502    0  0.00000000000E+00  0.00000000000E+00  0.77970611235E+02  0.77970611235E+02  0.00000000000E+00 0. -1.
          1   -1    0    0  501    0 -0.00000000000E+00 -0.00000000000E+00 -0.50200317108E+03  0.50200317108E+03  0.00000000000E+00 0. -1.
         25    2    1    2    0    0 -0.14029562356E+02 -0.20346812664E+02 -0.18777455861E+03  0.22692309455E+03  0.12499593822E+03 0.  0.
          2    1    1    2  501    0  0.85384785598E+02  0.42941732145E+02 -0.25798019040E+03  0.27511512610E+03  0.00000000000E+00 0. -1.
          1    1    1    2  502    0 -0.71355223242E+02 -0.22594919481E+02  0.21722189165E+02  0.77935561667E+02  0.00000000000E+00 0. -1.
         22    1    3    3    0    0 -0.97624886689E+01 -0.70753376764E+02 -0.14084646252E+03  0.15792109584E+03  0.00000000000E+00 0.  1.
         22    1    3    3    0    0 -0.42670736869E+01  0.50406564100E+02 -0.46928096098E+02  0.69001998707E+02  0.00000000000E+00 0.  1.
</event>
<event>
 7    1  0.5127424E-006  0.3271079E+02  0.7818608E-02  0.1600625E+00
          2   -1    0    0  502    0  0.00000000000E+00  0.00000000000E+00  0.67668262051E+02  0.67668262051E+02  0.00000000000E+00 0. -1.
          1   -1    0    0  501    0 -0.00000000000E+00 -0.00000000000E+00 -0.22926782998E+03  0.22926782998E+03  0.00000000000E+00 0. -1.
         25    2    1    2    0    0 -0.51432887535E+02 -0.22825579694E+02 -0.86834711706E+02  0.16227230099E+03  0.12500273398E+03 0.  0.
          2    1    1    2  501    0  0.20722984879E+02  0.17458530630E+02 -0.94137357803E+02  0.97959606615E+02  0.00000000000E+00 0. -1.
          1    1    1    2  502    0  0.30709902655E+02  0.53670490636E+01  0.19372501582E+02  0.36704184425E+02  0.00000000000E+00 0. -1.
         22    1    3    3    0    0 -0.62475470334E+02 -0.66965067388E+02 -0.58289824027E+02  0.10855969892E+03  0.00000000000E+00 0.  1.
         22    1    3    3    0    0  0.11042582799E+02  0.44139487694E+02 -0.28544887679E+02  0.53712602072E+02  0.00000000000E+00 0.  1.
</event>
<event>
 7    1  0.5127424E-006  0.1063556E+03  0.7818608E-02  0.1313724E+00
          2   -1    0    0  502    0  0.00000000000E+00  0.00000000000E+00  0.57602393771E+03  0.57602393771E+03  0.00000000000E+00 0. -1.
          1   -1    0    0  501    0 -0.00000000000E+00 -0.00000000000E+00 -0.22976173501E+04  0.22976173501E+04  0.00000000000E+00 0. -1.
         25    2    1    2    0    0 -0.15713227544E+03 -0.48270924443E+02  0.15918058694E+03  0.26073831347E+03  0.12500149888E+03 0.  0.
          2    1    1    2  501    0  0.58953543091E+02  0.35827522266E+02 -0.22396090033E+04  0.22406712430E+04  0.00000000000E+00 0. -1.
          1    1    1    2  502    0  0.98178732346E+02  0.12443402178E+02  0.35883500397E+03  0.37223173134E+03  0.00000000000E+00 0. -1.
         22    1    3    3    0    0 -0.32827752308E+02 -0.61689983200E+02  0.10104782986E+03  0.12285755682E+03  0.00000000000E+00 0. -1.
         22    1    3    3    0    0 -0.12430452313E+03  0.13419058757E+02  0.58132757080E+02  0.13788075665E+03  0.00000000000E+00 0. -1.
</event>
<event>
 7    1  0.5127424E-006  0.5723875E+02  0.7818608E-02  0.1467845E+00
          2   -1    0    0  502    0  0.00000000000E+00  0.00000000000E+00  0.21341710397E+04  0.21341710397E+04  0.00000000000E+00 0. -1.
          1   -1    0    0  501    0 -0.00000000000E+00 -0.00000000000E+00 -0.17094294382E+03  0.17094294382E+03  0.00000000000E+00 0. -1.
         25    2    1    2    0    0  0.14781552451E+02 -0.68753273263E+02  0.16797839584E+03  0.22087965718E+03  0.12500229842E+03 0.  0.
          2    1    1    2  501    0  0.19150339960E+02  0.53849805816E+02 -0.13865607423E+03  0.14997347775E+03  0.00000000000E+00 0. -1.
          1    1    1    2  502    0 -0.33931892411E+02  0.14903467447E+02  0.19339057743E+04  0.19342608486E+04  0.00000000000E+00 0. -1.
         22    1    3    3    0    0 -0.23336586023E+02 -0.16931304948E+02  0.15184264856E+03  0.15455567041E+03  0.00000000000E+00 0.  1.
         22    1    3    3    0    0  0.38118138474E+02 -0.51821968315E+02  0.16135747280E+02  0.66323986770E+02  0.00000000000E+00 0.  1.
</event>
<event>
 7    1  0.5127424E-006  0.1243662E+03  0.7818608E-02  0.1415735E+00
          2   -1    0    0  502    0  0.00000000000E+00  0.00000000000E+00  0.10949510490E+04  0.10949510490E+04  0.00000000000E+00 0. -1.
          1   -1    0    0  501    0 -0.00000000000E+00 -0.00000000000E+00 -0.12940964526E+04  0.12940964526E+04  0.00000000000E+00 0. -1.
         25    2    1    2    0    0  0.74414022125E+02 -0.69095524362E+02 -0.13829806500E+03  0.21228074903E+03  0.12500049380E+03 0.  0.
          2    1    1    2  501    0 -0.90831718132E+02  0.88155676661E+02 -0.11150764040E+04  0.11222375912E+04  0.00000000000E+00 0. -1.
          1    1    1    2  502    0  0.16417696007E+02 -0.19060152299E+02  0.10542290653E+04  0.10545291615E+04  0.00000000000E+00 0. -1.
         22    1    3    3    0    0  0.51606851236E+02 -0.69281321591E+01  0.70635588087E+01  0.52546740839E+02  0.00000000000E+00 0. -1.
         22    1    3    3    0    0  0.22807170889E+02 -0.62167392203E+02 -0.14536162381E+03  0.15973400819E+03  0.00000000000E+00 0. -1.
</event>
<event>
 7    1  0.5127424E-006  0.4724681E+02  0.7818608E-02  0.1484507E+00
          2   -1    0    0  502    0  0.00000000000E+00  0.00000000000E+00  0.43467206916E+03  0.43467206916E+03  0.00000000000E+00 0. -1.
          1   -1    0    0  501    0 -0.00000000000E+00 -0.00000000000E+00 -0.19981735130E+04  0.19981735130E+04  0.00000000000E+00 0. -1.
         25    2    1    2    0    0 -0.29401529741E+02  0.80968303675E+02 -0.41533546323E+02  0.15738470076E+03  0.12499836963E+03 0.  0.
          2    1    1    2  501    0  0.21450186704E+02 -0.41880753039E+02 -0.18973660920E+04  0.18979494711E+04  0.00000000000E+00 0. -1.
          1    1    1    2  502    0  0.79513430375E+01 -0.39087550636E+02  0.37539819446E+03  0.37751141026E+03  0.00000000000E+00 0. -1.
         22    1    3    3    0    0 -0.76932556895E+02  0.45079907062E+02 -0.40203333909E+02  0.97811678181E+02  0.00000000000E+00 0. -1.
         22    1    3    3    0    0  0.47531027153E+02  0.35888396614E+02 -0.13302124133E+01  0.59573022576E+02  0.00000000000E+00 0. -1.
</event>
<event>
 7    1  0.5127424E-006  0.1321587E+03  0.7818608E-02  0.1252151E+00
          2   -1    0    0  502    0  0.00000000000E+00  0.00000000000E+00  0.12593179976E+04  0.12593179976E+04  0.00000000000E+00 0. -1.
          1   -1    0    0  501    0 -0.00000000000E+00 -0.00000000000E+00 -0.10490228153E+03  0.10490228153E+03  0.00000000000E+00 0. -1.
         25    2    1    2    0    0  0.30334065321E+01  0.73434501422E+02  0.34669123349E+03  0.37579536700E+03  0.12500207570E+03 0.  0.
          2    1    1    2  501    0 -0.51107912842E+02  0.85374549471E+02 -0.52389774586E+02  0.11245230515E+03  0.00000000000E+00 0. -1.
          1    1    1    2  502    0  0.48074506310E+02 -0.15880905089E+03  0.86011425713E+03  0.87597260695E+03  0.00000000000E+00 0. -1.
         22    1    3    3    0    0 -0.11965274742E+02  0.10321754246E+03  0.20023207478E+03  0.22558792663E+03  0.00000000000E+00 0.  1.
         22    1    3    3    0    0  0.14998681275E+02 -0.29783041038E+02  0.14645915871E+03  0.15020744037E+03  0.00000000000E+00 0.  1.
</event>
<event>
 7    1  0.5127424E-006  0.1126295E+03  0.7818608E-02  0.1407611E+00
          2   -1    0    0  502    0  0.00000000000E+00  0.00000000000E+00  0.32133707684E+03  0.32133707684E+03  0.00000000000E+00 0. -1.
          1   -1    0    0  501    0 -0.00000000000E+00 -0.00000000000E+00 -0.11696347900E+04  0.11696347900E+04  0.00000000000E+00 0. -1.
         25    2    1    2    0    0  0.10465548935E+03 -0.76488866140E+02  0.13855600336E+03  0.22720579044E+03  0.12498554736E+03 0.  0.
          2    1    1    2  501    0 -0.75792575433E+02  0.83011155164E+02 -0.11208849938E+04  0.11265072285E+04  0.00000000000E+00 0. -1.
          1    1    1    2  502    0 -0.28862913916E+02 -0.65222890242E+01  0.13403127728E+03  0.13725884796E+03  0.00000000000E+00 0. -1.
         22    1    3    3    0    0  0.56878202041E+02 -0.76800633726E+01  0.13109058107E+03  0.14310434544E+03  0.00000000000E+00 0.  1.
         22    1    3    3    0    0  0.47777287308E+02 -0.68808802768E+02  0.74654222965E+01  0.84101444999E+02  0.00000000000E+00 0.  1.
</event>
<event>
 7    1  0.5127424E-006  0.1440038E+03  0.7818608E-02  0.1263350E+00
          2   -1    0    0  502    0  0.00000000000E+00  0.00000000000E+00  0.97487138389E+03  0.97487138389E+03  0.00000000000E+00 0. -1.
          1   -1    0    0  501    0 -0.00000000000E+00 -0.00000000000E+00 -0.12538796273E+04  0.12538796273E+04  0.00000000000E+00 0. -1.
         25    2    1    2    0    0  0.17356032643E+03 -0.61498682993E+02 -0.27581184516E+02  0.22425591991E+03  0.12499888382E+03 0.  0.
          2    1    1    2  501    0 -0.14222469135E+03 -0.14026382266E+02 -0.11215096367E+04  0.11305788197E+04  0.00000000000E+00 0. -1.
          1    1    1    2  502    0 -0.31335635079E+02  0.75525065259E+02  0.87008257784E+03  0.87391627160E+03  0.00000000000E+00 0. -1.
         22    1    3    3    0    0  0.38269333675E+02 -0.77334456186E+02 -0.13090732348E+02  0.87272717884E+02  0.00000000000E+00 0.  1.
         22    1    3    3    0    0  0.13529099276E+03  0.15835773193E+02 -0.14490452168E+02  0.13698320203E+03  0.00000000000E+00 0.  1.
</event>
<event>
 7    1  0.5127424E-006  0.1815701E+03  0.7818608E-02  0.1289338E+00
          2   -1    0    0  502    0  0.00000000000E+00  0.00000000000E+00  0.14860498785E+04  0.14860498785E+04  0.00000000000E+00 0. -1.
          1   -1    0    0  501    0 -0.00000000000E+00 -0.00000000000E+00 -0.37353860055E+03  0.37353860055E+03  0.00000000000E+00 0. -1.
         25    2    1    2    0    0 -0.15095476507E+03 -0.42287136569E+02  0.24017004670E+03  0.31286281004E+03  0.12500377418E+03 0.  0.
          2    1    1    2  501    0 -0.36184996792E+02  0.35323987128E+02 -0.32799434664E+03  0.33186959711E+03  0.00000000000E+00 0. -1.
          1    1    1    2  502    0  0.18713976186E+03  0.69631494409E+01  0.12003355779E+04  0.12148560719E+04  0.00000000000E+00 0. -1.
         22    1    3    3    0    0 -0.46506617651E+02  0.76891349108E+01  0.10113505371E+01  0.47148818765E+02  0.00000000000E+00 0. -1.
         22    1    3    3    0    0 -0.10444814741E+03 -0.49976271480E+02  0.23915869616E+03  0.26571399128E+03  0.00000000000E+00 0. -1.
</event>
<event>
 7    1  0.5127424E-006  0.1340616E+03  0.7818608E-02  0.1242527E+00
          2   -1    0    0  502    0  0.00000000000E+00  0.00000000000E+00  0.23092977420E+03  0.23092977420E+03  0.00000000000E+00 0. -1.
          1   -1    0    0  501    0 -0.00000000000E+00 -0.00000000000E+00 -0.23106929109E+04  0.23106929109E+04  0.00000000000E+00 0. -1.
         25    2    1    2    0    0 -0.76072840148E+02  0.10446808423E+03 -0.49529259680E+03  0.52691280476E+03  0.12498675826E+03 0.  0.
          2    1    1    2  501    0  0.14015468532E+03 -0.17491975938E+02 -0.17830553553E+04  0.17886407423E+04  0.00000000000E+00 0. -1.
          1    1    1    2  502    0 -0.64081845170E+02 -0.86976108293E+02  0.19858481536E+03  0.22606913807E+03  0.00000000000E+00 0. -1.
         22    1    3    3    0    0 -0.38623307645E+02  0.82333734830E+02 -0.46522687897E+03  0.47403233297E+03  0.00000000000E+00 0.  1.
         22    1    3    3    0    0 -0.37449532502E+02  0.22134349401E+02 -0.30065717836E+02  0.52880471793E+02  0.00000000000E+00 0.  1.
</event>
<event>
 7    1  0.5127424E-006  0.1013564E+03  0.7818608E-02  0.1374133E+00
          2   -1    0    0  502    0  0.00000000000E+00  0.00000000000E+00  0.54877885357E+03  0.54877885357E+03  0.00000000000E+00 0. -1.
          1   -1    0    0  501    0 -0.00000000000E+00 -0.00000000000E+00 -0.97799147372E+02  0.97799147372E+02  0.00000000000E+00 0. -1.
         25    2    1    2    0    0 -0.69954514334E+02  0.91247481358E+02  0.29328061635E+03  0.33890831362E+03  0.12500235271E+03 0.  0.
          2    1    1    2  501    0  0.42951559874E+02  0.23922945466E+01 -0.57278572795E+02  0.71633752312E+02  0.00000000000E+00 0. -1.
          1    1    1    2  502    0  0.27002954460E+02 -0.93639775904E+02  0.21497766265E+03  0.23603593501E+03  0.00000000000E+00 0. -1.
         22    1    3    3    0    0 -0.10477384791E+03  0.83960294219E+02  0.23235664861E+03  0.26835890588E+03  0.00000000000E+00 0.  1.
         22    1    3    3    0    0  0.34819333579E+02  0.72871871387E+01  0.60923967737E+02  0.70549407737E+02  0.00000000000E+00 0.  1.
</event>
<event>
 7    1  0.5127424E-006  0.1505958E+03  0.7818608E-02  0.1280458E+00
          2   -1    0    0  502    0  0.00000000000E+00  0.00000000000E+00  0.12730177351E+04  0.12730177351E+04  0.00000000000E+00 0. -1.
          1   -1    0    0  501    0 -0.00000000000E+00 -0.00000000000E+00 -0.66493444146E+03  0.66493444146E+03  0.00000000000E+00 0. -1.
         25    2    1    2    0    0 -0.17622188236E+03 -0.25663082694E+02  0.14631233397E+02  0.21806344398E+03  0.12499938789E+03 0.  0.
          2    1    1    2  501    0  0.30161297795E+02  0.59043258567E+02 -0.55639003817E+03  0.56032640920E+03  0.00000000000E+00 0. -1.
          1    1    1    2  502    0  0.14606058457E+03 -0.33380175872E+02  0.11498420984E+04  0.11595623233E+04  0.00000000000E+00 0. -1.
         22    1    3    3    0    0 -0.29567700093E+02  0.45426951347E+02 -0.20142204579E+01  0.54239412622E+02  0.00000000000E+00 0. -1.
         22    1    3    3    0    0 -0.14665418227E+03 -0.71090034042E+02  0.16645453855E+02  0.16382403136E+03  0.00000000000E+00 0. -1.
</event>
<event>
 7    1  0.5127424E-006  0.1625025E+03  0.7818608E-02  0.1329718E+00
          2   -1    0    0  502    0  0.00000000000E+00  0.00000000000E+00  0.13047890119E+04  0.13047890119E+04  0.00000000000E+00 0. -1.
          1   -1    0    0  501    0 -0.00000000000E+00 -0.00000000000E+00 -0.44332767477E+02  0.44332767477E+02  0.00000000000E+00 0. -1.
         25    2    1    2    0    0  0.72015106486E+02  0.16646493661E+03  0.50830385948E+03  0.55398051584E+03  0.12499939075E+03 0.  0.
          2    1    1    2  501    0 -0.82908424745E+02 -0.12885729097E+03  0.26266385678E+03  0.30408931252E+03  0.00000000000E+00 0. -1.
          1    1    1    2  502    0  0.10893318259E+02 -0.37607645637E+02  0.48948852818E+03  0.49105195103E+03  0.00000000000E+00 0. -1.
         22    1    3    3    0    0 -0.12225992153E+01  0.59929221730E+02  0.50835558814E+02  0.78595549530E+02  0.00000000000E+00 0. -1.
         22    1    3    3    0    0  0.73237705701E+02  0.10653571488E+03  0.45746830067E+03  0.47538496631E+03  0.00000000000E+00 0. -1.
</event>
<event>
 7    1  0.5127424E-006  0.4686602E+02  0.7818608E-02  0.1526417E+00
          2   -1    0    0  502    0  0.00000000000E+00  0.00000000000E+00  0.10878775534E+04  0.10878775534E+04  0.00000000000E+00 0. -1.
          1   -1    0    0  501    0 -0.00000000000E+00 -0.00000000000E+00 -0.48865188079E+03  0.48865188079E+03  0.00000000000E+00 0. -1.
         25    2    1    2    0    0  0.56731433211E+02  0.96824625476E+01  0.29684932514E+03  0.32719745688E+03  0.12500579331E+03 0.  0.
          2    1    1    2  501    0 -0.21586683377E+02  0.21139076598E+02 -0.47229056712E+03  0.47325598279E+03  0.00000000000E+00 0. -1.
          1    1    1    2  502    0 -0.35144749835E+02 -0.30821539146E+02  0.77466691455E+03  0.77607599448E+03  0.00000000000E+00 0. -1.
         22    1    3    3    0    0  0.38396657064E+02  0.29751135814E+01  0.30398226298E+03  0.30641209307E+03  0.00000000000E+00 0. -1.
         22    1    3    3    0    0  0.18334776147E+02  0.67073489662E+01 -0.71329378406E+01  0.20785363811E+02  0.00000000000E+00 0. -1.
</event>
<event>
 7    1  0.5127424E-006  0.5808556E+02  0.7818608E-02  0.1406449E+00
          2   -1    0    0  502    0  0.00000000000E+00  0.00000000000E+00  0.15315924680E+04  0.15315924680E+04  0.00000000000E+00 0. -1.
          1   -1    0    0  501    0 -0.00000000000E+00 -0.00000000000E+00 -0.10524432507E+04  0.10524432507E+04  0.00000000000E+00 0. -1.
         25    2    1    2    0    0 -0.23043283213E+01  0.36548577744E+02  0.97510434659E+02  0.16271324623E+03  0.12500482857E+03 0.  0.
          2    1    1    2  501    0 -0.54278417594E+02 -0.20682980208E+02 -0.10183978948E+04  0.10200530400E+04  0.00000000000E+00 0. -1.
          1    1    1    2  502    0  0.56582745916E+02 -0.15865597537E+02  0.14000366774E+04  0.14012694325E+04  0.00000000000E+00 0. -1.
         22    1    3    3    0    0  0.14426410371E+02 -0.12495581996E+02 -0.23971215766E+02  0.30641149961E+02  0.00000000000E+00 0.  1.
         22    1    3    3    0    0 -0.16730738693E+02  0.49044159740E+02  0.12148165043E+03  0.13207209627E+03  0.00000000000E+00 0.  1.
</event>
<event>
 7    1  0.5127424E-006  0.4011796E+02  0.7818608E-02  0.1577245E+00
          2   -1    0    0  502    0  0.00000000000E+00  0.00000000000E+00  0.33971754606E+02  0.33971754606E+02  0.00000000000E+00 0. -1.
          1   -1    0    0  501    0 -0.00000000000E+00 -0.00000000000E+00 -0.15852735582E+04  0.15852735582E+04  0.00000000000E+00 0. -1.
         25    2    1    2    0    0  0.19959281815E+02  0.11055567284E+02 -0.44263627146E+03  0.46051283310E+03  0.12499840852E+03 0.  0.
          2    1    1    2  501    0 -0.14824271107E+01  0.25439459433E+02 -0.11167456266E+04  0.11170363280E+04  0.00000000000E+00 0. -1.
          1    1    1    2  502    0 -0.18476854705E+02 -0.36495026717E+02  0.80800944742E+01  0.41696151640E+02  0.00000000000E+00 0. -1.
         22    1    3    3    0    0  0.51328946247E+01 -0.23179088978E+02 -0.41075046297E+03  0.41143597266E+03  0.00000000000E+00 0.  1.
         22    1    3    3    0    0  0.14826387191E+02  0.34234656263E+02 -0.31885808495E+02  0.49076860433E+02  0.00000000000E+00 0.  1.
</event>
<event>
 7    1  0.5127424E-006  0.1390732E+03  0.7818608E-02  0.1370005E+00
          2   -1    0    0  502    0  0.00000000000E+00  0.00000000000E+00  0.16310105452E+04  0.16310105452E+04  0.00000000000E+00 0. -1.
          1   -1    0    0  501    0 -0.00000000000E+00 -0.00000000000E+00 -0.33162303578E+04  0.33162303578E+04  0.00000000000E+00 0. -1.
         25    2    1    2    0    0 -0.23202674789E+02 -0.14914510481E+03 -0.14204708686E+04  0.14339272416E+04  0.12500887627E+03 0.  0.
          2    1    1    2  501    0 -0.61881163676E+01  0.13541942001E+03 -0.18864368721E+04  0.18913013468E+04  0.00000000000E+00 0. -1.
          1    1    1    2  502    0  0.29390791156E+02  0.13725684797E+02  0.16216879280E+04  0.16220123147E+04  0.00000000000E+00 0. -1.
         22    1    3    3    0    0 -0.46292316247E+02 -0.15924324314E+03 -0.13185121914E+04  0.13289002174E+04  0.00000000000E+00 0.  1.
         22    1    3    3    0    0  0.23089641458E+02  0.10098138331E+02 -0.10195867718E+03  0.10502702411E+03  0.00000000000E+00 0.  1.
</event>
<event>
 7    1  0.5127424E-006  0.7276517E+02  0.7818608E-02  0.1351927E+00
          2   -1    0    0  502    0  0.00000000000E+00  0.00000000000E+00  0.18974176097E+03  0.18974176097E+03  0.00000000000E+00 0. -1.
          1   -1    0    0  501    0 -0.00000000000E+00 -0.00000000000E+00 -0.35552924379E+03  0.35552924379E+03  0.00000000000E+00 0. -1.
         25    2    1    2    0    0  0.22960152045E+02  0.22211296900E+01  0.50340023353E+02  0.13671244924E+03  0.12499629525E+03 0.  0.
          2    1    1    2  501    0 -0.13286271552E+02 -0.74340379102E+02 -0.29307862834E+03  0.30265177906E+03  0.00000000000E+00 0. -1.
          1    1    1    2  502    0 -0.96738804931E+01  0.72119249412E+02  0.76951122169E+02  0.10590677647E+03  0.00000000000E+00 0. -1.
         22    1    3    3    0    0 -0.40888616128E+02  0.35593616674E+02  0.29485540387E+02  0.61710465634E+02  0.00000000000E+00 0. -1.
         22    1    3    3    0    0  0.63848768173E+02 -0.33372486984E+02  0.20854482966E+02  0.75001983604E+02  0.00000000000E+00 0. -1.
</event>
<event>
 7    1  0.5127424E-006  0.5615814E+02  0.7818608E-02  0.1478350E+00
          2   -1    0    0  502    0  0.00000000000E+00  0.00000000000E+00  0.55305390223E+02  0.55305390223E+02  0.00000000000E+00 0. -1.
          1   -1    0    0  501    0 -0.00000000000E+00 -0.00000000000E+00 -0.12058182699E+04  0.12058182699E+04  0.00000000000E+00 0. -1.
         25    2    1    2    0    0 -0.35147091353E+02 -0.79808514234E+02 -0.40841251969E+03  0.43592440363E+03  0.12499832984E+03 0.  0.
          2    1    1    2  501    0  0.23237108460E+02  0.26236213124E+02 -0.76494986865E+03  0.76575231220E+03  0.00000000000E+00 0. -1.
          1    1    1    2  502    0  0.11909982892E+02  0.53572301110E+02  0.22849508671E+02  0.59446944288E+02  0.00000000000E+00 0. -1.
         22    1    3    3    0    0 -0.19299022757E+02 -0.87156829779E+02 -0.13433411164E+03  0.16128985959E+03  0.00000000000E+00 0.  1.
         22    1    3    3    0    0 -0.15848068595E+02  0.73483155451E+01 -0.27407840805E+03  0.27463454404E+03  0.00000000000E+00 0.  1.
</event>
<event>
 7    1  0.5127424E-006  0.7217912E+02  0.7818608E-02  0.1375722E+00
          2   -1    0    0  502    0  0.00000000000E+00  0.00000000000E+00  0.24725401166E+03  0.24725401166E+03  0.00000000000E+00 0. -1.
          1   -1    0    0  501    0 -0.00000000000E+00 -0.00000000000E+00 -0.59204404099E+03  0.59204404099E+03  0.00000000000E+00 0. -1.
         25    2    1    2    0    0  0.38346642470E+02  0.19488427472E+02 -0.73340473801E+02  0.15117575831E+03  0.12500008404E+03 0.  0.
          2    1    1    2  501    0  0.29178879599E+02 -0.51995841854E+02 -0.47110596046E+03  0.47486398112E+03  0.00000000000E+00 0. -1.
          1    1    1    2  502    0 -0.67525522069E+02  0.32507414382E+02  0.19965640493E+03  0.21325831321E+03  0.00000000000E+00 0. -1.
         22    1    3    3    0    0  0.45397078467E+02 -0.42091366370E+02 -0.63019119178E+02  0.88340179071E+02  0.00000000000E+00 0. -1.
         22    1    3    3    0    0 -0.70504359964E+01  0.61579793842E+02 -0.10321354623E+02  0.62835579242E+02  0.00000000000E+00 0. -1.
</event>
<event>
 7    1  0.5127424E-006  0.5490623E+02  0.7818608E-02  0.1449328E+00
          2   -1    0    0  502    0  0.00000000000E+00  0.00000000000E+00  0.17608912664E+04  0.17608912664E+04  0.00000000000E+00 0. -1.
          1   -1    0    0  501    0 -0.00000000000E+00 -0.00000000000E+00 -0.16148014955E+03  0.16148014955E+03  0.00000000000E+00 0. -1.
         25    2    1    2    0    0  0.57301314876E+02  0.72315902655E+01  0.13950340658E+03  0.19601577056E+03  0.12500098110E+03 0.  0.
          2    1    1    2  501    0 -0.14341667940E+02 -0.41818710354E+02 -0.12906463963E+03  0.13642642405E+03  0.00000000000E+00 0. -1.
          1    1    1    2  502    0 -0.42959646936E+02  0.34587120088E+02  0.15889723499E+04  0.15899292214E+04  0.00000000000E+00 0. -1.
         22    1    3    3    0    0  0.78672570645E+02 -0.28869542999E+02  0.51074451616E+02  0.98139816043E+02  0.00000000000E+00 0.  1.
         22    1    3    3    0    0 -0.21371255769E+02  0.36101133265E+02  0.88428954962E+02  0.97875954513E+02  0.00000000000E+00 0.  1.
</event>
<event>
 7    1  0.5127424E-006  0.9788492E+02  0.7818608E-02  0.1311441E+00
          2   -1    0    0  502    0  0.00000000000E+00  0.00000000000E+00  0.34819012042E+03  0.34819012042E+03  0.00000000000E+00 0. -1.
          1   -1    0    0  501    0 -0.00000000000E+00 -0.00000000000E+00 -0.77146882509E+03  0.77146882509E+03  0.00000000000E+00 0. -1.
         25    2    1    2    0    0 -0.25600040096E+02  0.15895167220E+03  0.11941547735E+03  0.23623255622E+03  0.12499907296E+03 0.  0.
          2    1    1    2  501    0  0.23551962260E+02 -0.72804094406E+02 -0.69994366413E+03  0.70411381469E+03  0.00000000000E+00 0. -1.
          1    1    1    2  502    0  0.20480778355E+01 -0.86147577792E+02  0.15724948211E+03  0.17931257459E+03  0.00000000000E+00 0. -1.
         22    1    3    3    0    0  0.43046145836E+02  0.10848873300E+03  0.84802167199E+02  0.14427121481E+03  0.00000000000E+00 0. -1.
         22    1    3    3    0    0 -0.68646185932E+02  0.50462939195E+02  0.34613310148E+02  0.91961341414E+02  0.00000000000E+00 0. -1.
</event>
<event>
 7    1  0.5127424E-006  0.8909468E+02  0.7818608E-02  0.1482468E+00
          2   -1    0    0  502    0  0.00000000000E+00  0.00000000000E+00  0.25349925868E+03  0.25349925868E+03  0.00000000000E+00 0. -1.
          1   -1    0    0  501    0 -0.00000000000E+00 -0.00000000000E+00 -0.19610317629E+04  0.19610317629E+04  0.00000000000E+00 0. -1.
         25    2    1    2    0    0  0.57343069643E+02  0.38823072707E+02 -0.52289538369E+03  0.54206991517E+03  0.12499900811E+03 0.  0.
          2    1    1    2  501    0  0.21050738676E+02  0.41608473739E+01 -0.14202726303E+04  0.14204347189E+04  0.00000000000E+00 0. -1.
          1    1    1    2  502    0 -0.78393808319E+02 -0.42983920081E+02  0.23563550974E+03  0.25202638755E+03  0.00000000000E+00 0. -1.
         22    1    3    3    0    0  0.37899004786E+02 -0.51739094708E+01 -0.46599311574E+03  0.46756035741E+03  0.00000000000E+00 0.  1.
         22    1    3    3    0    0  0.19444064856E+02  0.43996982178E+02 -0.56902267954E+02  0.74509557757E+02  0.00000000000E+00 0.  1.
</event>
<event>
 7    1  0.5127424E-006  0.7005431E+02  0.7818608E-02  0.1496166E+00
          2   -1    0    0  502    0  0.00000000000E+00  0.00000000000E+00  0.26914301350E+03  0.26914301350E+03  0.00000000000E+00 0. -1.
          1   -1    0    0  501    0 -0.00000000000E+00 -0.00000000000E+00 -0.14003996921E+04  0.14003996921E+04  0.00000000000E+00 0. -1.
         25    2    1    2    0    0  0.69578079902E+02  0.62181944176E+02 -0.26697506215E+03  0.30920625278E+03  0.12500047826E+03 0.  0.
          2    1    1    2  501    0 -0.53745407266E+02 -0.43088170477E+02 -0.11106191077E+04  0.11127533247E+04  0.00000000000E+00 0. -1.
          1    1    1    2  502    0 -0.15832672636E+02 -0.19093773699E+02  0.24633749127E+03  0.24758312811E+03  0.00000000000E+00 0. -1.
         22    1    3    3    0    0 -0.33199176157E+02  0.33170266456E+02 -0.58757885408E+02  0.75199341565E+02  0.00000000000E+00 0. -1.
         22    1    3    3    0    0  0.10277725606E+03  0.29011677721E+02 -0.20821717674E+03  0.23400691122E+03  0.00000000000E+00 0. -1.
</event>
<event>
 7    1  0.5127424E-006  0.1274082E+03  0.7818608E-02  0.1294695E+00
          2   -1    0    0  502    0  0.00000000000E+00  0.00000000000E+00  0.65811115519E+02  0.65811115519E+02  0.00000000000E+00 0. -1.
          1   -1    0    0  501    0 -0.00000000000E+00 -0.00000000000E+00 -0.19385529078E+04  0.19385529078E+04  0.00000000000E+00 0. -1.
         25    2    1    2    0    0  0.16153925974E+03  0.41262799921E+02 -0.27342879396E+03  0.34378210705E+03  0.12500112265E+03 0.  0.
          2    1    1    2  501    0 -0.10128643430E+03 -0.73952374904E+02 -0.15857528496E+04  0.15907042452E+04  0.00000000000E+00 0. -1.
          1    1    1    2  502    0 -0.60252825441E+02  0.32689574983E+02 -0.13560148707E+02  0.69877671105E+02  0.00000000000E+00 0. -1.
         22    1    3    3    0    0  0.33307008649E+02 -0.17038582390E+02 -0.13918061447E+01  0.37438045346E+02  0.00000000000E+00 0.  1.
         22    1    3    3    0    0  0.12823225110E+03  0.58301382311E+02 -0.27203698782E+03  0.30634406170E+03  0.00000000000E+00 0.  1.
</event>
<event>
 7    1  0.5127424E-006  0.6094956E+02  0.7818608E-02  0.1434827E+00
          2   -1    0    0  502    0  0.00000000000E+00  0.00000000000E+00  0.63317420168E+02  0.63317420168E+02  0.00000000000E+00 0. -1.
          1   -1    0    0  501    0 -0.00000000000E+00 -0.00000000000E+00 -0.17080669156E+04  0.17080669156E+04  0.00000000000E+00 0. -1.
         25    2    1    2    0    0  0.21198769204E+02 -0.49219781570E+02 -0.40593336307E+02  0.14193050593E+03  0.12499789937E+03 0.  0.
          2    1    1    2  501    0 -0.56824458141E+02  0.22771681694E+02 -0.15753810285E+04  0.15765699964E+04  0.00000000000E+00 0. -1.
          1    1    1    2  502    0  0.35625688937E+02  0.26448099876E+02 -0.28775130642E+02  0.52883833473E+02  0.00000000000E+00 0. -1.
         22    1    3    3    0    0 -0.23511734201E+02  0.13291207068E+02  0.28010263002E+02  0.38910572649E+02  0.00000000000E+00 0. -1.
         22    1    3    3    0    0  0.44710503404E+02 -0.62510988638E+02 -0.68603599309E+02  0.10301993328E+03  0.00000000000E+00 0. -1.
</event>
<event>
 7    1  0.5127424E-006  0.1500354E+03  0.7818608E-02  0.1288577E+00
          2   -1    0    0  502    0  0.00000000000E+00  0.00000000000E+00  0.80002512061E+03  0.80002512061E+03  0.00000000000E+00 0. -1.
          1   -1    0    0  501    0 -0.00000000000E+00 -0.00000000000E+00 -0.32340871254E+03  0.32340871254E+03  0.00000000000E+00 0. -1.
         25    2    1    2    0    0  0.15340167918E+03 -0.56970498844E+02  0.39785340572E+03  0.44798518744E+03  0.12500273121E+03 0.  0.
          2    1    1    2  501    0 -0.14987132460E+03 -0.45630516534E+01 -0.27668248719E+03  0.31469895788E+03  0.00000000000E+00 0. -1.
          1    1    1    2  502    0 -0.35303545761E+01  0.61533550497E+02  0.35544548953E+03  0.36074968783E+03  0.00000000000E+00 0. -1.
         22    1    3    3    0    0  0.12035016823E+03 -0.92691026081E+02  0.25218931517E+03  0.29440658959E+03  0.00000000000E+00 0.  1.
         22    1    3    3    0    0  0.33051510951E+02  0.35720527236E+02  0.14566409055E+03  0.15357859785E+03  0.00000000000E+00 0.  1.
</event>
<event>
 7    1  0.5127424E-006  0.5047287E+02  0.7818608E-02  0.1526458E+00
          2   -1    0    0  502    0  0.00000000000E+00  0.00000000000E+00  0.76815342856E+03  0.76815342856E+03  0.00000000000E+00 0. -1.
          1   -1    0    0  501    0 -0.00000000000E+00 -0.00000000000E+00 -0.38723510959E+03  0.38723510959E+03  0.00000000000E+00 0. -1.
         25    2    1    2    0    0 -0.81649623296E+01 -0.31361032519E+02 -0.11183062057E+03  0.17082757525E+03  0.12500316715E+03 0.  0.
          2    1    1    2  501    0 -0.27708756547E+02 -0.43402692077E+01 -0.24423557747E+03  0.24584066065E+03  0.00000000000E+00 0. -1.
          1    1    1    2  502    0  0.35873718876E+02  0.35701301726E+02  0.73698451701E+03  0.73872030226E+03  0.00000000000E+00 0. -1.
         22    1    3    3    0    0 -0.77694848430E+01  0.44074668535E+02 -0.73890847613E+02  0.86387491353E+02  0.00000000000E+00 0. -1.
         22    1    3    3    0    0 -0.39547748660E+00 -0.75435701053E+02 -0.37939772960E+02  0.84440083895E+02  0.00000000000E+00 0. -1.
</event>
<event>
 7    1  0.5127424E-006  0.9994755E+02  0.7818608E-02  0.1378794E+00
          2   -1    0    0  502    0  0.00000000000E+00  0.00000000000E+00  0.86379493098E+03  0.86379493098E+03  0.00000000000E+00 0. -1.
          1   -1    0    0  501    0 -0.00000000000E+00 -0.00000000000E+00 -0.54548656963E+02  0.54548656963E+02  0.00000000000E+00 0. -1.
         25    2    1    2    0    0 -0.62591658910E+02 -0.11847564757E+03  0.35905169578E+03  0.40310815139E+03  0.12499546648E+03 0.  0.
          2    1    1    2  501    0  0.25582909360E+02  0.33295590147E+02 -0.12105264240E+02  0.43699187600E+02  0.00000000000E+00 0. -1.
          1    1    1    2  502    0  0.37008749550E+02  0.85180057420E+02  0.46229984248E+03  0.47153624896E+03  0.00000000000E+00 0. -1.
         22    1    3    3    0    0 -0.10088978285E+03 -0.83593396998E+02  0.26924511391E+03  0.29943202179E+03  0.00000000000E+00 0.  1.
         22    1    3    3    0    0  0.38298123943E+02 -0.34882250570E+02  0.89806581864E+02  0.10367612960E+03  0.00000000000E+00 0.  1.
</event>
<event>
 7    1  0.5127424E-006  0.7417946E+02  0.7818608E-02  0.1431040E+00
          2   -1    0    0  502    0  0.00000000000E+00  0.00000000000E+00  0.17473778374E+03  0.17473778374E+03  0.00000000000E+00 0. -1.
          1   -1    0    0  501    0 -0.00000000000E+00 -0.00000000000E+00 -0.20938820546E+04  0.20938820546E+04  0.00000000000E+00 0. -1.
         25    2    1    2    0    0 -0.63325102819E+02  0.47432042403E+02 -0.32716062112E+03  0.35905272480E+03  0.12499967951E+03 0.  0.
          2    1    1    2  501    0 -0.10094627773E+02 -0.36130161080E+02 -0.17418745842E+04  0.17422784959E+04  0.00000000000E+00 0. -1.
          1    1    1    2  502    0  0.73419730592E+02 -0.11301881323E+02  0.14989093448E+03  0.16728861766E+03  0.00000000000E+00 0. -1.
         22    1    3    3    0    0 -0.35850367664E+02 -0.41305932634E+02 -0.10956462480E+03  0.12245748625E+03  0.00000000000E+00 0.  1.
         22    1    3    3    0    0 -0.27474735155E+02  0.88737975037E+02 -0.21759599633E+03  0.23659523855E+03  0.00000000000E+00 0.  1.
</event>
<event>
 7    1  0.5127424E-006  0.9871898E+02  0.7818608E-02  0.1358252E+00
          2   -1    0    0  502    0  0.00000000000E+00  0.00000000000E+00  0.14292935045E+04  0.14292935045E+04  0.00000000000E+00 0. -1.
          1   -1    0    0  501    0 -0.00000000000E+00 -0.00000000000E+00 -0.10776774634E+04  0.10776774634E+04  0.00000000000E+00 0. -1.
         25    2    1    2    0    0 -0.66353009419E+02  0.96326966490E+02  0.30259183607E+03  0.34766117929E+03  0.12499948000E+03 0.  0.
          2    1    1    2  501    0  0.85290058640E+02 -0.49608598050E+02 -0.10522582993E+04  0.10568741342E+04  0.00000000000E+00 0. -1.
          1    1    1    2  502    0 -0.18937049221E+02 -0.46718368440E+02  0.11012825043E+04  0.11024356544E+04  0.00000000000E+00 0. -1.
         22    1    3    3    0    0 -0.70021302235E+02  0.25844960834E+01  0.18096844573E+03  0.19405988956E+03  0.00000000000E+00 0.  1.
         22    1    3    3    0    0  0.36682928164E+01  0.93742470407E+02  0.12162339033E+03  0.15360128973E+03  0.00000000000E+00 0.  1.
</event>
<event>
 7    1  0.5127424E-006  0.8249744E+02  0.7818608E-02  0.1403732E+00
          2   -1    0    0  502    0  0.00000000000E+00  0.00000000000E+00  0.12413991420E+04  0.12413991420E+04  0.00000000000E+00 0. -1.
          1   -1    0    0  501    0 -0.00000000000E+00 -0.00000000000E+00 -0.10801113995E+03  0.10801113995E+03  0.00000000000E+00 0. -1.
         25    2    1    2    0    0 -0.92960178581E+02 -0.41935759615E+01  0.45725335791E+03  0.48307896292E+03  0.12500188083E+03 0.  0.
          2    1    1    2  501    0  0.72000926147E+02  0.40183414748E+02 -0.76540606206E+02  0.11250468695E+03  0.00000000000E+00 0. -1.
          1    1    1    2  502    0  0.20959252434E+02 -0.35989838786E+02  0.75267525032E+03  0.75382663206E+03  0.00000000000E+00 0. -1.
         22    1    3    3    0    0 -0.12362770720E+03 -0.89658550151E+01  0.38438505911E+03  0.40387630558E+03  0.00000000000E+00 0.  1.
         22    1    3    3    0    0  0.30667528617E+02  0.47722790536E+01  0.72868298802E+02  0.79202657336E+02  0.00000000000E+00 0.  1.
</event>
<event>
 7    1  0.5127424E-006  0.3499776E+02  0.7818608E-02  0.1614259E+00
          2   -1    0    0  502    0  0.00000000000E+00  0.00000000000E+00  0.86417172510E+03  0.86417172510E+03  0.00000000000E+00 0. -1.
          1   -1    0    0  501    0 -0.00000000000E+00 -0.00000000000E+00 -0.13867324698E+04  0.13867324698E+04  0.00000000000E+00 0. -1.
         25    2    1    2    0    0  0.27053166167E+02  0.22791904670E+02  0.10038171378E+03  0.16417114256E+03  0.12499732344E+03 0.  0.
          2    1    1    2  501    0 -0.35000421595E+02 -0.83611394655E+00 -0.13544252564E+04  0.13548776711E+04  0.00000000000E+00 0. -1.
          1    1    1    2  502    0  0.79472554278E+01 -0.21955790724E+02  0.73148279782E+03  0.73185538129E+03  0.00000000000E+00 0. -1.
         22    1    3    3    0    0  0.53326906893E+02 -0.16322634491E+02  0.28361540376E+01  0.55841124319E+02  0.00000000000E+00 0.  1.
         22    1    3    3    0    0 -0.26273740725E+02  0.39114539161E+02  0.97545559743E+02  0.10833001824E+03  0.00000000000E+00 0.  1.
</event>
<event>
 7    1  0.1019170E-005  0.5010246E+02  0.7818608E-02  0.1452619E+00
          2   -1    0    0  502    0  0.00000000000E+00  0.00000000000E+00  0.10665192882E+04  0.10665192882E+04  0.00000000000E+00 0. -1.
          1   -1    0    0  501    0 -0.00000000000E+00 -0.00000000000E+00 -0.11610409683E+04  0.11610409683E+04  0.00000000000E+00 0. -1.
         25    2    1    2    0    0 -0.11139013814E+02  0.55281994616E+02 -0.33168131620E+03  0.35891071904E+03  0.12499692863E+03 0.  0.
          2    1    1    2  501    0 -0.33801626659E+02 -0.33071697768E+02 -0.81446203566E+03  0.81583374206E+03  0.00000000000E+00 0. -1.
          1    1    1    2  502    0  0.44940640474E+02 -0.22210296848E+02  0.10516216718E+04  0.10528157954E+04  0.00000000000E+00 0. -1.
         22    1    3    3    0    0 -0.43181987487E+02 -0.25540872977E+02 -0.12403388543E+03  0.13379620686E+03  0.00000000000E+00 0. -1.
         22    1    3    3    0    0  0.32042973672E+02  0.80822867593E+02 -0.20764743077E+03  0.22511451218E+03  0.00000000000E+00 0. -1.
</event>
<event>
 7    1  0.5127424E-006  0.1048927E+03  0.7818608E-02  0.1337273E+00
          2   -1    0    0  502    0  0.00000000000E+00  0.00000000000E+00  0.27396365036E+04  0.27396365036E+04  0.00000000000E+00 0. -1.
          1   -1    0    0  501    0 -0.00000000000E+00 -0.00000000000E+00 -0.20678573112E+03  0.20678573112E+03  0.00000000000E+00 0. -1.
         25    2    1    2    0    0 -0.89575448394E+02  0.19357332017E+02  0.47719678272E+03  0.50173846180E+03  0.12500498930E+03 0.  0.
          2    1    1    2  501    0  0.12204196562E+02  0.55450768279E+02 -0.18905470729E+03  0.19739658676E+03  0.00000000000E+00 0. -1.
          1    1    1    2  502    0  0.77371251832E+02 -0.74808100295E+02  0.22447086971E+04  0.22472871862E+04  0.00000000000E+00 0. -1.
         22    1    3    3    0    0 -0.88964654481E+02 -0.58925439537E+01  0.46539748292E+03  0.47386100170E+03  0.00000000000E+00 0.  1.
         22    1    3    3    0    0 -0.61079391342E+00  0.25249875971E+02  0.11799299798E+02  0.27877460097E+02  0.00000000000E+00 0.  1.
</event>
<event>
 7    1  0.5127424E-006  0.9002819E+02  0.7818608E-02  0.1383955E+00
          2   -1    0    0  502    0  0.00000000000E+00  0.00000000000E+00  0.63905410779E+02  0.63905410779E+02  0.00000000000E+00 0. -1.
          1   -1    0    0  501    0 -0.00000000000E+00 -0.00000000000E+00 -0.37115286506E+03  0.37115286506E+03  0.00000000000E+00 0. -1.
         25    2    1    2    0    0  0.96423676747E+02 -0.44651763553E+02 -0.11206785966E+03  0.19868447130E+03  0.12500003416E+03 0.  0.
          2    1    1    2  501    0 -0.56833173299E+02  0.65399703381E+02 -0.10851841922E+03  0.13886460348E+03  0.00000000000E+00 0. -1.
          1    1    1    2  502    0 -0.39590503448E+02 -0.20747939827E+02 -0.86661175401E+02  0.97509201064E+02  0.00000000000E+00 0. -1.
         22    1    3    3    0    0  0.10947136390E+03 -0.67197605479E+02 -0.11508058439E+03  0.17246170183E+03  0.00000000000E+00 0. -1.
         22    1    3    3    0    0 -0.13047687151E+02  0.22545841926E+02  0.30127247263E+01  0.26222769465E+02  0.00000000000E+00 0. -1.
</event>
<event>
 7    1  0.5127424E-006  0.1014187E+03  0.7818608E-02  0.1353113E+00
          2   -1    0    0  502    0  0.00000000000E+00  0.00000000000E+00  0.15993757290E+04  0.15993757290E+04  0.00000000000E+00 0. -1.
          1   -1    0    0  501    0 -0.00000000000E+00 -0.00000000000E+00 -0.28926252494E+03  0.28926252494E+03  0.00000000000E+00 0. -1.
         25    2    1    2    0    0  0.40313009220E+02 -0.38560415916E+02  0.24240846599E+03  0.27838569184E+03  0.12499873859E+03 0.  0.
          2    1    1    2  501    0 -0.90253513120E+02  0.50065713561E+02 -0.26094509806E+03  0.28061471185E+03  0.00000000000E+00 0. -1.
          1    1    1    2  502    0  0.49940503900E+02 -0.11505297645E+02  0.13286498361E+04  0.13296378503E+04  0.00000000000E+00 0. -1.
         22    1    3    3    0    0  0.20402396920E+02  0.96986603529E+00 -0.95651351586E+01  0.22554162605E+02  0.00000000000E+00 0.  1.
         22    1    3    3    0    0  0.19910612299E+02 -0.39530281951E+02  0.25197360115E+03  0.25583152923E+03  0.00000000000E+00 0.  1.
</event>
<event>
 7    1  0.5127424E-006  0.5206470E+02  0.7818608E-02  0.1459160E+00
          2   -1    0    0  502    0  0.00000000000E+00  0.00000000000E+00  0.47498895363E+03  0.47498895363E+03  0.00000000000E+00 0. -1.
          1   -1    0    0  501    0 -0.00000000000E+00 -0.00000000000E+00 -0.37981459125E+03  0.37981459125E+03  0.00000000000E+00 0. -1.
         25    2    1    2    0    0 -0.41429025947E+01  0.32668491438E+02  0.99872461082E+02  0.16335040847E+03  0.12499781394E+03 0.  0.
          2    1    1    2  501    0 -0.42986620105E+02 -0.58537388343E+01 -0.34456624126E+03  0.34728664009E+03  0.00000000000E+00 0. -1.
          1    1    1    2  502    0  0.47129522699E+02 -0.26814752604E+02  0.33986814255E+03  0.34416649632E+03  0.00000000000E+00 0. -1.
         22    1    3    3    0    0 -0.27335239058E+02  0.74587420181E+02  0.48345845384E+02  0.92993651985E+02  0.00000000000E+00 0.  1.
         22    1    3    3    0    0  0.23192336463E+02 -0.41918928743E+02  0.51526615699E+02  0.70356756484E+02  0.00000000000E+00 0.  1.
</event>
<event>
 7    1  0.5127424E-006  0.1086263E+03  0.7818608E-02  0.1273049E+00
          2   -1    0    0  502    0  0.00000000000E+00  0.00000000000E+00  0.20254499756E+03  0.20254499756E+03  0.00000000000E+00 0. -1.
          1   -1    0    0  501    0 -0.00000000000E+00 -0.00000000000E+00 -0.11905811293E+04  0.11905811293E+04  0.00000000000E+00 0. -1.
         25    2    1    2    0    0 -0.61357386341E+02 -0.29105075878E+02  0.85172676732E+01  0.14251046021E+03  0.12499941247E+03 0.  0.
          2    1    1    2  501    0  0.66713870716E+01  0.11123078982E+03 -0.11011799924E+04  0.11068035832E+04  0.00000000000E+00 0. -1.
          1    1    1    2  502    0  0.54685999270E+02 -0.82125713947E+02  0.10462659298E+03  0.14381208352E+03  0.00000000000E+00 0. -1.
         22    1    3    3    0    0 -0.60971757589E+02  0.38728720753E+02 -0.80572537258E+01  0.72680041086E+02  0.00000000000E+00 0.  1.
         22    1    3    3    0    0 -0.38562875278E+00 -0.67833796631E+02  0.16574521399E+02  0.69830419120E+02  0.00000000000E+00 0.  1.
</event>
<event>
 7    1  0.5127424E-006  0.6377344E+02  0.7818608E-02  0.1460341E+00
          2   -1    0    0  502    0  0.00000000000E+00  0.00000000000E+00  0.14965338516E+03  0.14965338516E+03  0.00000000000E+00 0. -1.
          1   -1    0    0  501    0 -0.00000000000E+00 -0.00000000000E+00 -0.13800056826E+04  0.13800056826E+04  0.00000000000E+00 0. -1.
         25    2    1    2    0    0  0.99508873988E+01  0.73266372140E+02 -0.53890173457E+03  0.55812757375E+03  0.12499731041E+03 0.  0.
          2    1    1    2  501    0 -0.32380184213E+02 -0.13587633292E+02 -0.82384141221E+03  0.82458945699E+03  0.00000000000E+00 0. -1.
          1    1    1    2  502    0  0.22429296814E+02 -0.59678738848E+02  0.13239084939E+03  0.14694203697E+03  0.00000000000E+00 0. -1.
         22    1    3    3    0    0  0.80113615079E+01  0.10876211629E+03 -0.42751871951E+03  0.44120928751E+03  0.00000000000E+00 0.  1.
         22    1    3    3    0    0  0.19395258909E+01 -0.35495744150E+02 -0.11138301507E+03  0.11691828625E+03  0.00000000000E+00 0.  1.
</event>
<event>
 7    1  0.5127424E-006  0.1326994E+03  0.7818608E-02  0.1292786E+00
          2   -1    0    0  502    0  0.00000000000E+00  0.00000000000E+00  0.28194875604E+04  0.28194875604E+04  0.00000000000E+00 0. -1.
          1   -1    0    0  501    0 -0.00000000000E+00 -0.00000000000E+00 -0.11819147795E+03  0.11819147795E+03  0.00000000000E+00 0. -1.
         25    2    1    2    0    0 -0.59969079783E+02 -0.16803732569E+03  0.25833345206E+03  0.33792268644E+03  0.12499094449E+03 0.  0.
          2    1    1    2  501    0 -0.19781133581E+02  0.64009251351E+02 -0.62050108303E+02  0.91316446737E+02  0.00000000000E+00 0. -1.
          1    1    1    2  502    0  0.79750213363E+02  0.10402807434E+03  0.25050127387E+04  0.25084399051E+04  0.00000000000E+00 0. -1.
         22    1    3    3    0    0 -0.44014814689E+02 -0.72175076592E+02  0.29886719285E+02  0.89664717603E+02  0.00000000000E+00 0. -1.
         22    1    3    3    0    0 -0.15954265093E+02 -0.95862249101E+02  0.22844673277E+03  0.24825796884E+03  0.00000000000E+00 0. -1.
</event>
<event>
 7    1  0.5127424E-006  0.6427286E+02  0.7818608E-02  0.1521739E+00
          2   -1    0    0  502    0  0.00000000000E+00  0.00000000000E+00  0.11846875716E+04  0.11846875716E+04  0.00000000000E+00 0. -1.
          1   -1    0    0  501    0 -0.00000000000E+00 -0.00000000000E+00 -0.59716778381E+03  0.59716778381E+03  0.00000000000E+00 0. -1.
         25    2    1    2    0    0 -0.25091387476E+02  0.61025163039E+02  0.23377562424E+03  0.27318509116E+03  0.12500161316E+03 0.  0.
          2    1    1    2  501    0  0.43342103931E+02 -0.47481699463E+02 -0.57553437134E+03  0.57911385957E+03  0.00000000000E+00 0. -1.
          1    1    1    2  502    0 -0.18250716455E+02 -0.13543463576E+02  0.92927853487E+03  0.92955640465E+03  0.00000000000E+00 0. -1.
         22    1    3    3    0    0  0.34744975020E+02  0.71701089829E+02  0.14758135167E+03  0.16771557749E+03  0.00000000000E+00 0.  1.
         22    1    3    3    0    0 -0.59836362497E+02 -0.10675926790E+02  0.86194272568E+02  0.10546951367E+03  0.00000000000E+00 0.  1.
</event>
<event>
 7    1  0.5127424E-006  0.6002554E+02  0.7818608E-02  0.1424660E+00
          2   -1    0    0  502    0  0.00000000000E+00  0.00000000000E+00  0.89501907149E+03  0.89501907149E+03  0.00000000000E+00 0. -1.
          1   -1    0    0  501    0 -0.00000000000E+00 -0.00000000000E+00 -0.26177429850E+02  0.26177429850E+02  0.00000000000E+00 0. -1.
         25    2    1    2    0    0 -0.16960656732E+02  0.15596648494E+02  0.62785859013E+03  0.64059536848E+03  0.12500039041E+03 0.  0.
          2    1    1    2  501    0  0.63999893136E+02 -0.31263884067E+01  0.44081184841E+02  0.77774748363E+02  0.00000000000E+00 0. -1.
          1    1    1    2  502    0 -0.47039236404E+02 -0.12470260087E+02  0.19690186667E+03  0.20282638449E+03  0.00000000000E+00 0. -1.
         22    1    3    3    0    0  0.12493358446E+02  0.19475966805E+02  0.16271343993E+02  0.28286992127E+02  0.00000000000E+00 0.  1.
         22    1    3    3    0    0 -0.29454015178E+02 -0.38793183108E+01  0.61158724614E+03  0.61230837636E+03  0.00000000000E+00 0.  1.
</event>
<event>
 7    1  0.5127424E-006  0.8987813E+02  0.7818608E-02  0.1386868E+00
          2   -1    0    0  502    0  0.00000000000E+00  0.00000000000E+00  0.35201057911E+03  0.35201057911E+03  0.00000000000E+00 0. -1.
          1   -1    0    0  501    0 -0.00000000000E+00 -0.00000000000E+00 -0.13200164957E+04  0.13200164957E+04  0.00000000000E+00 0. -1.
         25    2    1    2    0    0  0.68403130924E+02  0.72912738206E+02 -0.41184032155E+02  0.16528268785E+03  0.12500794649E+03 0.  0.
          2    1    1    2  501    0 -0.83962771593E+02 -0.32044727845E+02 -0.12134631974E+04  0.12167865643E+04  0.00000000000E+00 0. -1.
          1    1    1    2  502    0  0.15559640669E+02 -0.40868010361E+02  0.28664131291E+03  0.28995782272E+03  0.00000000000E+00 0. -1.
         22    1    3    3    0    0 -0.22519898520E+02 -0.14338825604E+02 -0.27824992867E+02  0.38561353414E+02  0.00000000000E+00 0. -1.
         22    1    3    3    0    0  0.90923029444E+02  0.87251563810E+02 -0.13359039289E+02  0.12672133444E+03  0.00000000000E+00 0. -1.
</event>
<event>
 7    1  0.5127424E-006  0.7217046E+02  0.7818608E-02  0.1426039E+00
          2   -1    0    0  502    0  0.00000000000E+00  0.00000000000E+00  0.42979410706E+03  0.42979410706E+03  0.00000000000E+00 0. -1.
          1   -1    0    0  501    0 -0.00000000000E+00 -0.00000000000E+00 -0.48651781397E+03  0.48651781397E+03  0.00000000000E+00 0. -1.
         25    2    1    2    0    0 -0.56840203777E+02  0.12497504325E+02  0.16601613942E+03  0.21580959846E+03  0.12500171142E+03 0.  0.
          2    1    1    2  501    0  0.50506209252E+02 -0.52044627477E+02 -0.45706307272E+03  0.46278091238E+03  0.00000000000E+00 0. -1.
          1    1    1    2  502    0  0.63339945255E+01  0.39547123152E+02  0.23432322639E+03  0.23772141019E+03  0.00000000000E+00 0. -1.
         22    1    3    3    0    0 -0.20601879621E+02 -0.51872841079E+02  0.36441220694E+02  0.66657270055E+02  0.00000000000E+00 0. -1.
         22    1    3    3    0    0 -0.36238324156E+02  0.64370345403E+02  0.12957491873E+03  0.14915232840E+03  0.00000000000E+00 0. -1.
</event>
<event>
 7    1  0.5127424E-006  0.1549198E+03  0.7818608E-02  0.1299114E+00
          2   -1    0    0  502    0  0.00000000000E+00  0.00000000000E+00  0.20561283291E+04  0.20561283291E+04  0.00000000000E+00 0. -1.
          1   -1    0    0  501    0 -0.00000000000E+00 -0.00000000000E+00 -0.34064381676E+03  0.34064381676E+03  0.00000000000E+00 0. -1.
         25    2    1    2    0    0  0.16399092955E+02 -0.11279492480E+03  0.22239736784E+03  0.27942277169E+03  0.12499948323E+03 0.  0.
          2    1    1    2  501    0 -0.57962701948E+02  0.14744902140E+03 -0.29159009528E+03  0.33185188322E+03  0.00000000000E+00 0. -1.
          1    1    1    2  502    0  0.41563608993E+02 -0.34654096598E+02  0.17846772398E+04  0.17854974910E+04  0.00000000000E+00 0. -1.
         22    1    3    3    0    0 -0.29160782012E+01 -0.11932328767E+03  0.22879198814E+03  0.25805488627E+03  0.00000000000E+00 0. -1.
         22    1    3    3    0    0  0.19315171156E+02  0.65283628730E+01 -0.63946202991E+01  0.21367885421E+02  0.00000000000E+00 0. -1.
</event>
<event>
 7    1  0.5127424E-006  0.4979953E+02  0.7818608E-02  0.1456018E+00
          2   -1    0    0  502    0  0.00000000000E+00  0.00000000000E+00  0.54836757574E+03  0.54836757574E+03  0.00000000000E+00 0. -1.
          1   -1    0    0  501    0 -0.00000000000E+00 -0.00000000000E+00 -0.13120508896E+04  0.13120508896E+04  0.00000000000E+00 0. -1.
         25    2    1    2    0    0 -0.76584144442E+02 -0.30347522491E+02  0.31075898224E+03  0.34493640344E+03  0.12499549622E+03 0.  0.
          2    1    1    2  501    0  0.49250700615E+02 -0.71562290640E+01 -0.12920362307E+04  0.12929943792E+04  0.00000000000E+00 0. -1.
          1    1    1    2  502    0  0.27333443827E+02  0.37503751555E+02  0.21759393467E+03  0.22248768267E+03  0.00000000000E+00 0. -1.
         22    1    3    3    0    0 -0.10283613691E+03 -0.32729397008E+02  0.29524451787E+03  0.31434982077E+03  0.00000000000E+00 0.  1.
         22    1    3    3    0    0  0.26251992469E+02  0.23818745177E+01  0.15514464361E+02  0.30586582666E+02  0.00000000000E+00 0.  1.
</event>
<event>
 7    1  0.5127424E-006  0.4542171E+02  0.7818608E-02  0.1476835E+00
          2   -1    0    0  502    0  0.00000000000E+00  0.00000000000E+00  0.20881487535E+04  0.20881487535E+04  0.00000000000E+00 0. -1.
          1   -1    0    0  501    0 -0.00000000000E+00 -0.00000000000E+00 -0.13696211643E+03  0.13696211643E+03  0.00000000000E+00 0. -1.
         25    2    1    2    0    0 -0.37534248745E+02 -0.15212124807E+02 -0.16184483587E+02  0.13238827753E+03  0.12499795978E+03 0.  0.
          2    1    1    2  501    0  0.31954520549E+02 -0.29954729522E+02 -0.54736321282E+02  0.70103081757E+02  0.00000000000E+00 0. -1.
          1    1    1    2  502    0  0.55797281963E+01  0.45166854329E+02  0.20221074420E+04  0.20226195107E+04  0.00000000000E+00 0. -1.
         22    1    3    3    0    0  0.31990135738E+02  0.19008717979E+02 -0.36662272320E+02  0.52238131240E+02  0.00000000000E+00 0. -1.
         22    1    3    3    0    0 -0.69524384484E+02 -0.34220842786E+02  0.20477788733E+02  0.80150146289E+02  0.00000000000E+00 0. -1.
</event>
<event>
 7    1  0.5127424E-006  0.4215170E+02  0.7818608E-02  0.1523399E+00
          2   -1    0    0  502    0  0.00000000000E+00  0.00000000000E+00  0.28031576655E+03  0.28031576655E+03  0.00000000000E+00 0. -1.
          1   -1    0    0  501    0 -0.00000000000E+00 -0.00000000000E+00 -0.30664650432E+03  0.30664650432E+03  0.00000000000E+00 0. -1.
         25    2    1    2    0    0 -0.43094847162E+02  0.58892114343E+02  0.13591615085E+03  0.19855307471E+03  0.12499870573E+03 0.  0.
          2    1    1    2  501    0  0.18341417970E+02 -0.28951968180E+02 -0.27087967872E+03  0.27303923605E+03  0.00000000000E+00 0. -1.
          1    1    1    2  502    0  0.24753429193E+02 -0.29940146163E+02  0.10863279010E+03  0.11536996011E+03  0.00000000000E+00 0. -1.
         22    1    3    3    0    0 -0.46040950513E+02 -0.18773180964E+02  0.10207064883E+02  0.50758108920E+02  0.00000000000E+00 0.  1.
         22    1    3    3    0    0  0.29461033508E+01  0.77665295307E+02  0.12570908596E+03  0.14779496579E+03  0.00000000000E+00 0.  1.
</event>
<event>
 7    1  0.5127424E-006  0.8712342E+02  0.7818608E-02  0.1365499E+00
          2   -1    0    0  502    0  0.00000000000E+00  0.00000000000E+00  0.14549416205E+04  0.14549416205E+04  0.00000000000E+00 0. -1.
          1   -1    0    0  501    0 -0.00000000000E+00 -0.00000000000E+00 -0.26281015900E+03  0.26281015900E+03  0.00000000000E+00 0. -1.
         25    2    1    2    0    0 -0.66531340078E+02 -0.11961553315E+03  0.10891347379E+03  0.21499138795E+03  0.12499942854E+03 0.  0.
          2    1    1    2  501    0  0.13694582420E+02  0.51980635689E+02 -0.20487584316E+03  0.21181038498E+03  0.00000000000E+00 0. -1.
          1    1    1    2  502    0  0.52836757658E+02  0.67634897465E+02  0.12880938309E+04  0.12909500065E+04  0.00000000000E+00 0. -1.
         22    1    3    3    0    0  0.28929863681E+01 -0.81913299520E+02  0.19132292109E+01  0.81986696814E+02  0.00000000000E+00 0.  1.
         22    1    3    3    0    0 -0.69424326446E+02 -0.37702233633E+02  0.10700024458E+03  0.13300469113E+03  0.00000000000E+00 0.  1.
</event>
<event>
 7    1  0.5127424E-006  0.8116924E+02  0.7818608E-02  0.1342572E+00
          2   -1    0    0  502    0  0.00000000000E+00  0.00000000000E+00  0.18859029860E+04  0.18859029860E+04  0.00000000000E+00 0. -1.
          1   -1    0    0  501    0 -0.00000000000E+00 -0.00000000000E+00 -0.70010611375E+02  0.70010611375E+02  0.00000000000E+00 0. -1.
         25    2    1    2    0    0 -0.53997454815E+02 -0.72967140677E+01  0.41191919421E+03  0.43390217025E+03  0.12499881449E+03 0.  0.
          2    1    1    2  501    0  0.57041650589E+02 -0.62717037307E+02 -0.27268743335E+02  0.89054820384E+02  0.00000000000E+00 0. -1.
          1    1    1    2  502    0 -0.30441957735E+01  0.70013751375E+02  0.14312419238E+04  0.14329566068E+04  0.00000000000E+00 0. -1.
         22    1    3    3    0    0  0.13165752215E+02 -0.27421752937E+02  0.30198138913E+03  0.30350955330E+03  0.00000000000E+00 0.  1.
         22    1    3    3    0    0 -0.67163207031E+02  0.20125038869E+02  0.10993780508E+03  0.13039261695E+03  0.00000000000E+00 0.  1.
</event>
<event>
 7    1  0.5127424E-006  0.1000665E+03  0.7818608E-02  0.1422829E+00
          2   -1    0    0  502    0  0.00000000000E+00  0.00000000000E+00  0.71232096330E+03  0.71232096330E+03  0.00000000000E+00 0. -1.
          1   -1    0    0  501    0 -0.00000000000E+00 -0.00000000000E+00 -0.83587217708E+03  0.83587217708E+03  0.00000000000E+00 0. -1.
         25    2    1    2    0    0 -0.82838062329E+02  0.82269244370E+02 -0.72971215175E+02  0.18596130230E+03  0.12500573814E+03 0.  0.
          2    1    1    2  501    0  0.29539398139E+02  0.19425997281E+01 -0.70230609002E+03  0.70292972182E+03  0.00000000000E+00 0. -1.
          1    1    1    2  502    0  0.53298664190E+02 -0.84211844098E+02  0.65172609141E+03  0.65930211627E+03  0.00000000000E+00 0. -1.
         22    1    3    3    0    0 -0.98390448443E+02  0.99897040057E+02 -0.40636293567E+02  0.14598427077E+03  0.00000000000E+00 0.  1.
         22    1    3    3    0    0  0.15552386114E+02 -0.17627795687E+02 -0.32334921607E+02  0.39977031530E+02  0.00000000000E+00 0.  1.
</event>
<event>
 7    1  0.5127424E-006  0.2310760E+03  0.7818608E-02  0.1262216E+00
          2   -1    0    0  502    0  0.00000000000E+00  0.00000000000E+00  0.33123734516E+04  0.33123734516E+04  0.00000000000E+00 0. -1.
          1   -1    0    0  501    0 -0.00000000000E+00 -0.00000000000E+00 -0.49032989060E+03  0.49032989060E+03  0.00000000000E+00 0. -1.
         25    2    1    2    0    0 -0.22937939056E+03  0.10905003530E+03 -0.27837041055E+03  0.39701665799E+03  0.12500130494E+03 0.  0.
          2    1    1    2  501    0  0.19044167489E+03 -0.75304956636E+02 -0.83643164743E+02  0.22121267377E+03  0.00000000000E+00 0. -1.
          1    1    1    2  502    0  0.38937715671E+02 -0.33745078660E+02  0.31840571363E+04  0.31844740105E+04  0.00000000000E+00 0. -1.
         22    1    3    3    0    0 -0.11570271481E+03  0.15674846977E+02 -0.19673489082E+03  0.22877376665E+03  0.00000000000E+00 0.  1.
         22    1    3    3    0    0 -0.11367667575E+03  0.93375188319E+02 -0.81635519732E+02  0.16824289134E+03  0.00000000000E+00 0.  1.
</event>
<event>
 7    1  0.5127424E-006  0.9985369E+02  0.7818608E-02  0.1298523E+00
          2   -1    0    0  502    0  0.00000000000E+00  0.00000000000E+00  0.44689632039E+03  0.44689632039E+03  0.00000000000E+00 0. -1.
          1   -1    0    0  501    0 -0.00000000000E+00 -0.00000000000E+00 -0.11388060815E+03  0.11388060815E+03  0.00000000000E+00 0. -1.
         25    2    1    2    0    0 -0.10071024478E+02 -0.12483337333E+01  0.98190255446E+02  0.15927878750E+03  0.12500168804E+03 0.  0.
          2    1    1    2  501    0  0.74056742448E+02  0.77907232553E+02 -0.35596066641E+02  0.11322993397E+03  0.00000000000E+00 0. -1.
          1    1    1    2  502    0 -0.63985717970E+02 -0.76658898820E+02  0.27042152344E+03  0.28826820708E+03  0.00000000000E+00 0. -1.
         22    1    3    3    0    0 -0.70483829196E+01 -0.46787464712E+02 -0.38753996873E+01  0.47473837834E+02  0.00000000000E+00 0. -1.
         22    1    3    3    0    0 -0.30226415588E+01  0.45539130979E+02  0.10206565513E+03  0.11180494967E+03  0.00000000000E+00 0. -1.
</event>
<event>
 7    1  0.5127424E-006  0.7058041E+02  0.7818608E-02  0.1467980E+00
          2   -1    0    0  502    0  0.00000000000E+00  0.00000000000E+00  0.16453310661E+03  0.16453310661E+03  0.00000000000E+00 0. -1.
          1   -1    0    0  501    0 -0.00000000000E+00 -0.00000000000E+00 -0.18113700714E+03  0.18113700714E+03  0.00000000000E+00 0. -1.
         25    2    1    2    0    0  0.10287831849E+02  0.42064961726E+02 -0.78490590461E+02  0.15382415814E+03  0.12500319335E+03 0.  0.
          2    1    1    2  501    0  0.28747867453E+01  0.29887998428E+02 -0.49910083226E+02  0.58245800333E+02  0.00000000000E+00 0. -1.
          1    1    1    2  502    0 -0.13162618595E+02 -0.71952960155E+02  0.11179677316E+03  0.13360015528E+03  0.00000000000E+00 0. -1.
         22    1    3    3    0    0  0.22622779467E+02  0.84808885734E+02 -0.53611392092E+02  0.10285192566E+03  0.00000000000E+00 0.  1.
         22    1    3    3    0    0 -0.12334947617E+02 -0.42743924008E+02 -0.24879198369E+02  0.50972232478E+02  0.00000000000E+00 0.  1.
</event>
<event>
 7    1  0.5127424E-006  0.5874661E+02  0.7818608E-02  0.1487344E+00
          2   -1    0    0  502    0  0.00000000000E+00  0.00000000000E+00  0.24487179558E+02  0.24487179558E+02  0.00000000000E+00 0. -1.
          1   -1    0    0  501    0 -0.00000000000E+00 -0.00000000000E+00 -0.55389818359E+03  0.55389818359E+03  0.00000000000E+00 0. -1.
         25    2    1    2    0    0 -0.51391577411E+02  0.56819449480E+02 -0.31052818131E+03  0.34340847680E+03  0.12502834271E+03 0.  0.
          2    1    1    2  501    0  0.29225003096E+02 -0.11615185938E+02 -0.53061567240E+02  0.61680979793E+02  0.00000000000E+00 0. -1.
          1    1    1    2  502    0  0.22166574315E+02 -0.45204263542E+02 -0.16582125547E+03  0.17329590655E+03  0.00000000000E+00 0. -1.
         22    1    3    3    0    0 -0.70054271832E+02  0.17340709172E+01 -0.24929236888E+03  0.25895422991E+03  0.00000000000E+00 0. -1.
         22    1    3    3    0    0  0.18662694421E+02  0.55085378563E+02 -0.61235812430E+02  0.84454246894E+02  0.00000000000E+00 0. -1.
</event>
<event>
 7    1  0.5127424E-006  0.1244223E+03  0.7818608E-02  0.1325182E+00
          2   -1    0    0  502    0  0.00000000000E+00  0.00000000000E+00  0.93829845069E+02  0.93829845069E+02  0.00000000000E+00 0. -1.
          1   -1    0    0  501    0 -0.00000000000E+00 -0.00000000000E+00 -0.60314372979E+03  0.60314372979E+03  0.00000000000E+00 0. -1.
         25    2    1    2    0    0  0.31293262894E+02  0.91474202355E+02 -0.12100473265E+03  0.19903306366E+03  0.12500086842E+03 0.  0.
          2    1    1    2  501    0 -0.83031911376E+02 -0.10397177794E+03 -0.41683154975E+03  0.43755339078E+03  0.00000000000E+00 0. -1.
          1    1    1    2  502    0  0.51738648482E+02  0.12497575585E+02  0.28522397687E+02  0.60387120416E+02  0.00000000000E+00 0. -1.
         22    1    3    3    0    0  0.17078458311E+02  0.88891919788E+00 -0.10446983828E+03  0.10586033736E+03  0.00000000000E+00 0.  1.
         22    1    3    3    0    0  0.14214804583E+02  0.90585283157E+02 -0.16534894371E+02  0.93172726298E+02  0.00000000000E+00 0.  1.
</event>
<event>
 7    1  0.5127424E-006  0.5808604E+02  0.7818608E-02  0.1525027E+00
          2   -1    0    0  502    0  0.00000000000E+00  0.00000000000E+00  0.11164109100E+04  0.11164109100E+04  0.00000000000E+00 0. -1.
          1   -1    0    0  501    0 -0.00000000000E+00 -0.00000000000E+00 -0.18883405732E+03  0.18883405732E+03  0.00000000000E+00 0. -1.
         25    2    1    2    0    0  0.14593666756E+02  0.61255259676E+02  0.15350699793E+03  0.20773616221E+03  0.12499893092E+03 0.  0.
          2    1    1    2  501    0 -0.34468316224E+02 -0.46752967854E+02 -0.15633592973E+03  0.16677777954E+03  0.00000000000E+00 0. -1.
          1    1    1    2  502    0  0.19874649468E+02 -0.14502291822E+02  0.93040578451E+03  0.93073102560E+03  0.00000000000E+00 0. -1.
         22    1    3    3    0    0 -0.61383278135E+01  0.89116540553E+02  0.59008031461E+02  0.10705785653E+03  0.00000000000E+00 0. -1.
         22    1    3    3    0    0  0.20731994569E+02 -0.27861280878E+02  0.94498966466E+02  0.10067830568E+03  0.00000000000E+00 0. -1.
</event>
<event>
 7    1  0.5127424E-006  0.6769090E+02  0.7818608E-02  0.1463939E+00
          2   -1    0    0  502    0  0.00000000000E+00  0.00000000000E+00  0.12182395892E+03  0.12182395892E+03  0.00000000000E+00 0. -1.
          1   -1    0    0  501    0 -0.00000000000E+00 -0.00000000000E+00 -0.82445339788E+03  0.82445339788E+03  0.00000000000E+00 0. -1.
         25    2    1    2    0    0 -0.27336701045E+02 -0.32592866304E+02 -0.25133802507E+02  0.13439794074E+03  0.12498603237E+03 0.  0.
          2    1    1    2  501    0 -0.14244959257E+02 -0.28913918440E+02 -0.72370986476E+03  0.72442729235E+03  0.00000000000E+00 0. -1.
          1    1    1    2  502    0  0.41581660302E+02  0.61506784744E+02  0.46214228316E+02  0.87452123713E+02  0.00000000000E+00 0. -1.
         22    1    3    3    0    0 -0.53512045182E+02 -0.49335012915E+02 -0.55055767235E+02  0.91261273192E+02  0.00000000000E+00 0. -1.
         22    1    3    3    0    0  0.26175344137E+02  0.16742146611E+02  0.29921964728E+02  0.43136667547E+02  0.00000000000E+00 0. -1.
</event>
<event>
 7    1  0.5127424E-006  0.6709142E+02  0.7818608E-02  0.1401316E+00
          2   -1    0    0  502    0  0.00000000000E+00  0.00000000000E+00  0.94602088092E+03  0.94602088092E+03  0.00000000000E+00 0. -1.
          1   -1    0    0  501    0 -0.00000000000E+00 -0.00000000000E+00 -0.42793468120E+02  0.42793468120E+02  0.00000000000E+00 0. -1.
         25    2    1    2    0    0 -0.69209967196E+01  0.11550800275E+03  0.52474729157E+03  0.55170213710E+03  0.12500211667E+03 0.  0.
          2    1    1    2  501    0  0.71309230157E-01 -0.63762035142E+02  0.95089466578E+01  0.64467218623E+02  0.00000000000E+00 0. -1.
          1    1    1    2  502    0  0.68496874895E+01 -0.51745967605E+02  0.36897117456E+03  0.37264499331E+03  0.00000000000E+00 0. -1.
         22    1    3    3    0    0 -0.20531034365E+02 -0.17030705262E+02  0.18243179250E+03  0.18437170935E+03  0.00000000000E+00 0.  1.
         22    1    3    3    0    0  0.13610037645E+02  0.13253870801E+03  0.34231549907E+03  0.36733042775E+03  0.00000000000E+00 0.  1.
</event>
<event>
 7    1  0.5127424E-006  0.1619189E+03  0.7818608E-02  0.1363113E+00
          2   -1    0    0  502    0  0.00000000000E+00  0.00000000000E+00  0.13358622155E+04  0.13358622155E+04  0.00000000000E+00 0. -1.
          1   -1    0    0  501    0 -0.00000000000E+00 -0.00000000000E+00 -0.97810532952E+03  0.97810532952E+03  0.00000000000E+00 0. -1.
         25    2    1    2    0    0 -0.16299979211E+03  0.24149524527E+01 -0.24532891428E+03  0.31997841058E+03  0.12500057132E+03 0.  0.
          2    1    1    2  501    0  0.41711367487E+01  0.29209324771E+02 -0.69008593111E+03  0.69071642181E+03  0.00000000000E+00 0. -1.
          1    1    1    2  502    0  0.15882865536E+03 -0.31624277224E+02  0.12931717314E+04  0.13032727126E+04  0.00000000000E+00 0. -1.
         22    1    3    3    0    0  0.14171115110E+01  0.22819234499E+02 -0.90054540518E+02  0.92911495177E+02  0.00000000000E+00 0.  1.
         22    1    3    3    0    0 -0.16441690362E+03 -0.20404282047E+02 -0.15527437377E+03  0.22706691540E+03  0.00000000000E+00 0.  1.
</event>
<event>
 7    1  0.5127424E-006  0.6378085E+02  0.7818608E-02  0.1447566E+00
          2   -1    0    0  502    0  0.00000000000E+00  0.00000000000E+00  0.13508776099E+04  0.13508776099E+04  0.00000000000E+00 0. -1.
          1   -1    0    0  501    0 -0.00000000000E+00 -0.00000000000E+00 -0.10697171865E+03  0.10697171865E+03  0.00000000000E+00 0. -1.
         25    2    1    2    0    0  0.64419228641E+02  0.33711998501E+02  0.36040153591E+03  0.38833007464E+03  0.12499857570E+03 0.  0.
          2    1    1    2  501    0 -0.32086788031E+02  0.21378462249E+02 -0.87916985933E+02  0.95999984530E+02  0.00000000000E+00 0. -1.
          1    1    1    2  502    0 -0.32332440611E+02 -0.55090460750E+02  0.97142134127E+03  0.97351926938E+03  0.00000000000E+00 0. -1.
         22    1    3    3    0    0  0.96365335300E+02  0.31712456559E+02  0.32563796796E+03  0.34107483626E+03  0.00000000000E+00 0.  1.
         22    1    3    3    0    0 -0.31946106659E+02  0.19995419419E+01  0.34763567944E+02  0.47255238386E+02  0.00000000000E+00 0.  1.
</event>
<event>
 7    1  0.9053649E-006  0.9987557E+02  0.7818608E-02  0.1368200E+00
          2   -1    0    0  502    0  0.00000000000E+00  0.00000000000E+00  0.13704440116E+04  0.13704440116E+04  0.00000000000E+00 0. -1.
          1   -1    0    0  501    0 -0.00000000000E+00 -0.00000000000E+00 -0.11420322729E+04  0.11420322729E+04  0.00000000000E+00 0. -1.
         25    2    1    2    0    0  0.63086627692E+02  0.24522314137E+02 -0.78070585653E+02  0.16217622953E+03  0.12499938639E+03 0.  0.
          2    1    1    2  501    0  0.95970753540E+01  0.44833806796E+02 -0.10194933795E+04  0.10205238483E+04  0.00000000000E+00 0. -1.
          1    1    1    2  502    0 -0.72683703046E+02 -0.69356120932E+02  0.13259757040E+04  0.13297762066E+04  0.00000000000E+00 0. -1.
         22    1    3    3    0    0  0.55412770827E+01 -0.46199305727E+02 -0.46253437391E+02  0.65608399400E+02  0.00000000000E+00 0. -1.
         22    1    3    3    0    0  0.57545350610E+02  0.70721619864E+02 -0.31817148262E+02  0.96567830132E+02  0.00000000000E+00 0. -1.
</event>
<event>
 7    1  0.5127424E-006  0.8718709E+02  0.7818608E-02  0.1440673E+00
          2   -1    0    0  502    0  0.00000000000E+00  0.00000000000E+00  0.73270786356E+03  0.73270786356E+03  0.00000000000E+00 0. -1.
          1   -1    0    0  501    0 -0.00000000000E+00 -0.00000000000E+00 -0.24270032367E+03  0.24270032367E+03  0.00000000000E+00 0. -1.
         25    2    1    2    0    0 -0.46634372120E+02 -0.62119463768E+02  0.37899122377E+03  0.40656100187E+03  0.12499563237E+03 0.  0.
          2    1    1    2  501    0  0.15582723203E+02 -0.25269164168E+02 -0.22158147648E+03  0.22356140686E+03  0.00000000000E+00 0. -1.
          1    1    1    2  502    0  0.31051648917E+02  0.87388627936E+02  0.33259779260E+03  0.34528577850E+03  0.00000000000E+00 0. -1.
         22    1    3    3    0    0 -0.18695327162E+02  0.29910227799E+02  0.36239521026E+02  0.50571136717E+02  0.00000000000E+00 0. -1.
         22    1    3    3    0    0 -0.27939044958E+02 -0.92029691567E+02  0.34275170274E+03  0.35598986516E+03  0.00000000000E+00 0. -1.
</event>
<event>
 7    1  0.5127424E-006  0.3751965E+02  0.7818608E-02  0.1532095E+00
          2   -1    0    0  502    0  0.00000000000E+00  0.00000000000E+00  0.28803500792E+02  0.28803500792E+02  0.00000000000E+00 0. -1.
          1   -1    0    0  501    0 -0.00000000000E+00 -0.00000000000E+00 -0.12286552611E+04  0.12286552611E+04  0.00000000000E+00 0. -1.
         25    2    1    2    0    0  0.94333809989E+01  0.14047723113E+02 -0.24730502075E+03  0.27759050396E+03  0.12494153593E+03 0.  0.
          2    1    1    2  501    0 -0.37150011404E+02  0.94719514159E+01 -0.94092361203E+03  0.94170435110E+03  0.00000000000E+00 0. -1.
          1    1    1    2  502    0  0.27716630405E+02 -0.23519674529E+02 -0.11623127530E+02  0.38163906830E+02  0.00000000000E+00 0. -1.
         22    1    3    3    0    0 -0.54405324309E+02  0.27218661518E+02 -0.11494337062E+03  0.13004911879E+03  0.00000000000E+00 0.  1.
         22    1    3    3    0    0  0.63838705308E+02 -0.13170938405E+02 -0.13236165012E+03  0.14754138517E+03  0.00000000000E+00 0.  1.
</event>
<event>
 7    1  0.5127424E-006  0.1844442E+03  0.7818608E-02  0.1211775E+00
          2   -1    0    0  502    0  0.00000000000E+00  0.00000000000E+00  0.18732917813E+03  0.18732917813E+03  0.00000000000E+00 0. -1.
          1   -1    0    0  501    0 -0.00000000000E+00 -0.00000000000E+00 -0.69582027101E+03  0.69582027101E+03  0.00000000000E+00 0. -1.
         25    2    1    2    0    0  0.22210517238E+02 -0.98158232876E+02 -0.29477726075E+02  0.16316401298E+03  0.12500085215E+03 0.  0.
          2    1    1    2  501    0 -0.33673886389E+02  0.20558341894E+03 -0.55173542888E+03  0.58975457289E+03  0.00000000000E+00 0. -1.
          1    1    1    2  502    0  0.11463369151E+02 -0.10742518606E+03  0.72722062075E+02  0.13023086326E+03  0.00000000000E+00 0. -1.
         22    1    3    3    0    0  0.15321771613E+02 -0.25593150595E+02  0.48173691476E+02  0.56661014755E+02  0.00000000000E+00 0. -1.
         22    1    3    3    0    0  0.68887456255E+01 -0.72565082281E+02 -0.77651417551E+02  0.10650299822E+03  0.00000000000E+00 0. -1.
</event>
<event>
 7    1  0.5127424E-006  0.1005707E+03  0.7818608E-02  0.1366655E+00
          2   -1    0    0  502    0  0.00000000000E+00  0.00000000000E+00  0.13455514370E+04  0.13455514370E+04  0.00000000000E+00 0. -1.
          1   -1    0    0  501    0 -0.00000000000E+00 -0.00000000000E+00 -0.12224152679E+04  0.12224152679E+04  0.00000000000E+00 0. -1.
         25    2    1    2    0    0  0.87429082472E+02 -0.49758085594E+02  0.64823058548E+03  0.66779258431E+03  0.12499732861E+03 0.  0.
          2    1    1    2  501    0  0.15900331219E+02  0.43293455885E+02 -0.12082943155E+04  0.12091742210E+04  0.00000000000E+00 0. -1.
          1    1    1    2  502    0 -0.10332941369E+03  0.64646297092E+01  0.68319989904E+03  0.69099989958E+03  0.00000000000E+00 0. -1.
         22    1    3    3    0    0  0.61904485557E+02 -0.88188066644E+02  0.53079023265E+03  0.54161570463E+03  0.00000000000E+00 0. -1.
         22    1    3    3    0    0  0.25524596915E+02  0.38429981050E+02  0.11744035284E+03  0.12617687968E+03  0.00000000000E+00 0. -1.
</event>
<event>
 7    1  0.5127424E-006  0.6010641E+02  0.7818608E-02  0.1401723E+00
          2   -1    0    0  502    0  0.00000000000E+00  0.00000000000E+00  0.23100585209E+04  0.23100585209E+04  0.00000000000E+00 0. -1.
          1   -1    0    0  501    0 -0.00000000000E+00 -0.00000000000E+00 -0.15858962669E+02  0.15858962669E+02  0.00000000000E+00 0. -1.
         25    2    1    2    0    0  0.53358626905E+02 -0.33076268075E+02  0.53031451706E+03  0.54845190583E+03  0.12499929370E+03 0.  0.
          2    1    1    2  501    0 -0.15298323258E+01  0.63515659549E+02  0.15578361965E+03  0.16824124211E+03  0.00000000000E+00 0. -1.
          1    1    1    2  502    0 -0.51828794579E+02 -0.30439391474E+02  0.16081014215E+04  0.16092243356E+04  0.00000000000E+00 0. -1.
         22    1    3    3    0    0  0.75566839192E+02 -0.19825991046E+02  0.50893996441E+03  0.51490125702E+03  0.00000000000E+00 0.  1.
         22    1    3    3    0    0 -0.22208212288E+02 -0.13250277029E+02  0.21374552647E+02  0.33550648805E+02  0.00000000000E+00 0.  1.
</event>
<event>
 7    1  0.5127424E-006  0.8171696E+02  0.7818608E-02  0.1345087E+00
          2   -1    0    0  502    0  0.00000000000E+00  0.00000000000E+00  0.10756639511E+04  0.10756639511E+04  0.00000000000E+00 0. -1.
          1   -1    0    0  501    0 -0.00000000000E+00 -0.00000000000E+00 -0.30028236427E+03  0.30028236427E+03  0.00000000000E+00 0. -1.
         25    2    1    2    0    0  0.18645034929E+02 -0.68185199470E+02  0.86926015232E+03  0.88104205131E+03  0.12500010006E+03 0.  0.
          2    1    1    2  501    0  0.69070565594E+02  0.43668277595E+02 -0.27785271643E+03  0.28962008481E+03  0.00000000000E+00 0. -1.
          1    1    1    2  502    0 -0.87715600523E+02  0.24516921875E+02  0.18397415090E+03  0.20528417921E+03  0.00000000000E+00 0. -1.
         22    1    3    3    0    0  0.45091632209E+02 -0.95257616758E+02  0.66627570399E+03  0.67455954709E+03  0.00000000000E+00 0. -1.
         22    1    3    3    0    0 -0.26446597280E+02  0.27072417288E+02  0.20298444834E+03  0.20648250423E+03  0.00000000000E+00 0. -1.
</event>
<event>
 7    1  0.5127424E-006  0.3474481E+02  0.7818608E-02  0.1589577E+00
          2   -1    0    0  502    0  0.00000000000E+00  0.00000000000E+00  0.10775195085E+04  0.10775195085E+04  0.00000000000E+00 0. -1.
          1   -1    0    0  501    0 -0.00000000000E+00 -0.00000000000E+00 -0.19565236015E+03  0.19565236015E+03  0.00000000000E+00 0. -1.
         25    2    1    2    0    0 -0.32518873191E+02  0.42601584337E+02  0.36899612841E+03  0.39326466460E+03  0.12500632599E+03 0.  0.
          2    1    1    2  501    0  0.31099689534E+02 -0.15363253633E+02 -0.18160889273E+03  0.18489188779E+03  0.00000000000E+00 0. -1.
          1    1    1    2  502    0  0.14191836565E+01 -0.27238330705E+02  0.69447991266E+03  0.69501531626E+03  0.00000000000E+00 0. -1.
         22    1    3    3    0    0  0.52746051265E+01 -0.42000160357E+02  0.13908188055E+03  0.14538089429E+03  0.00000000000E+00 0.  1.
         22    1    3    3    0    0 -0.37793478317E+02  0.84601744694E+02  0.22991424787E+03  0.24788377030E+03  0.00000000000E+00 0.  1.
</event>
<event>
 7    1  0.5127424E-006  0.2850127E+03  0.7818608E-02  0.1160863E+00
          2   -1    0    0  502    0  0.00000000000E+00  0.00000000000E+00  0.21997052772E+03  0.21997052772E+03  0.00000000000E+00 0. -1.
          1   -1    0    0  501    0 -0.00000000000E+00 -0.00000000000E+00 -0.10038764893E+04  0.10038764893E+04  0.00000000000E+00 0. -1.
         25    2    1    2    0    0 -0.26223767216E+03 -0.24146859484E+02 -0.20287761551E+03  0.35515508587E+03  0.12499656244E+03 0.  0.
          2    1    1    2  501    0 -0.74282000983E+01 -0.12294381316E+03 -0.54577734474E+03  0.55950269828E+03  0.00000000000E+00 0. -1.
          1    1    1    2  502    0  0.26966587226E+03  0.14709067265E+03 -0.35251001366E+02  0.30918923290E+03  0.00000000000E+00 0. -1.
         22    1    3    3    0    0 -0.88207926573E+02  0.23283369221E+02 -0.13393035667E+03  0.16204966532E+03  0.00000000000E+00 0.  1.
         22    1    3    3    0    0 -0.17402974559E+03 -0.47430228704E+02 -0.68947258841E+02  0.19310542055E+03  0.00000000000E+00 0.  1.
</event>
<event>
 7    1  0.5127424E-006  0.1122614E+03  0.7818608E-02  0.1433661E+00
          2   -1    0    0  502    0  0.00000000000E+00  0.00000000000E+00  0.46924973387E+03  0.46924973387E+03  0.00000000000E+00 0. -1.
          1   -1    0    0  501    0 -0.00000000000E+00 -0.00000000000E+00 -0.16039206879E+04  0.16039206879E+04  0.00000000000E+00 0. -1.
         25    2    1    2    0    0  0.91010819125E+02 -0.50530044712E+02 -0.61197039226E+03  0.63322231894E+03  0.12500595817E+03 0.  0.
          2    1    1    2  501    0 -0.64122281006E+01 -0.23440860548E+02 -0.97428656236E+03  0.97458960399E+03  0.00000000000E+00 0. -1.
          1    1    1    2  502    0 -0.84598591024E+02  0.73970905260E+02  0.45158600064E+03  0.46535849879E+03  0.00000000000E+00 0. -1.
         22    1    3    3    0    0  0.20575686513E+02  0.41436350714E+02 -0.15163647396E+03  0.15853690508E+03  0.00000000000E+00 0. -1.
         22    1    3    3    0    0  0.70435132612E+02 -0.91966395426E+02 -0.46033391830E+03  0.47468541386E+03  0.00000000000E+00 0. -1.
</event>
<event>
 7    1  0.5127424E-006  0.5406094E+02  0.7818608E-02  0.1439134E+00
          2   -1    0    0  502    0  0.00000000000E+00  0.00000000000E+00  0.11898759455E+04  0.11898759455E+04  0.00000000000E+00 0. -1.
          1   -1    0    0  501    0 -0.00000000000E+00 -0.00000000000E+00 -0.81332303703E+02  0.81332303703E+02  0.00000000000E+00 0. -1.
         25    2    1    2    0    0 -0.86376770284E+02  0.27331614703E+02  0.24691439999E+03  0.29120144956E+03  0.12499439866E+03 0.  0.
          2    1    1    2  501    0  0.52322069133E+02  0.71066749662E+01 -0.46637475423E+02  0.70449683188E+02  0.00000000000E+00 0. -1.
          1    1    1    2  502    0  0.34054701152E+02 -0.34438289669E+02  0.90826671722E+03  0.90955711645E+03  0.00000000000E+00 0. -1.
         22    1    3    3    0    0 -0.64016006253E+02  0.43969667804E+02  0.50091751654E+02  0.92415173684E+02  0.00000000000E+00 0. -1.
         22    1    3    3    0    0 -0.22360764032E+02 -0.16638053101E+02  0.19682264833E+03  0.19878627588E+03  0.00000000000E+00 0. -1.
</event>
<event>
 7    1  0.5127424E-006  0.1197169E+03  0.7818608E-02  0.1312310E+00
          2   -1    0    0  502    0  0.00000000000E+00  0.00000000000E+00  0.86698216402E+03  0.86698216402E+03  0.00000000000E+00 0. -1.
          1   -1    0    0  501    0 -0.00000000000E+00 -0.00000000000E+00 -0.30521101136E+03  0.30521101136E+03  0.00000000000E+00 0. -1.
         25    2    1    2    0    0 -0.40938675323E+02 -0.95569128333E+02  0.46125111898E+03  0.48906767137E+03  0.12500063595E+03 0.  0.
          2    1    1    2  501    0  0.97733923949E+02  0.70518007156E+02 -0.27618771438E+03  0.30133762261E+03  0.00000000000E+00 0. -1.
          1    1    1    2  502    0 -0.56795248627E+02  0.25051121176E+02  0.37670774806E+03  0.38178788140E+03  0.00000000000E+00 0. -1.
         22    1    3    3    0    0 -0.64113385428E+02 -0.15712855918E+02  0.11156100829E+03  0.12962746084E+03  0.00000000000E+00 0.  1.
         22    1    3    3    0    0  0.23174710106E+02 -0.79856272414E+02  0.34969011069E+03  0.35944021053E+03  0.00000000000E+00 0.  1.
</event>
<event>
 7    1  0.5127424E-006  0.2463938E+02  0.7818608E-02  0.1683572E+00
          2   -1    0    0  502    0  0.00000000000E+00  0.00000000000E+00  0.23587479029E+03  0.23587479029E+03  0.00000000000E+00 0. -1.
          1   -1    0    0  501    0 -0.00000000000E+00 -0.00000000000E+00 -0.13584370158E+04  0.13584370158E+04  0.00000000000E+00 0. -1.
         25    2    1    2    0    0  0.83602011340E+01 -0.18911617801E+01 -0.25604654252E+03  0.28505755689E+03  0.12499803738E+03 0.  0.
          2    1    1    2  501    0 -0.58110894056E+01  0.24153991635E+02 -0.10871756226E+04  0.10874594330E+04  0.00000000000E+00 0. -1.
          1    1    1    2  502    0 -0.25491117284E+01 -0.22262829855E+02  0.22065993959E+03  0.22179481622E+03  0.00000000000E+00 0. -1.
         22    1    3    3    0    0 -0.88208455923E+00 -0.48361094354E+02 -0.22071891656E+03  0.22595666321E+03  0.00000000000E+00 0.  1.
         22    1    3    3    0    0  0.92422856932E+01  0.46469932574E+02 -0.35327625960E+02  0.59100893684E+02  0.00000000000E+00 0.  1.
</event>
<event>
 7    1  0.5127424E-006  0.9188130E+02  0.7818608E-02  0.1307689E+00
          2   -1    0    0  502    0  0.00000000000E+00  0.00000000000E+00  0.53467514377E+03  0.53467514377E+03  0.00000000000E+00 0. -1.
          1   -1    0    0  501    0 -0.00000000000E+00 -0.00000000000E+00 -0.24459993024E+03  0.24459993024E+03  0.00000000000E+00 0. -1.
         25    2    1    2    0    0  0.15252543758E+02  0.16383931593E+03  0.19686841945E+02  0.20757806420E+03  0.12500047783E+03 0.  0.
          2    1    1    2  501    0  0.18950658230E+02 -0.82187110243E+02 -0.13366950333E+03  0.15805500516E+03  0.00000000000E+00 0. -1.
          1    1    1    2  502    0 -0.34203201988E+02 -0.81652205688E+02  0.40405787492E+03  0.41364200464E+03  0.00000000000E+00 0. -1.
         22    1    3    3    0    0  0.78257995368E+01  0.14751043781E+02  0.52199404120E+02  0.54805238997E+02  0.00000000000E+00 0.  1.
         22    1    3    3    0    0  0.74267442217E+01  0.14908827215E+03 -0.32512562176E+02  0.15277282521E+03  0.00000000000E+00 0.  1.
</event>
<event>
 7    1  0.5127424E-006  0.7432597E+02  0.7818608E-02  0.1511269E+00
          2   -1    0    0  502    0  0.00000000000E+00  0.00000000000E+00  0.12751341387E+04  0.12751341387E+04  0.00000000000E+00 0. -1.
          1   -1    0    0  501    0 -0.00000000000E+00 -0.00000000000E+00 -0.79759256420E+03  0.79759256420E+03  0.00000000000E+00 0. -1.
         25    2    1    2    0    0  0.53751050814E+02 -0.42254864380E+02  0.47716149408E+03  0.49797641057E+03  0.12499105975E+03 0.  0.
          2    1    1    2  501    0  0.16291287347E+02  0.13385638082E+02 -0.78522138886E+03  0.78550443084E+03  0.00000000000E+00 0. -1.
          1    1    1    2  502    0 -0.70042338161E+02  0.28869226298E+02  0.78560146929E+03  0.78924586151E+03  0.00000000000E+00 0. -1.
         22    1    3    3    0    0 -0.49234553983E+01 -0.64213599662E+02  0.12854782408E+03  0.14377819678E+03  0.00000000000E+00 0.  1.
         22    1    3    3    0    0  0.58674506212E+02  0.21958735282E+02  0.34861367001E+03  0.35419821379E+03  0.00000000000E+00 0.  1.
</event>
<event>
 7    1  0.6548831E-006  0.7745481E+02  0.7818608E-02  0.1359422E+00
          2   -1    0    0  502    0  0.00000000000E+00  0.00000000000E+00  0.14010934028E+04  0.14010934028E+04  0.00000000000E+00 0. -1.
          1   -1    0    0  501    0 -0.00000000000E+00 -0.00000000000E+00 -0.52777737670E+03  0.52777737670E+03  0.00000000000E+00 0. -1.
         25    2    1    2    0    0 -0.52157692196E+01  0.65321935669E+02 -0.10805212993E+03  0.17774896195E+03  0.12500108465E+03 0.  0.
          2    1    1    2  501    0 -0.59566770322E+02 -0.22347126380E+02 -0.38113207253E+03  0.38640555236E+03  0.00000000000E+00 0. -1.
          1    1    1    2  502    0  0.64782539542E+02 -0.42974809289E+02  0.13625002285E+04  0.13647162652E+04  0.00000000000E+00 0. -1.
         22    1    3    3    0    0 -0.32544480168E+02 -0.26610895692E+02 -0.51232742668E+02  0.66272746134E+02  0.00000000000E+00 0. -1.
         22    1    3    3    0    0  0.27328710948E+02  0.91932831361E+02 -0.56819387265E+02  0.11147621582E+03  0.00000000000E+00 0. -1.
</event>
<event>
 7    1  0.5127424E-006  0.6126827E+02  0.7818608E-02  0.1409299E+00
          2   -1    0    0  502    0  0.00000000000E+00  0.00000000000E+00  0.87339394253E+02  0.87339394253E+02  0.00000000000E+00 0. -1.
          1   -1    0    0  501    0 -0.00000000000E+00 -0.00000000000E+00 -0.87627960438E+03  0.87627960438E+03  0.00000000000E+00 0. -1.
         25    2    1    2    0    0  0.16557896988E+02  0.31026293418E+01 -0.67612654367E+02  0.14310869163E+03  0.12499934530E+03 0.  0.
          2    1    1    2  501    0 -0.48915483213E+02  0.39732829019E+02 -0.75468223163E+03  0.75730884910E+03  0.00000000000E+00 0. -1.
          1    1    1    2  502    0  0.32357586225E+02 -0.42835458361E+02  0.33354675864E+02  0.63201457905E+02  0.00000000000E+00 0. -1.
         22    1    3    3    0    0  0.44952243474E+02 -0.27236322248E+02  0.11448995678E+02  0.53792201526E+02  0.00000000000E+00 0. -1.
         22    1    3    3    0    0 -0.28394346486E+02  0.30338951589E+02 -0.79061650045E+02  0.89316490100E+02  0.00000000000E+00 0. -1.
</event>
<event>
 7    1  0.5127424E-006  0.1453076E+03  0.7818608E-02  0.1321726E+00
          2   -1    0    0  502    0  0.00000000000E+00  0.00000000000E+00  0.72404892963E+03  0.72404892963E+03  0.00000000000E+00 0. -1.
          1   -1    0    0  501    0 -0.00000000000E+00 -0.00000000000E+00 -0.79096999824E+03  0.79096999824E+03  0.00000000000E+00 0. -1.
         25    2    1    2    0    0  0.47364497262E+02 -0.15351547568E+03 -0.21718419913E+03  0.29766490569E+03  0.12500009142E+03 0.  0.
          2    1    1    2  501    0 -0.46227148144E+02  0.84753196747E+01 -0.52479204214E+03  0.52689227339E+03  0.00000000000E+00 0. -1.
          1    1    1    2  502    0 -0.11373491176E+01  0.14504015601E+03  0.67505517265E+03  0.69046174879E+03  0.00000000000E+00 0. -1.
         22    1    3    3    0    0  0.39771353139E+02 -0.15885669216E+03 -0.12760512030E+03  0.20760605941E+03  0.00000000000E+00 0. -1.
         22    1    3    3    0    0  0.75931441221E+01  0.53412164762E+01 -0.89579078825E+02  0.90058846286E+02  0.00000000000E+00 0. -1.
</event>
<event>
 7    1  0.5127424E-006  0.6695514E+02  0.7818608E-02  0.1440862E+00
          2   -1    0    0  502    0  0.00000000000E+00  0.00000000000E+00  0.45370605362E+03  0.45370605362E+03  0.00000000000E+00 0. -1.
          1   -1    0    0  501    0 -0.00000000000E+00 -0.00000000000E+00 -0.99547052766E+02  0.99547052766E+02  0.00000000000E+00 0. -1.
         25    2    1    2    0    0 -0.32360127939E+02  0.26426291706E+02  0.53046908866E+02  0.14207160960E+03  0.12499936376E+03 0.  0.
          2    1    1    2  501    0  0.36110391689E+02 -0.64847509296E+02 -0.28358753512E+02  0.79456772842E+02  0.00000000000E+00 0. -1.
          1    1    1    2  502    0 -0.37502637501E+01  0.38421217590E+02  0.32947084550E+03  0.33172472394E+03  0.00000000000E+00 0. -1.
         22    1    3    3    0    0 -0.55447967660E+02 -0.14175407996E+02 -0.15344799717E+02  0.59252697726E+02  0.00000000000E+00 0. -1.
         22    1    3    3    0    0  0.23087839721E+02  0.40601699702E+02  0.68391708583E+02  0.82818911878E+02  0.00000000000E+00 0. -1.
</event>
<event>
 7    1  0.5127424E-006  0.4509031E+02  0.7818608E-02  0.1541155E+00
          2   -1    0    0  502    0  0.00000000000E+00  0.00000000000E+00  0.28807200385E+04  0.28807200385E+04  0.00000000000E+00 0. -1.
          1   -1    0    0  501    0 -0.00000000000E+00 -0.00000000000E+00 -0.30607548805E+03  0.30607548805E+03  0.00000000000E+00 0. -1.
         25    2    1    2    0    0  0.32152962566E+02  0.57200435174E+01  0.16114602856E+04  0.16166310316E+04  0.12500043444E+03 0.  0.
          2    1    1    2  501    0  0.19133272329E+01  0.28443564309E+02 -0.30235999229E+03  0.30370094190E+03  0.00000000000E+00 0. -1.
          1    1    1    2  502    0 -0.34066289799E+02 -0.34163607827E+02  0.12655442572E+04  0.12664635530E+04  0.00000000000E+00 0. -1.
         22    1    3    3    0    0 -0.70650729795E+01 -0.20523948659E+02  0.13913450932E+04  0.13915143967E+04  0.00000000000E+00 0.  1.
         22    1    3    3    0    0  0.39218035545E+02  0.26243992176E+02  0.22011519235E+03  0.22511663497E+03  0.00000000000E+00 0.  1.
</event>
<event>
 7    1  0.5127424E-006  0.1500949E+03  0.7818608E-02  0.1380226E+00
          2   -1    0    0  502    0  0.00000000000E+00  0.00000000000E+00  0.77065537518E+03  0.77065537518E+03  0.00000000000E+00 0. -1.
          1   -1    0    0  501    0 -0.00000000000E+00 -0.00000000000E+00 -0.13731557265E+04  0.13731557265E+04  0.00000000000E+00 0. -1.
         25    2    1    2    0    0 -0.11817531501E+03 -0.60249616031E+02 -0.62442596609E+02  0.19266501879E+03  0.12500124113E+03 0.  0.
          2    1    1    2  501    0  0.12369958746E+03  0.87327186660E+02 -0.12407268081E+04  0.12499322533E+04  0.00000000000E+00 0. -1.
          1    1    1    2  502    0 -0.55242724508E+01 -0.27077570629E+02  0.70066905340E+03  0.70121382959E+03  0.00000000000E+00 0. -1.
         22    1    3    3    0    0 -0.13514610507E+03 -0.32917532191E+02 -0.75119503046E+02  0.15808533575E+03  0.00000000000E+00 0.  1.
         22    1    3    3    0    0  0.16970790061E+02 -0.27332083839E+02  0.12676906437E+02  0.34579683039E+02  0.00000000000E+00 0.  1.
</event>
<event>
 7    1  0.5127424E-006  0.4495759E+02  0.7818608E-02  0.1533261E+00
          2   -1    0    0  502    0  0.00000000000E+00  0.00000000000E+00  0.32238430276E+04  0.32238430276E+04  0.00000000000E+00 0. -1.
          1   -1    0    0  501    0 -0.00000000000E+00 -0.00000000000E+00 -0.10057191109E+03  0.10057191109E+03  0.00000000000E+00 0. -1.
         25    2    1    2    0    0  0.16176061198E+00  0.33849516213E+02  0.21132988821E+03  0.24784239859E+03  0.12497886611E+03 0.  0.
          2    1    1    2  501    0 -0.30105113356E+02 -0.69022652103E-01 -0.79387073773E+02  0.84903651845E+02  0.00000000000E+00 0. -1.
          1    1    1    2  502    0  0.29943352744E+02 -0.33780493561E+02  0.29913283020E+04  0.29916688882E+04  0.00000000000E+00 0. -1.
         22    1    3    3    0    0  0.40546891373E+02  0.65717993742E+02  0.14018885612E+03  0.16004943137E+03  0.00000000000E+00 0. -1.
         22    1    3    3    0    0 -0.40385130761E+02 -0.31868477529E+02  0.71141032091E+02  0.87792967222E+02  0.00000000000E+00 0. -1.
</event>
<event>
 7    1  0.5127424E-006  0.6437441E+02  0.7818608E-02  0.1430557E+00
          2   -1    0    0  502    0  0.00000000000E+00  0.00000000000E+00  0.12401408201E+04  0.12401408201E+04  0.00000000000E+00 0. -1.
          1   -1    0    0  501    0 -0.00000000000E+00 -0.00000000000E+00 -0.28707962835E+03  0.28707962835E+03  0.00000000000E+00 0. -1.
         25    2    1    2    0    0 -0.35713805651E+02  0.51834846876E+02 -0.28002167505E+02  0.14273051401E+03  0.12500220390E+03 0.  0.
          2    1    1    2  501    0 -0.26427327312E+02 -0.34408603392E+02 -0.19848794851E+03  0.20317436187E+03  0.00000000000E+00 0. -1.
          1    1    1    2  502    0  0.62141132963E+02 -0.17426243484E+02  0.11795513078E+04  0.11813155726E+04  0.00000000000E+00 0. -1.
         22    1    3    3    0    0  0.31347709704E+02  0.52100666645E+02  0.15557824652E+02  0.62763080520E+02  0.00000000000E+00 0.  1.
         22    1    3    3    0    0 -0.67061515355E+02 -0.26581976856E+00 -0.43559992157E+02  0.79967433487E+02  0.00000000000E+00 0.  1.
</event>
<event>
 7    1  0.5127424E-006  0.6309915E+02  0.7818608E-02  0.1447498E+00
          2   -1    0    0  502    0  0.00000000000E+00  0.00000000000E+00  0.11868633480E+04  0.11868633480E+04  0.00000000000E+00 0. -1.
          1   -1    0    0  501    0 -0.00000000000E+00 -0.00000000000E+00 -0.14251566892E+04  0.14251566892E+04  0.00000000000E+00 0. -1.
         25    2    1    2    0    0  0.23164959153E+02  0.82984760658E+01  0.32894069518E+03  0.35275051278E+03  0.12500185313E+03 0.  0.
          2    1    1    2  501    0 -0.55780914867E+02 -0.29667038598E+02 -0.14120957844E+04  0.14135084534E+04  0.00000000000E+00 0. -1.
          1    1    1    2  502    0  0.32615955714E+02  0.21368562533E+02  0.84486174803E+03  0.84576107106E+03  0.00000000000E+00 0. -1.
         22    1    3    3    0    0 -0.28531890330E+02  0.19218616838E+02  0.20988124956E+02  0.40297957618E+02  0.00000000000E+00 0. -1.
         22    1    3    3    0    0  0.51696849484E+02 -0.10920140773E+02  0.30795257022E+03  0.31245255516E+03  0.00000000000E+00 0. -1.
</event>
<event>
 7    1  0.5127424E-006  0.8970312E+02  0.7818608E-02  0.1341114E+00
          2   -1    0    0  502    0  0.00000000000E+00  0.00000000000E+00  0.71644310498E+03  0.71644310498E+03  0.00000000000E+00 0. -1.
          1   -1    0    0  501    0 -0.00000000000E+00 -0.00000000000E+00 -0.11339509328E+03  0.11339509328E+03  0.00000000000E+00 0. -1.
         25    2    1    2    0    0 -0.86057695267E+02  0.25187687476E+02  0.24499366503E+03  0.28928814417E+03  0.12500155174E+03 0.  0.
          2    1    1    2  501    0  0.68058898335E+00 -0.64213024992E+02 -0.74252045800E+02  0.98168946646E+02  0.00000000000E+00 0. -1.
          1    1    1    2  502    0  0.85377106284E+02  0.39025337515E+02  0.43230639247E+03  0.44238110744E+03  0.00000000000E+00 0. -1.
         22    1    3    3    0    0 -0.54791679399E+01 -0.32733663267E+02  0.10742759698E+02  0.34884393045E+02  0.00000000000E+00 0.  1.
         22    1    3    3    0    0 -0.80578527327E+02  0.57921350744E+02  0.23425090533E+03  0.25440375113E+03  0.00000000000E+00 0.  1.
</event>
<event>
 7    1  0.6688942E-006  0.7002686E+02  0.7818608E-02  0.1362911E+00
          2   -1    0    0  502    0  0.00000000000E+00  0.00000000000E+00  0.22967176564E+04  0.22967176564E+04  0.00000000000E+00 0. -1.
          1   -1    0    0  501    0 -0.00000000000E+00 -0.00000000000E+00 -0.18521917046E+04  0.18521917046E+04  0.00000000000E+00 0. -1.
         25    2    1    2    0    0  0.12916244272E+03  0.43068706902E+02 -0.11942394578E+03  0.22006054307E+03  0.12500685449E+03 0.  0.
          2    1    1    2  501    0 -0.67578811449E+02 -0.10167179475E+02 -0.16812125592E+04  0.16826009439E+04  0.00000000000E+00 0. -1.
          1    1    1    2  502    0 -0.61583631266E+02 -0.32901527426E+02  0.22451624568E+04  0.22462478740E+04  0.00000000000E+00 0. -1.
         22    1    3    3    0    0  0.17584571154E+02 -0.87474208542E+00  0.26105871517E+02  0.31488074632E+02  0.00000000000E+00 0. -1.
         22    1    3    3    0    0  0.11157787156E+03  0.43943448987E+02 -0.14552981729E+03  0.18857246844E+03  0.00000000000E+00 0. -1.
</event>
<event>
 7    1  0.5127424E-006  0.5225766E+02  0.7818608E-02  0.1540173E+00
          2   -1    0    0  502    0  0.00000000000E+00  0.00000000000E+00  0.26367056942E+04  0.26367056942E+04  0.00000000000E+00 0. -1.
          1   -1    0    0  501    0 -0.00000000000E+00 -0.00000000000E+00 -0.33298950249E+03  0.33298950249E+03  0.00000000000E+00 0. -1.
         25    2    1    2    0    0 -0.73850818205E+01 -0.30225020165E+02 -0.28340872255E+02  0.13189208465E+03  0.12499690266E+03 0.  0.
          2    1    1    2  501    0 -0.20279200227E+02 -0.14197946585E+02 -0.25200158848E+03  0.25321458932E+03  0.00000000000E+00 0. -1.
          1    1    1    2  502    0  0.27664282048E+02  0.44422966750E+02  0.25840586525E+04  0.25845885228E+04  0.00000000000E+00 0. -1.
         22    1    3    3    0    0 -0.59749058123E+02 -0.42922535912E+02 -0.68631651451E+01  0.73887732890E+02  0.00000000000E+00 0.  1.
         22    1    3    3    0    0  0.52363976303E+02  0.12697515747E+02 -0.21477707110E+02  0.58004351760E+02  0.00000000000E+00 0.  1.
</event>
<event>
 7    1  0.5127424E-006  0.8349229E+02  0.7818608E-02  0.1384558E+00
          2   -1    0    0  502    0  0.00000000000E+00  0.00000000000E+00  0.20636265051E+04  0.20636265051E+04  0.00000000000E+00 0. -1.
          1   -1    0    0  501    0 -0.00000000000E+00 -0.00000000000E+00 -0.59172570045E+02  0.59172570045E+02  0.00000000000E+00 0. -1.
         25    2    1    2    0    0 -0.70589278529E+02 -0.82188113202E+02  0.11218722359E+03  0.19987435510E+03  0.12500420991E+03 0.  0.
          2    1    1    2  501    0  0.24974841053E+02  0.67366944726E+02  0.70944568498E+02  0.10097118265E+03  0.00000000000E+00 0. -1.
          1    1    1    2  502    0  0.45614437476E+02  0.14821168477E+02  0.18213221429E+04  0.18219535374E+04  0.00000000000E+00 0. -1.
         22    1    3    3    0    0 -0.57642041172E+02 -0.70963910328E+02  0.52525221146E+01  0.91575490542E+02  0.00000000000E+00 0. -1.
         22    1    3    3    0    0 -0.12947237357E+02 -0.11224202875E+02  0.10693470148E+03  0.10829886456E+03  0.00000000000E+00 0. -1.
</event>
<event>
 7    1  0.5127424E-006  0.9999135E+02  0.7818608E-02  0.1322186E+00
          2   -1    0    0  502    0  0.00000000000E+00  0.00000000000E+00  0.44310503766E+03  0.44310503766E+03  0.00000000000E+00 0. -1.
          1   -1    0    0  501    0 -0.00000000000E+00 -0.00000000000E+00 -0.12305811519E+04  0.12305811519E+04  0.00000000000E+00 0. -1.
         25    2    1    2    0    0  0.12269646301E+03 -0.10750659418E+03 -0.24440342371E+03  0.31932728972E+03  0.12499917844E+03 0.  0.
          2    1    1    2  501    0 -0.77184515804E+02  0.56958374037E+02 -0.94341515148E+03  0.94827941763E+03  0.00000000000E+00 0. -1.
          1    1    1    2  502    0 -0.45511947204E+02  0.50548220144E+02  0.40034246091E+03  0.40607948225E+03  0.00000000000E+00 0. -1.
         22    1    3    3    0    0  0.10387641126E+03 -0.12382694705E+03 -0.24602179667E+03  0.29436396869E+03  0.00000000000E+00 0.  1.
         22    1    3    3    0    0  0.18820051748E+02  0.16320352865E+02  0.16183729573E+01  0.24963321023E+02  0.00000000000E+00 0.  1.
</event>
<event>
 7    1  0.5127424E-006  0.1042075E+03  0.7818608E-02  0.1388373E+00
          2   -1    0    0  502    0  0.00000000000E+00  0.00000000000E+00  0.10631785743E+04  0.10631785743E+04  0.00000000000E+00 0. -1.
          1   -1    0    0  501    0 -0.00000000000E+00 -0.00000000000E+00 -0.23040831301E+03  0.23040831301E+03  0.00000000000E+00 0. -1.
         25    2    1    2    0    0  0.60507594095E+02  0.50011924396E+02  0.11923348783E+03  0.18974866315E+03  0.12500227607E+03 0.  0.
          2    1    1    2  501    0 -0.61744671909E+02 -0.87252833222E+02 -0.18009658371E+03  0.20942836694E+03  0.00000000000E+00 0. -1.
          1    1    1    2  502    0  0.12370778144E+01  0.37240908826E+02  0.89363335717E+03  0.89440985722E+03  0.00000000000E+00 0. -1.
         22    1    3    3    0    0  0.79970163680E+02  0.74503265807E+02  0.11418004709E+03  0.15806026334E+03  0.00000000000E+00 0. -1.
         22    1    3    3    0    0 -0.19462569585E+02 -0.24491341411E+02  0.50534407395E+01  0.31688399806E+02  0.00000000000E+00 0. -1.
</event>
<event>
 7    1  0.5127424E-006  0.1150399E+03  0.7818608E-02  0.1312246E+00
          2   -1    0    0  502    0  0.00000000000E+00  0.00000000000E+00  0.12859362651E+04  0.12859362651E+04  0.00000000000E+00 0. -1.
          1   -1    0    0  501    0 -0.00000000000E+00 -0.00000000000E+00 -0.73248233521E+02  0.73248233521E+02  0.00000000000E+00 0. -1.
         25    2    1    2    0    0 -0.95267288923E+02 -0.22405536853E+02  0.85497145375E+03  0.86958555889E+03  0.12499997232E+03 0.  0.
          2    1    1    2  501    0 -0.37109540495E+02 -0.52921017911E+02 -0.31310093087E+02  0.71819733093E+02  0.00000000000E+00 0. -1.
          1    1    1    2  502    0  0.13237682942E+03  0.75326554763E+02  0.38902667096E+03  0.41777920669E+03  0.00000000000E+00 0. -1.
         22    1    3    3    0    0 -0.10287314081E+03 -0.38693796810E+02  0.83693312503E+03  0.84411915556E+03  0.00000000000E+00 0. -1.
         22    1    3    3    0    0  0.76058518905E+01  0.16288259958E+02  0.18038328720E+02  0.25466403328E+02  0.00000000000E+00 0. -1.
</event>
<event>
 7    1  0.5127424E-006  0.1731477E+03  0.7818608E-02  0.1337614E+00
          2   -1    0    0  502    0  0.00000000000E+00  0.00000000000E+00  0.13807938948E+03  0.13807938948E+03  0.00000000000E+00 0. -1.
          1   -1    0    0  501    0 -0.00000000000E+00 -0.00000000000E+00 -0.14510590287E+04  0.14510590287E+04  0.00000000000E+00 0. -1.
         25    2    1    2    0    0  0.55513517559E+02 -0.12962111772E+03  0.59001642713E+02  0.19746465102E+03  0.12501083860E+03 0.  0.
          2    1    1    2  501    0 -0.61683127337E+02  0.16335548935E+03 -0.13028988808E+04  0.13145475715E+04  0.00000000000E+00 0. -1.
          1    1    1    2  502    0  0.61696097787E+01 -0.33734371625E+02 -0.69082401163E+02  0.77126195707E+02  0.00000000000E+00 0. -1.
         22    1    3    3    0    0  0.87074760597E+02 -0.11731453635E+03  0.69791311125E+02  0.16191214124E+03  0.00000000000E+00 0.  1.
         22    1    3    3    0    0 -0.31561243038E+02 -0.12306581367E+02 -0.10789668411E+02  0.35552509778E+02  0.00000000000E+00 0.  1.
</event>
<event>
 7    1  0.5127424E-006  0.4528788E+02  0.7818608E-02  0.1517141E+00
          2   -1    0    0  502    0  0.00000000000E+00  0.00000000000E+00  0.21484159383E+04  0.21484159383E+04  0.00000000000E+00 0. -1.
          1   -1    0    0  501    0 -0.00000000000E+00 -0.00000000000E+00 -0.38663047872E+02  0.38663047872E+02  0.00000000000E+00 0. -1.
         25    2    1    2    0    0 -0.43352690010E+02  0.33417856927E+02  0.10223604640E+04  0.10314278653E+04  0.12500525612E+03 0.  0.
          2    1    1    2  501    0  0.31598636041E+02  0.10386587745E+02 -0.25452118462E+02  0.41882757059E+02  0.00000000000E+00 0. -1.
          1    1    1    2  502    0  0.11754053969E+02 -0.43804444672E+02  0.11128445449E+04  0.11137683638E+04  0.00000000000E+00 0. -1.
         22    1    3    3    0    0 -0.62434611469E+02 -0.26267466436E+02  0.68130591896E+03  0.68466474695E+03  0.00000000000E+00 0.  1.
         22    1    3    3    0    0  0.19081921459E+02  0.59685323363E+02  0.34105454502E+03  0.34676311832E+03  0.00000000000E+00 0.  1.
</event>
<event>
 7    1  0.5127424E-006  0.3708796E+02  0.7818608E-02  0.1549643E+00
          2   -1    0    0  502    0  0.00000000000E+00  0.00000000000E+00  0.24971023467E+04  0.24971023467E+04  0.00000000000E+00 0. -1.
          1   -1    0    0  501    0 -0.00000000000E+00 -0.00000000000E+00 -0.83987852816E+02  0.83987852816E+02  0.00000000000E+00 0. -1.
         25    2    1    2    0    0  0.19435826755E+02 -0.77311082775E-01  0.38607748665E+03  0.40627502386E+03  0.12500324785E+03 0.  0.
          2    1    1    2  501    0 -0.18177734226E+02 -0.32707501863E+02 -0.69014916554E+02  0.78506492768E+02  0.00000000000E+00 0. -1.
          1    1    1    2  502    0 -0.12580925286E+01  0.32784812945E+02  0.20960519238E+04  0.20963086829E+04  0.00000000000E+00 0. -1.
         22    1    3    3    0    0 -0.85179323868E+01 -0.36287504941E+02  0.33748854463E+03  0.33954065433E+03  0.00000000000E+00 0. -1.
         22    1    3    3    0    0  0.27953759142E+02  0.36210193858E+02  0.48588942023E+02  0.66734369528E+02  0.00000000000E+00 0. -1.
</event>
<event>
 7    1  0.5127424E-006  0.1940320E+03  0.7818608E-02  0.1201859E+00
          2   -1    0    0  502    0  0.00000000000E+00  0.00000000000E+00  0.16181067016E+04  0.16181067016E+04  0.00000000000E+00 0. -1.
          1   -1    0    0  501    0 -0.00000000000E+00 -0.00000000000E+00 -0.23852172043E+03  0.23852172043E+03  0.00000000000E+00 0. -1.
         25    2    1    2    0    0  0.16218381770E+03 -0.64103387682E+02  0.21908873212E+02  0.21568068877E+03  0.12500130299E+03 0.  0.
          2    1    1    2  501    0 -0.53685987420E+02 -0.10082908090E+03 -0.11087189802E+03  0.15918940470E+03  0.00000000000E+00 0. -1.
          1    1    1    2  502    0 -0.10849783028E+03  0.16493246858E+03  0.14685480060E+04  0.14817583286E+04  0.00000000000E+00 0. -1.
         22    1    3    3    0    0  0.69785627377E+02 -0.64877870228E+02 -0.41172984642E+02  0.10379974228E+03  0.00000000000E+00 0.  1.
         22    1    3    3    0    0  0.92398190320E+02  0.77448254545E+00  0.63081857854E+02  0.11188094649E+03  0.00000000000E+00 0.  1.
</event>
<event>
 7    1  0.5127424E-006  0.7977879E+02  0.7818608E-02  0.1351386E+00
          2   -1    0    0  502    0  0.00000000000E+00  0.00000000000E+00  0.79159935136E+03  0.79159935136E+03  0.00000000000E+00 0. -1.
          1   -1    0    0  501    0 -0.00000000000E+00 -0.00000000000E+00 -0.41381630449E+03  0.41381630449E+03  0.00000000000E+00 0. -1.
         25    2    1    2    0    0 -0.51566165317E+02 -0.33995519083E+02  0.76879619218E+01  0.13963777991E+03  0.12499936038E+03 0.  0.
          2    1    1    2  501    0  0.46405178854E+02 -0.47091275701E+02 -0.34236984530E+03  0.34869490940E+03  0.00000000000E+00 0. -1.
          1    1    1    2  502    0  0.51609864631E+01  0.81086794784E+02  0.71246493025E+03  0.71708296654E+03  0.00000000000E+00 0. -1.
         22    1    3    3    0    0  0.15040959953E+02 -0.48052940822E+02 -0.33120758239E+02  0.60268567465E+02  0.00000000000E+00 0.  1.
         22    1    3    3    0    0 -0.66607125270E+02  0.14057421739E+02  0.40808720160E+02  0.79369212443E+02  0.00000000000E+00 0.  1.
</event>
<event>
 7    1  0.5127424E-006  0.9777928E+02  0.7818608E-02  0.1389253E+00
          2   -1    0    0  502    0  0.00000000000E+00  0.00000000000E+00  0.21207490287E+04  0.21207490287E+04  0.00000000000E+00 0. -1.
          1   -1    0    0  501    0 -0.00000000000E+00 -0.00000000000E+00 -0.10490349429E+04  0.10490349429E+04  0.00000000000E+00 0. -1.
         25    2    1    2    0    0  0.14421123560E+02 -0.66636682940E+02  0.18346887493E+04  0.18402053431E+04  0.12499792653E+03 0.  0.
          2    1    1    2  501    0 -0.49696504139E+02  0.84256159173E+02 -0.10426040048E+04  0.10471828655E+04  0.00000000000E+00 0. -1.
          1    1    1    2  502    0  0.35275380578E+02 -0.17619476233E+02  0.27962934135E+03  0.28239576300E+03  0.00000000000E+00 0. -1.
         22    1    3    3    0    0  0.55958848651E+01 -0.44495855892E+02  0.17798000833E+04  0.17803649996E+04  0.00000000000E+00 0. -1.
         22    1    3    3    0    0  0.88252386951E+01 -0.22140827049E+02  0.54888666022E+02  0.59840343566E+02  0.00000000000E+00 0. -1.
</event>
<event>
 7    1  0.5127424E-006  0.1826776E+03  0.7818608E-02  0.1170185E+00
          2   -1    0    0  502    0  0.00000000000E+00  0.00000000000E+00  0.32292445984E+04  0.32292445984E+04  0.00000000000E+00 0. -1.
          1   -1    0    0  501    0 -0.00000000000E+00 -0.00000000000E+00 -0.21627696576E+03  0.21627696576E+03  0.00000000000E+00 0. -1.
         25    2    1    2    0    0 -0.12585920885E+03  0.23189104254E+02  0.26431785711E+03  0.31916731637E+03  0.12500228493E+03 0.  0.
          2    1    1    2  501    0  0.27225877345E+02 -0.18063735825E+03 -0.14098364058E+03  0.23075417765E+03  0.00000000000E+00 0. -1.
          1    1    1    2  502    0  0.98633331509E+02  0.15744825400E+03  0.28896334161E+04  0.28956000701E+04  0.00000000000E+00 0. -1.
         22    1    3    3    0    0 -0.10565471586E+03  0.15473798653E+02  0.79595879416E+02  0.13318356298E+03  0.00000000000E+00 0.  1.
         22    1    3    3    0    0 -0.20204492992E+02  0.77153056002E+01  0.18472197770E+03  0.18598375338E+03  0.00000000000E+00 0.  1.
</event>
<event>
 7    1  0.5127424E-006  0.1986578E+03  0.7818608E-02  0.1291520E+00
          2   -1    0    0  502    0  0.00000000000E+00  0.00000000000E+00  0.23487543656E+04  0.23487543656E+04  0.00000000000E+00 0. -1.
          1   -1    0    0  501    0 -0.00000000000E+00 -0.00000000000E+00 -0.65913143474E+03  0.65913143474E+03  0.00000000000E+00 0. -1.
         25    2    1    2    0    0  0.25416624105E+02  0.22743618972E+03  0.11549936183E+04  0.11840645329E+04  0.12500133823E+03 0.  0.
          2    1    1    2  501    0 -0.10322039648E+01 -0.45272387969E+02 -0.63662571288E+03  0.63823424607E+03  0.00000000000E+00 0. -1.
          1    1    1    2  502    0 -0.24384420140E+02 -0.18216380175E+03  0.11712550254E+04  0.11855870213E+04  0.00000000000E+00 0. -1.
         22    1    3    3    0    0 -0.32852934575E+02  0.38444865403E+02  0.11798619808E+03  0.12836691911E+03  0.00000000000E+00 0. -1.
         22    1    3    3    0    0  0.58269558679E+02  0.18899132431E+03  0.10370074202E+04  0.10556976138E+04  0.00000000000E+00 0. -1.
</event>
<event>
 7    1  0.5127424E-006  0.1621360E+03  0.7818608E-02  0.1268327E+00
          2   -1    0    0  502    0  0.00000000000E+00  0.00000000000E+00  0.10623734421E+04  0.10623734421E+04  0.00000000000E+00 0. -1.
          1   -1    0    0  501    0 -0.00000000000E+00 -0.00000000000E+00 -0.34361926854E+03  0.34361926854E+03  0.00000000000E+00 0. -1.
         25    2    1    2    0    0 -0.52338398264E+02  0.90411761753E+02  0.18054758681E+02  0.16390103410E+03  0.12499592022E+03 0.  0.
          2    1    1    2  501    0 -0.51381239194E+00  0.69186699626E+02 -0.25884386636E+03  0.26793135420E+03  0.00000000000E+00 0. -1.
          1    1    1    2  502    0  0.52852210655E+02 -0.15959846138E+03  0.95954328120E+03  0.97416032230E+03  0.00000000000E+00 0. -1.
         22    1    3    3    0    0 -0.44271857194E+02  0.99423334888E+02 -0.31171574228E+02  0.11321070576E+03  0.00000000000E+00 0.  1.
         22    1    3    3    0    0 -0.80665410690E+01 -0.90115731353E+01  0.49226332909E+02  0.50690328337E+02  0.00000000000E+00 0.  1.
</event>
<event>
 7    1  0.5127424E-006  0.9783251E+02  0.7818608E-02  0.1382250E+00
          2   -1    0    0  502    0  0.00000000000E+00  0.00000000000E+00  0.43284986879E+03  0.43284986879E+03  0.00000000000E+00 0. -1.
          1   -1    0    0  501    0 -0.00000000000E+00 -0.00000000000E+00 -0.12261112245E+03  0.12261112245E+03  0.00000000000E+00 0. -1.
         25    2    1    2    0    0  0.97003142142E+02  0.69954149679E+02  0.42195276002E+02  0.17806644448E+03  0.12499609871E+03 0.  0.
          2    1    1    2  501    0 -0.55383415030E+02 -0.72626727824E+02 -0.13897541746E+02  0.92385636987E+02  0.00000000000E+00 0. -1.
          1    1    1    2  502    0 -0.41619727111E+02  0.26725781453E+01  0.28194101208E+03  0.28500890978E+03  0.00000000000E+00 0. -1.
         22    1    3    3    0    0  0.94350191755E+02  0.24497249573E+02  0.74118434778E+02  0.12245658943E+03  0.00000000000E+00 0. -1.
         22    1    3    3    0    0  0.26529503866E+01  0.45456900105E+02 -0.31923158775E+02  0.55609855054E+02  0.00000000000E+00 0. -1.
</event>
<event>
 7    1  0.5127424E-006  0.2473411E+03  0.7818608E-02  0.1226367E+00
          2   -1    0    0  502    0  0.00000000000E+00  0.00000000000E+00  0.67854993599E+03  0.67854993599E+03  0.00000000000E+00 0. -1.
          1   -1    0    0  501    0 -0.00000000000E+00 -0.00000000000E+00 -0.13638937234E+04  0.13638937234E+04  0.00000000000E+00 0. -1.
         25    2    1    2    0    0  0.10817631690E+03 -0.15400783849E+03 -0.17494804307E+03  0.28574895610E+03  0.12500047314E+03 0.  0.
          2    1    1    2  501    0  0.17422038831E+02 -0.66870838583E+02 -0.11065208846E+04  0.11086765554E+04  0.00000000000E+00 0. -1.
          1    1    1    2  502    0 -0.12559835573E+03  0.22087867707E+03  0.59612514033E+03  0.64801814780E+03  0.00000000000E+00 0. -1.
         22    1    3    3    0    0  0.31307026012E+02 -0.11985437107E+01 -0.88923974351E+02  0.94281703416E+02  0.00000000000E+00 0.  1.
         22    1    3    3    0    0  0.76869290889E+02 -0.15280929478E+03 -0.86024068720E+02  0.19146725269E+03  0.00000000000E+00 0.  1.
</event>
<event>
 7    1  0.5127424E-006  0.1223338E+03  0.7818608E-02  0.1360382E+00
          2   -1    0    0  502    0  0.00000000000E+00  0.00000000000E+00  0.65749864267E+03  0.65749864267E+03  0.00000000000E+00 0. -1.
          1   -1    0    0  501    0 -0.00000000000E+00 -0.00000000000E+00 -0.14467563853E+03  0.14467563853E+03  0.00000000000E+00 0. -1.
         25    2    1    2    0    0 -0.81633310052E+02 -0.10845712982E+03  0.41131015060E+02  0.18906040360E+03  0.12500051796E+03 0.  0.
          2    1    1    2  501    0  0.94624121471E+02  0.70670707983E+02 -0.20015093407E+02  0.11978596452E+03  0.00000000000E+00 0. -1.
          1    1    1    2  502    0 -0.12990811418E+02  0.37786421834E+02  0.49170708249E+03  0.49332791308E+03  0.00000000000E+00 0. -1.
         22    1    3    3    0    0  0.23246145322E+02 -0.52977443758E+02 -0.11956600430E+02  0.59075825118E+02  0.00000000000E+00 0. -1.
         22    1    3    3    0    0 -0.10487945537E+03 -0.55479686059E+02  0.53087615489E+02  0.12998457848E+03  0.00000000000E+00 0. -1.
</event>
<event>
 7    1  0.5127424E-006  0.1026314E+03  0.7818608E-02  0.1426634E+00
          2   -1    0    0  502    0  0.00000000000E+00  0.00000000000E+00  0.14835236178E+03  0.14835236178E+03  0.00000000000E+00 0. -1.
          1   -1    0    0  501    0 -0.00000000000E+00 -0.00000000000E+00 -0.55591757343E+03  0.55591757343E+03  0.00000000000E+00 0. -1.
         25    2    1    2    0    0 -0.43108225941E+01  0.81955600464E+02 -0.32266202475E+03  0.35562730295E+03  0.12499877097E+03 0.  0.
          2    1    1    2  501    0 -0.20639291704E+02  0.18975386485E+02 -0.19512112685E+03  0.19712508668E+03  0.00000000000E+00 0. -1.
          1    1    1    2  502    0  0.24950114298E+02 -0.10093098695E+03  0.11021793996E+03  0.15151754558E+03  0.00000000000E+00 0. -1.
         22    1    3    3    0    0 -0.47529023918E+02 -0.73340631257E+01 -0.78189412708E+02  0.91795320447E+02  0.00000000000E+00 0. -1.
         22    1    3    3    0    0  0.43218201323E+02  0.89289663590E+02 -0.24447261204E+03  0.26383198250E+03  0.00000000000E+00 0. -1.
</event>
<event>
 7    1  0.5127424E-006  0.3386863E+02  0.7818608E-02  0.1592166E+00
          2   -1    0    0  502    0  0.00000000000E+00  0.00000000000E+00  0.85493323452E+03  0.85493323452E+03  0.00000000000E+00 0. -1.
          1   -1    0    0  501    0 -0.00000000000E+00 -0.00000000000E+00 -0.46715758917E+02  0.46715758917E+02  0.00000000000E+00 0. -1.
         25    2    1    2    0    0 -0.22120850923E+01  0.24232680478E+02  0.15406820050E+03  0.19988664597E+03  0.12500217881E+03 0.  0.
          2    1    1    2  501    0  0.29344642912E+02 -0.19492654662E+02 -0.10330258339E+02  0.36712203567E+02  0.00000000000E+00 0. -1.
          1    1    1    2  502    0 -0.27132557819E+02 -0.47400258159E+01  0.66447953345E+03  0.66505014390E+03  0.00000000000E+00 0. -1.
         22    1    3    3    0    0 -0.28559896652E+02  0.15315223081E+02 -0.96569730455E+01  0.33815394175E+02  0.00000000000E+00 0. -1.
         22    1    3    3    0    0  0.26347811560E+02  0.89174573962E+01  0.16372517354E+03  0.16607125179E+03  0.00000000000E+00 0. -1.
</event>
<event>
 7    1  0.5127424E-006  0.3805355E+02  0.7818608E-02  0.1567016E+00
          2   -1    0    0  502    0  0.00000000000E+00  0.00000000000E+00  0.19821195767E+04  0.19821195767E+04  0.00000000000E+00 0. -1.
          1   -1    0    0  501    0 -0.00000000000E+00 -0.00000000000E+00 -0.37508878465E+02  0.37508878465E+02  0.00000000000E+00 0. -1.
         25    2    1    2    0    0 -0.58659201811E+01 -0.24718053139E+02  0.14072387612E+04  0.14130076655E+04  0.12499736316E+03 0.  0.
          2    1    1    2  501    0  0.33704011405E+02  0.18009118554E+02 -0.23603076359E+02  0.44915408820E+02  0.00000000000E+00 0. -1.
          1    1    1    2  502    0 -0.27838091224E+02  0.67089345851E+01  0.56097501345E+03  0.56170538082E+03  0.00000000000E+00 0. -1.
         22    1    3    3    0    0 -0.25045149564E+02 -0.49778348943E+02  0.28897082333E+03  0.29429454680E+03  0.00000000000E+00 0. -1.
         22    1    3    3    0    0  0.19179229383E+02  0.25060295804E+02  0.11182679378E+04  0.11187131187E+04  0.00000000000E+00 0. -1.
</event>
<event>
 7    1  0.5127424E-006  0.1629329E+03  0.7818608E-02  0.1206364E+00
          2   -1    0    0  502    0  0.00000000000E+00  0.00000000000E+00  0.14909094221E+04  0.14909094221E+04  0.00000000000E+00 0. -1.
          1   -1    0    0  501    0 -0.00000000000E+00 -0.00000000000E+00 -0.11679861294E+04  0.11679861294E+04  0.00000000000E+00 0. -1.
         25    2    1    2    0    0  0.10111371718E+03  0.82413336285E+02  0.79206699148E+02  0.19726833091E+03  0.12500060555E+03 0.  0.
          2    1    1    2  501    0 -0.95841182940E+02  0.87215045090E+02 -0.10998133560E+04  0.11074210647E+04  0.00000000000E+00 0. -1.
          1    1    1    2  502    0 -0.52725342427E+01 -0.16962838137E+03  0.13435299495E+04  0.13542061559E+04  0.00000000000E+00 0. -1.
         22    1    3    3    0    0 -0.95616632283E+01  0.60036702984E+02  0.26571854790E+01  0.60851390646E+02  0.00000000000E+00 0. -1.
         22    1    3    3    0    0  0.11067538041E+03  0.22376633300E+02  0.76549513669E+02  0.13641694026E+03  0.00000000000E+00 0. -1.
</event>
<event>
 7    1  0.5127424E-006  0.1273492E+03  0.7818608E-02  0.1303204E+00
          2   -1    0    0  502    0  0.00000000000E+00  0.00000000000E+00  0.22229924125E+03  0.22229924125E+03  0.00000000000E+00 0. -1.
          1   -1    0    0  501    0 -0.00000000000E+00 -0.00000000000E+00 -0.59020948474E+03  0.59020948474E+03  0.00000000000E+00 0. -1.
         25    2    1    2    0    0 -0.10704202476E+03 -0.11270557224E+03 -0.30496081648E+02  0.20178799898E+03  0.12501137731E+03 0.  0.
          2    1    1    2  501    0  0.43845760219E+02  0.11777793925E+03 -0.45775906633E+03  0.47469722611E+03  0.00000000000E+00 0. -1.
          1    1    1    2  502    0  0.63196264542E+02 -0.50723670113E+01  0.12034490450E+03  0.13602350090E+03  0.00000000000E+00 0. -1.
         22    1    3    3    0    0 -0.43960330086E+02  0.10545228814E+02  0.26112010421E+02  0.52206796111E+02  0.00000000000E+00 0. -1.
         22    1    3    3    0    0 -0.63081694675E+02 -0.12325080106E+03 -0.56608092069E+02  0.14958120287E+03  0.00000000000E+00 0. -1.
</event>
<event>
 7    1  0.5127424E-006  0.1398204E+03  0.7818608E-02  0.1258275E+00
          2   -1    0    0  502    0  0.00000000000E+00  0.00000000000E+00  0.42205540236E+03  0.42205540236E+03  0.00000000000E+00 0. -1.
          1   -1    0    0  501    0 -0.00000000000E+00 -0.00000000000E+00 -0.23119339837E+04  0.23119339837E+04  0.00000000000E+00 0. -1.
         25    2    1    2    0    0  0.20353803335E+03  0.33432761472E+02 -0.14932495616E+03  0.28366871624E+03  0.12499806992E+03 0.  0.
          2    1    1    2  501    0 -0.12118670522E+03 -0.65886975417E+02 -0.20876059677E+04  0.20921582128E+04  0.00000000000E+00 0. -1.
          1    1    1    2  502    0 -0.82351328126E+02  0.32454213945E+02  0.34705234246E+03  0.35816245707E+03  0.00000000000E+00 0. -1.
         22    1    3    3    0    0  0.15178596721E+03  0.78494929146E+02 -0.90953876716E+02  0.19357954808E+03  0.00000000000E+00 0.  1.
         22    1    3    3    0    0  0.51752066134E+02 -0.45062167674E+02 -0.58371079446E+02  0.90089168163E+02  0.00000000000E+00 0.  1.
</event>
<event>
 7    1  0.5127424E-006  0.1142938E+03  0.7818608E-02  0.1405792E+00
          2   -1    0    0  502    0  0.00000000000E+00  0.00000000000E+00  0.17817389757E+04  0.17817389757E+04  0.00000000000E+00 0. -1.
          1   -1    0    0  501    0 -0.00000000000E+00 -0.00000000000E+00 -0.51109122321E+03  0.51109122321E+03  0.00000000000E+00 0. -1.
         25    2    1    2    0    0  0.80042829349E+02 -0.55599190677E+02  0.66345122553E+03  0.68212146744E+03  0.12499617252E+03 0.  0.
          2    1    1    2  501    0 -0.10641683496E+03  0.42208479401E+02 -0.49502500067E+03  0.50809039529E+03  0.00000000000E+00 0. -1.
          1    1    1    2  502    0  0.26374005616E+02  0.13390711276E+02  0.11022215276E+04  0.11026183362E+04  0.00000000000E+00 0. -1.
         22    1    3    3    0    0 -0.23859201717E+02 -0.45575779316E+02  0.16401265493E+03  0.17189114039E+03  0.00000000000E+00 0.  1.
         22    1    3    3    0    0  0.10390203107E+03 -0.10023411360E+02  0.49943857061E+03  0.51023032705E+03  0.00000000000E+00 0.  1.
</event>
<event>
 7    1  0.5127424E-006  0.6067603E+02  0.7818608E-02  0.1433156E+00
          2   -1    0    0  502    0  0.00000000000E+00  0.00000000000E+00  0.70937811893E+03  0.70937811893E+03  0.00000000000E+00 0. -1.
          1   -1    0    0  501    0 -0.00000000000E+00 -0.00000000000E+00 -0.76790112788E+02  0.76790112788E+02  0.00000000000E+00 0. -1.
         25    2    1    2    0    0  0.11304549232E+02 -0.29690812024E+02  0.37764166959E+02  0.13439160125E+03  0.12500253209E+03 0.  0.
          2    1    1    2  501    0  0.44969557756E+02  0.38591322326E+01 -0.79509853234E+01  0.45829817738E+02  0.00000000000E+00 0. -1.
          1    1    1    2  502    0 -0.56274106988E+02  0.25831679792E+02  0.60277482450E+03  0.60594681272E+03  0.00000000000E+00 0. -1.
         22    1    3    3    0    0 -0.47093706547E+02 -0.48445204516E+02  0.22124506071E+02  0.71093240226E+02  0.00000000000E+00 0. -1.
         22    1    3    3    0    0  0.58398255779E+02  0.18754392492E+02  0.15639660889E+02  0.63298361026E+02  0.00000000000E+00 0. -1.
</event>
<event>
 7    1  0.5127424E-006  0.7690175E+02  0.7818608E-02  0.1398667E+00
          2   -1    0    0  502    0  0.00000000000E+00  0.00000000000E+00  0.36604731870E+03  0.36604731870E+03  0.00000000000E+00 0. -1.
          1   -1    0    0  501    0 -0.00000000000E+00 -0.00000000000E+00 -0.66957992408E+03  0.66957992408E+03  0.00000000000E+00 0. -1.
         25    2    1    2    0    0 -0.97467630835E+01  0.89037779800E+02 -0.11930598052E+03  0.19463669271E+03  0.12500719794E+03 0.  0.
          2    1    1    2  501    0  0.46810292924E+02 -0.60950607076E+02 -0.50805775142E+03  0.51383738557E+03  0.00000000000E+00 0. -1.
          1    1    1    2  502    0 -0.37063529841E+02 -0.28087172724E+02  0.32383112656E+03  0.32715316451E+03  0.00000000000E+00 0. -1.
         22    1    3    3    0    0 -0.66900335421E+02  0.40868793528E+02 -0.69953422899E+02  0.10506852307E+03  0.00000000000E+00 0.  1.
         22    1    3    3    0    0  0.57153572337E+02  0.48168986272E+02 -0.49352557618E+02  0.89568169641E+02  0.00000000000E+00 0.  1.
</event>
<event>
 7    1  0.5127424E-006  0.8902939E+02  0.7818608E-02  0.1391175E+00
          2   -1    0    0  502    0  0.00000000000E+00  0.00000000000E+00  0.12247745032E+04  0.12247745032E+04  0.00000000000E+00 0. -1.
          1   -1    0    0  501    0 -0.00000000000E+00 -0.00000000000E+00 -0.13087261632E+03  0.13087261632E+03  0.00000000000E+00 0. -1.
         25    2    1    2    0    0 -0.10845880073E+03 -0.42692752574E+01  0.82386854399E+02  0.18491630017E+03  0.12499962450E+03 0.  0.
          2    1    1    2  501    0  0.25141728842E+02  0.34442826283E+02 -0.71955799369E+02  0.83642404762E+02  0.00000000000E+00 0. -1.
          1    1    1    2  502    0  0.83317071885E+02 -0.30173551026E+02  0.10834708318E+04  0.10870884146E+04  0.00000000000E+00 0. -1.
         22    1    3    3    0    0  0.19385691192E+02 -0.34616256386E+01  0.48959615306E+02  0.52771505626E+02  0.00000000000E+00 0.  1.
         22    1    3    3    0    0 -0.12784449192E+03 -0.80764961884E+00  0.33427239093E+02  0.13214479454E+03  0.00000000000E+00 0.  1.
</event>
<event>
 7    1  0.5127424E-006  0.3809778E+02  0.7818608E-02  0.1560299E+00
          2   -1    0    0  502    0  0.00000000000E+00  0.00000000000E+00  0.80864501955E+03  0.80864501955E+03  0.00000000000E+00 0. -1.
          1   -1    0    0  501    0 -0.00000000000E+00 -0.00000000000E+00 -0.20667767522E+04  0.20667767522E+04  0.00000000000E+00 0. -1.
         25    2    1    2    0    0  0.29176661424E+02  0.11467577944E+02  0.85598692179E+01  0.12915675471E+03  0.12500165203E+03 0.  0.
          2    1    1    2  501    0 -0.16745201499E+02  0.24698451933E+02 -0.20058730274E+04  0.20060949671E+04  0.00000000000E+00 0. -1.
          1    1    1    2  502    0 -0.12431459925E+02 -0.36166029877E+02  0.73918142551E+03  0.74017004987E+03  0.00000000000E+00 0. -1.
         22    1    3    3    0    0 -0.29404663364E+02 -0.33406820877E+02 -0.21561427353E+02  0.49452452499E+02  0.00000000000E+00 0. -1.
         22    1    3    3    0    0  0.58581324788E+02  0.44874398821E+02  0.30121296571E+02  0.79704302209E+02  0.00000000000E+00 0. -1.
</event>
<event>
 7    1  0.5127424E-006  0.6268116E+02  0.7818608E-02  0.1418819E+00
          2   -1    0    0  502    0  0.00000000000E+00  0.00000000000E+00  0.48786239969E+02  0.48786239969E+02  0.00000000000E+00 0. -1.
          1   -1    0    0  501    0 -0.00000000000E+00 -0.00000000000E+00 -0.91354757400E+03  0.91354757400E+03  0.00000000000E+00 0. -1.
         25    2    1    2    0    0  0.89606966195E+00 -0.27885882003E+02 -0.27031355365E+03  0.29912136864E+03  0.12500300210E+03 0.  0.
          2    1    1    2  501    0 -0.42786871767E+02  0.52796560833E+02 -0.60866209463E+03  0.61244406983E+03  0.00000000000E+00 0. -1.
          1    1    1    2  502    0  0.41890802105E+02 -0.24910678831E+02  0.14214314250E+02  0.50768375495E+02  0.00000000000E+00 0. -1.
         22    1    3    3    0    0  0.35334449492E+02 -0.61108553953E+02 -0.21336216983E+03  0.22473583204E+03  0.00000000000E+00 0. -1.
         22    1    3    3    0    0 -0.34438379830E+02  0.33222671950E+02 -0.56951383819E+02  0.74385536603E+02  0.00000000000E+00 0. -1.
</event>
<event>
 7    1  0.5127424E-006  0.9837477E+02  0.7818608E-02  0.1289484E+00
          2   -1    0    0  502    0  0.00000000000E+00  0.00000000000E+00  0.57044600793E+03  0.57044600793E+03  0.00000000000E+00 0. -1.
          1   -1    0    0  501    0 -0.00000000000E+00 -0.00000000000E+00 -0.11988210624E+04  0.11988210624E+04  0.00000000000E+00 0. -1.
         25    2    1    2    0    0  0.31127943213E+02  0.42344518084E+02  0.86087502435E+01  0.13587106841E+03  0.12499931836E+03 0.  0.
          2    1    1    2  501    0  0.62143662781E+02 -0.76261132642E+02 -0.11280852435E+04  0.11323665095E+04  0.00000000000E+00 0. -1.
          1    1    1    2  502    0 -0.93271605993E+02  0.33916614558E+02  0.49110143873E+03  0.50102949250E+03  0.00000000000E+00 0. -1.
         22    1    3    3    0    0  0.36732477711E+02  0.84988528759E+02  0.60488776258E+01  0.92784232820E+02  0.00000000000E+00 0. -1.
         22    1    3    3    0    0 -0.56045344980E+01 -0.42644010675E+02  0.25598726177E+01  0.43086835591E+02  0.00000000000E+00 0. -1.
</event>
<event>
 7    1  0.5127424E-006  0.7566928E+02  0.7818608E-02  0.1401513E+00
          2   -1    0    0  502    0  0.00000000000E+00  0.00000000000E+00  0.14471333340E+04  0.14471333340E+04  0.00000000000E+00 0. -1.
          1   -1    0    0  501    0 -0.00000000000E+00 -0.00000000000E+00 -0.93089758906E+02  0.93089758906E+02  0.00000000000E+00 0. -1.
         25    2    1    2    0    0 -0.43537179318E+02 -0.16475118170E+02  0.76596540176E+03  0.77749486179E+03  0.12501339094E+03 0.  0.
          2    1    1    2  501    0  0.74342082506E+02 -0.17966974535E+02 -0.69610976879E+02  0.10341782007E+03  0.00000000000E+00 0. -1.
          1    1    1    2  502    0 -0.30804903188E+02  0.34442092705E+02  0.65768915022E+03  0.65931041106E+03  0.00000000000E+00 0. -1.
         22    1    3    3    0    0 -0.63290179857E+02 -0.11054266934E+02  0.74642822113E+03  0.74918818262E+03  0.00000000000E+00 0. -1.
         22    1    3    3    0    0  0.19753000539E+02 -0.54208512360E+01  0.19537180629E+02  0.28306679165E+02  0.00000000000E+00 0. -1.
</event>
<event>
 7    1  0.5127424E-006  0.1114856E+03  0.7818608E-02  0.1360509E+00
          2   -1    0    0  502    0  0.00000000000E+00  0.00000000000E+00  0.23354757652E+03  0.23354757652E+03  0.00000000000E+00 0. -1.
          1   -1    0    0  501    0 -0.00000000000E+00 -0.00000000000E+00 -0.16542736228E+03  0.16542736228E+03  0.00000000000E+00 0. -1.
         25    2    1    2    0    0  0.87518904012E+02  0.63728595625E+01  0.56756257750E+02  0.16293073178E+03  0.12499991466E+03 0.  0.
          2    1    1    2  501    0  0.39386249312E+02 -0.19157946228E+02 -0.71567599893E+02  0.83906048012E+02  0.00000000000E+00 0. -1.
          1    1    1    2  502    0 -0.12690515332E+03  0.12785086665E+02  0.82931556387E+02  0.15213815901E+03  0.00000000000E+00 0. -1.
         22    1    3    3    0    0  0.21784524664E+02 -0.48435251308E+02 -0.10430803412E+02  0.54123384447E+02  0.00000000000E+00 0. -1.
         22    1    3    3    0    0  0.65734379348E+02  0.54808110871E+02  0.67187061163E+02  0.10880734733E+03  0.00000000000E+00 0. -1.
</event>
<event>
 7    1  0.5127424E-006  0.8259264E+02  0.7818608E-02  0.1337550E+00
          2   -1    0    0  502    0  0.00000000000E+00  0.00000000000E+00  0.23068667997E+04  0.23068667997E+04  0.00000000000E+00 0. -1.
          1   -1    0    0  501    0 -0.00000000000E+00 -0.00000000000E+00 -0.67266899333E+03  0.67266899333E+03  0.00000000000E+00 0. -1.
         25    2    1    2    0    0  0.29825450248E+02 -0.12288090099E+02  0.51311540766E+03  0.52910778403E+03  0.12500828331E+03 0.  0.
          2    1    1    2  501    0  0.54630431157E+02  0.46798232087E+02 -0.66155653146E+03  0.66545593608E+03  0.00000000000E+00 0. -1.
          1    1    1    2  502    0 -0.84455881405E+02 -0.34510141988E+02  0.17826389302E+04  0.17849720729E+04  0.00000000000E+00 0. -1.
         22    1    3    3    0    0 -0.26965275688E+02 -0.43021909406E+01  0.23153961609E+02  0.35801408883E+02  0.00000000000E+00 0.  1.
         22    1    3    3    0    0  0.56790725937E+02 -0.79858991586E+01  0.48996144605E+03  0.49330637514E+03  0.00000000000E+00 0.  1.
</event>
<event>
 7    1  0.5127424E-006  0.8738269E+02  0.7818608E-02  0.1395253E+00
          2   -1    0    0  502    0  0.00000000000E+00  0.00000000000E+00  0.11999582245E+04  0.11999582245E+04  0.00000000000E+00 0. -1.
          1   -1    0    0  501    0 -0.00000000000E+00 -0.00000000000E+00 -0.12509608343E+04  0.12509608343E+04  0.00000000000E+00 0. -1.
         25    2    1    2    0    0  0.28939775850E+02 -0.54347533456E+02  0.55119301333E+03  0.56853567828E+03  0.12501165751E+03 0.  0.
          2    1    1    2  501    0 -0.70878450131E+02  0.51258278679E+02 -0.12400565677E+04  0.12431377466E+04  0.00000000000E+00 0. -1.
          1    1    1    2  502    0  0.41938674281E+02  0.30892547766E+01  0.63786094458E+03  0.63924563394E+03  0.00000000000E+00 0. -1.
         22    1    3    3    0    0  0.64915619376E+02 -0.53277792300E+02  0.22152928901E+03  0.23691303611E+03  0.00000000000E+00 0.  1.
         22    1    3    3    0    0 -0.35975843526E+02 -0.10697411560E+01  0.32966372433E+03  0.33162264217E+03  0.00000000000E+00 0.  1.
</event>
<event>
 7    1  0.5127424E-006  0.7334092E+02  0.7818608E-02  0.1413769E+00
          2   -1    0    0  502    0  0.00000000000E+00  0.00000000000E+00  0.20952364922E+04  0.20952364922E+04  0.00000000000E+00 0. -1.
          1   -1    0    0  501    0 -0.00000000000E+00 -0.00000000000E+00 -0.29846862204E+02  0.29846862204E+02  0.00000000000E+00 0. -1.
         25    2    1    2    0    0  0.54062646238E+02  0.47339924077E+02  0.79512451917E+03  0.80809133397E+03  0.12499905968E+03 0.  0.
          2    1    1    2  501    0 -0.34912557831E+02  0.25634177747E+02 -0.11620920208E+01  0.43328376625E+02  0.00000000000E+00 0. -1.
          1    1    1    2  502    0 -0.19150088406E+02 -0.72974101824E+02  0.12714272028E+04  0.12736636438E+04  0.00000000000E+00 0. -1.
         22    1    3    3    0    0  0.43601833942E+02  0.58332302359E+01  0.76906088770E+02  0.88598493147E+02  0.00000000000E+00 0.  1.
         22    1    3    3    0    0  0.10460812296E+02  0.41506693842E+02  0.71821843040E+03  0.71949284082E+03  0.00000000000E+00 0.  1.
</event>
<event>
 7    1  0.5127424E-006  0.3790852E+02  0.7818608E-02  0.1578354E+00
          2   -1    0    0  502    0  0.00000000000E+00  0.00000000000E+00  0.37550508304E+02  0.37550508304E+02  0.00000000000E+00 0. -1.
          1   -1    0    0  501    0 -0.00000000000E+00 -0.00000000000E+00 -0.41644977469E+03  0.41644977469E+03  0.00000000000E+00 0. -1.
         25    2    1    2    0    0  0.30134841907E+02 -0.46915725217E+02 -0.26836697117E+03  0.30125719596E+03  0.12500349168E+03 0.  0.
          2    1    1    2  501    0 -0.60903856216E+01  0.35117338859E+02 -0.11934021154E+03  0.12454881122E+03  0.00000000000E+00 0. -1.
          1    1    1    2  502    0 -0.24044456286E+02  0.11798386357E+02  0.88079163255E+01  0.28194275815E+02  0.00000000000E+00 0. -1.
         22    1    3    3    0    0 -0.32595537439E+02 -0.62537493717E+02 -0.11617628525E+03  0.13590561591E+03  0.00000000000E+00 0.  1.
         22    1    3    3    0    0  0.62730379346E+02  0.15621768501E+02 -0.15219068592E+03  0.16535158005E+03  0.00000000000E+00 0.  1.
</event>
<event>
 7    1  0.5127424E-006  0.7012595E+02  0.7818608E-02  0.1438103E+00
          2   -1    0    0  502    0  0.00000000000E+00  0.00000000000E+00  0.99292695055E+02  0.99292695055E+02  0.00000000000E+00 0. -1.
          1   -1    0    0  501    0 -0.00000000000E+00 -0.00000000000E+00 -0.20768349145E+04  0.20768349145E+04  0.00000000000E+00 0. -1.
         25    2    1    2    0    0  0.35996196853E+02  0.54795772126E+01 -0.33318521328E+03  0.35773385301E+03  0.12504147828E+03 0.  0.
          2    1    1    2  501    0 -0.72066023462E+02  0.52320104256E+01 -0.17265166492E+04  0.17280279586E+04  0.00000000000E+00 0. -1.
          1    1    1    2  502    0  0.36069826609E+02 -0.10711587638E+02  0.82159643023E+02  0.90365797971E+02  0.00000000000E+00 0. -1.
         22    1    3    3    0    0  0.65650047634E+02 -0.20197471386E+02 -0.10027735424E+03  0.12154593526E+03  0.00000000000E+00 0.  1.
         22    1    3    3    0    0 -0.29653850780E+02  0.25677048598E+02 -0.23290785904E+03  0.23618791775E+03  0.00000000000E+00 0.  1.
</event>
<event>
 7    1  0.5127424E-006  0.9977824E+02  0.7818608E-02  0.1396969E+00
          2   -1    0    0  502    0  0.00000000000E+00  0.00000000000E+00  0.22324858451E+03  0.22324858451E+03  0.00000000000E+00 0. -1.
          1   -1    0    0  501    0 -0.00000000000E+00 -0.00000000000E+00 -0.57823654212E+03  0.57823654212E+03  0.00000000000E+00 0. -1.
         25    2    1    2    0    0 -0.63656106209E+02 -0.23847177605E+02 -0.99795881112E+02  0.17380078411E+03  0.12500682755E+03 0.  0.
          2    1    1    2  501    0 -0.28453648510E+02 -0.22585957271E+02 -0.42632371569E+03  0.42786872536E+03  0.00000000000E+00 0. -1.
          1    1    1    2  502    0  0.92109754719E+02  0.46433134876E+02  0.17113163919E+03  0.19981561716E+03  0.00000000000E+00 0. -1.
         22    1    3    3    0    0 -0.63482534260E+02  0.91918873542E+00 -0.12391320286E+03  0.13923131439E+03  0.00000000000E+00 0.  1.
         22    1    3    3    0    0 -0.17357194971E+00 -0.24766366341E+02  0.24117321744E+02  0.34569469725E+02  0.00000000000E+00 0.  1.
</event>
<event>
 7    1  0.5127424E-006  0.6646175E+02  0.7818608E-02  0.1467200E+00
          2   -1    0    0  502    0  0.00000000000E+00  0.00000000000E+00  0.91429243690E+02  0.91429243690E+02  0.00000000000E+00 0. -1.
          1   -1    0    0  501    0 -0.00000000000E+00 -0.00000000000E+00 -0.35907215532E+03  0.35907215532E+03  0.00000000000E+00 0. -1.
         25    2    1    2    0    0  0.57252717782E+02  0.63602744698E+02 -0.26098822968E+02  0.15372079704E+03  0.12500300819E+03 0.  0.
          2    1    1    2  501    0 -0.66257475757E+01 -0.31374036760E+02 -0.23412296722E+03  0.23630868476E+03  0.00000000000E+00 0. -1.
          1    1    1    2  502    0 -0.50626970207E+02 -0.32228707938E+02 -0.74211214468E+01  0.60471917211E+02  0.00000000000E+00 0. -1.
         22    1    3    3    0    0  0.20056315929E+02  0.87389593034E+02  0.17853257133E+02  0.91421745606E+02  0.00000000000E+00 0. -1.
         22    1    3    3    0    0  0.37196401853E+02 -0.23786848336E+02 -0.43952080101E+02  0.62299051436E+02  0.00000000000E+00 0. -1.
</event>
<event>
 7    1  0.5127424E-006  0.8611790E+02  0.7818608E-02  0.1369518E+00
          2   -1    0    0  502    0  0.00000000000E+00  0.00000000000E+00  0.12434074910E+04  0.12434074910E+04  0.00000000000E+00 0. -1.
          1   -1    0    0  501    0 -0.00000000000E+00 -0.00000000000E+00 -0.11427502317E+04  0.11427502317E+04  0.00000000000E+00 0. -1.
         25    2    1    2    0    0  0.10825030712E+03 -0.36060175036E+01  0.38127194001E+02  0.16973498456E+03  0.12500059883E+03 0.  0.
          2    1    1    2  501    0 -0.74088964483E+02  0.43598195127E+02 -0.10746220194E+04  0.10780549438E+04  0.00000000000E+00 0. -1.
          1    1    1    2  502    0 -0.34161342637E+02 -0.39992177623E+02  0.11371520847E+04  0.11383677944E+04  0.00000000000E+00 0. -1.
         22    1    3    3    0    0  0.34202263728E+02 -0.61185174397E+02  0.50649690960E+01  0.70278548093E+02  0.00000000000E+00 0. -1.
         22    1    3    3    0    0  0.74048043392E+02  0.57579156893E+02  0.33062224905E+02  0.99456436465E+02  0.00000000000E+00 0. -1.
</event>
<event>
 7    1  0.5127424E-006  0.6135005E+02  0.7818608E-02  0.1459717E+00
          2   -1    0    0  502    0  0.00000000000E+00  0.00000000000E+00  0.35338732700E+03  0.35338732700E+03  0.00000000000E+00 0. -1.
          1   -1    0    0  501    0 -0.00000000000E+00 -0.00000000000E+00 -0.40983253810E+03  0.40983253810E+03  0.00000000000E+00 0. -1.
         25    2    1    2    0    0  0.48693393874E+02 -0.24656784960E+02 -0.24123955384E+03  0.27713051092E+03  0.12500317634E+03 0.  0.
          2    1    1    2  501    0 -0.20800914567E+02 -0.30197793001E+02 -0.14553158984E+03  0.15008007326E+03  0.00000000000E+00 0. -1.
          1    1    1    2  502    0 -0.27892479307E+02  0.54854577961E+02  0.33032593258E+03  0.33600928092E+03  0.00000000000E+00 0. -1.
         22    1    3    3    0    0 -0.18546169720E+02  0.26932171566E+02 -0.14611125074E+03  0.14972574885E+03  0.00000000000E+00 0. -1.
         22    1    3    3    0    0  0.67239563594E+02 -0.51588956526E+02 -0.95128303107E+02  0.12740476208E+03  0.00000000000E+00 0. -1.
</event>
<event>
 7    1  0.5127424E-006  0.2083961E+03  0.7818608E-02  0.1260860E+00
          2   -1    0    0  502    0  0.00000000000E+00  0.00000000000E+00  0.81581731079E+03  0.81581731079E+03  0.00000000000E+00 0. -1.
          1   -1    0    0  501    0 -0.00000000000E+00 -0.00000000000E+00 -0.85308863827E+03  0.85308863827E+03  0.00000000000E+00 0. -1.
         25    2    1    2    0    0  0.16526613553E+03 -0.16406793031E+03  0.23439512770E+03  0.35326663399E+03  0.12500022996E+03 0.  0.
          2    1    1    2  501    0 -0.57529101682E+02 -0.65197253078E+01 -0.77303341219E+03  0.77519852988E+03  0.00000000000E+00 0. -1.
          1    1    1    2  502    0 -0.10773703385E+03  0.17058765562E+03  0.50136695701E+03  0.54044078519E+03  0.00000000000E+00 0. -1.
         22    1    3    3    0    0  0.12984747700E+02 -0.43695957233E+02  0.11903229172E+03  0.12746225647E+03  0.00000000000E+00 0.  1.
         22    1    3    3    0    0  0.15228138783E+03 -0.12037197308E+03  0.11536283598E+03  0.22580437752E+03  0.00000000000E+00 0.  1.
</event>
<event>
 7    1  0.5127424E-006  0.6323808E+02  0.7818608E-02  0.1463319E+00
          2   -1    0    0  502    0  0.00000000000E+00  0.00000000000E+00  0.10209194589E+04  0.10209194589E+04  0.00000000000E+00 0. -1.
          1   -1    0    0  501    0 -0.00000000000E+00 -0.00000000000E+00 -0.14084079264E+04  0.14084079264E+04  0.00000000000E+00 0. -1.
         25    2    1    2    0    0  0.45684056534E+02  0.53833386687E+02  0.12981001114E+03  0.19354657078E+03  0.12499827808E+03 0.  0.
          2    1    1    2  501    0 -0.59308205409E+02 -0.21966650988E+02 -0.13754632403E+04  0.13769165270E+04  0.00000000000E+00 0. -1.
          1    1    1    2  502    0  0.13624148874E+02 -0.31866735698E+02  0.85816476158E+03  0.85886428747E+03  0.00000000000E+00 0. -1.
         22    1    3    3    0    0 -0.75099157578E+01  0.80781856406E+02  0.55631363681E+02  0.98371519172E+02  0.00000000000E+00 0. -1.
         22    1    3    3    0    0  0.53193972292E+02 -0.26948469720E+02  0.74178647462E+02  0.95175051604E+02  0.00000000000E+00 0. -1.
</event>
<event>
 7    1  0.5127424E-006  0.3922776E+02  0.7818608E-02  0.1542819E+00
          2   -1    0    0  502    0  0.00000000000E+00  0.00000000000E+00  0.12564096436E+03  0.12564096436E+03  0.00000000000E+00 0. -1.
          1   -1    0    0  501    0 -0.00000000000E+00 -0.00000000000E+00 -0.40324450660E+03  0.40324450660E+03  0.00000000000E+00 0. -1.
         25    2    1    2    0    0  0.11726477488E+02 -0.69672180938E+02 -0.10709939103E+03  0.17912538535E+03  0.12499560412E+03 0.  0.
          2    1    1    2  501    0 -0.70658847720E+01  0.31636722987E+02 -0.25496258502E+03  0.25701503600E+03  0.00000000000E+00 0. -1.
          1    1    1    2  502    0 -0.46605927156E+01  0.38035457952E+02  0.84458433811E+02  0.92745049614E+02  0.00000000000E+00 0. -1.
         22    1    3    3    0    0  0.68363260905E+02 -0.37797034103E+02 -0.51182010120E+02  0.93390306716E+02  0.00000000000E+00 0.  1.
         22    1    3    3    0    0 -0.56636783417E+02 -0.31875146835E+02 -0.55917380908E+02  0.85735078639E+02  0.00000000000E+00 0.  1.
</event>
<event>
 7    1  0.5127424E-006  0.9948484E+02  0.7818608E-02  0.1369220E+00
          2   -1    0    0  502    0  0.00000000000E+00  0.00000000000E+00  0.14551788808E+03  0.14551788808E+03  0.00000000000E+00 0. -1.
          1   -1    0    0  501    0 -0.00000000000E+00 -0.00000000000E+00 -0.23118443922E+04  0.23118443922E+04  0.00000000000E+00 0. -1.
         25    2    1    2    0    0 -0.90849792565E+02 -0.69774261205E+02 -0.66425191435E+03  0.68554979144E+03  0.12500311395E+03 0.  0.
          2    1    1    2  501    0  0.42388779683E+02 -0.16922099456E+02 -0.16182922929E+04  0.16189357959E+04  0.00000000000E+00 0. -1.
          1    1    1    2  502    0  0.48461012883E+02  0.86696360661E+02  0.11621770311E+03  0.15287669292E+03  0.00000000000E+00 0. -1.
         22    1    3    3    0    0 -0.68749616673E+01  0.42667036865E+01  0.32534749744E+01  0.87209493568E+01  0.00000000000E+00 0. -1.
         22    1    3    3    0    0 -0.83974830898E+02 -0.74040964891E+02 -0.66750538932E+03  0.67682884209E+03  0.00000000000E+00 0. -1.
</event>
<event>
 7    1  0.5127424E-006  0.1184270E+03  0.7818608E-02  0.1269202E+00
          2   -1    0    0  502    0  0.00000000000E+00  0.00000000000E+00  0.20520830364E+04  0.20520830364E+04  0.00000000000E+00 0. -1.
          1   -1    0    0  501    0 -0.00000000000E+00 -0.00000000000E+00 -0.23485544751E+03  0.23485544751E+03  0.00000000000E+00 0. -1.
         25    2    1    2    0    0  0.97889099779E+02 -0.51280349959E+02  0.79543714723E+03  0.81274676966E+03  0.12500042499E+03 0.  0.
          2    1    1    2  501    0 -0.11180322907E+03 -0.41609226620E+02 -0.20855656937E+03  0.24026471318E+03  0.00000000000E+00 0. -1.
          1    1    1    2  502    0  0.13914129292E+02  0.92889576579E+02  0.12303470110E+04  0.12339270011E+04  0.00000000000E+00 0. -1.
         22    1    3    3    0    0  0.90086718331E+02 -0.24530165001E+02  0.25439225446E+03  0.27098480575E+03  0.00000000000E+00 0.  1.
         22    1    3    3    0    0  0.78023814484E+01 -0.26750184958E+02  0.54104489277E+03  0.54176196391E+03  0.00000000000E+00 0.  1.
</event>
<event>
 7    1  0.5127424E-006  0.1625386E+03  0.7818608E-02  0.1283701E+00
          2   -1    0    0  502    0  0.00000000000E+00  0.00000000000E+00  0.39913905442E+03  0.39913905442E+03  0.00000000000E+00 0. -1.
          1   -1    0    0  501    0 -0.00000000000E+00 -0.00000000000E+00 -0.10657822294E+04  0.10657822294E+04  0.00000000000E+00 0. -1.
         25    2    1    2    0    0  0.10794561410E+03 -0.12423424543E+02 -0.22288728073E+02  0.16711969843E+03  0.12500243647E+03 0.  0.
          2    1    1    2  501    0 -0.16751432322E+03  0.12323480744E+02 -0.96101680253E+03  0.97558506108E+03  0.00000000000E+00 0. -1.
          1    1    1    2  502    0  0.59568709117E+02  0.99943799363E-01  0.31666235561E+03  0.32221652433E+03  0.00000000000E+00 0. -1.
         22    1    3    3    0    0  0.98786796317E+02 -0.29626398262E+02  0.33169756652E+02  0.10833645442E+03  0.00000000000E+00 0.  1.
         22    1    3    3    0    0  0.91588177821E+01  0.17202973719E+02 -0.55458484725E+02  0.58783244006E+02  0.00000000000E+00 0.  1.
</event>
<event>
 7    1  0.5127424E-006  0.1093354E+03  0.7818608E-02  0.1442102E+00
          2   -1    0    0  502    0  0.00000000000E+00  0.00000000000E+00  0.12348543176E+04  0.12348543176E+04  0.00000000000E+00 0. -1.
          1   -1    0    0  501    0 -0.00000000000E+00 -0.00000000000E+00 -0.50011238367E+03  0.50011238367E+03  0.00000000000E+00 0. -1.
         25    2    1    2    0    0 -0.52339761246E+02  0.11333937184E+03  0.68143616631E+03  0.70396403687E+03  0.12499941052E+03 0.  0.
          2    1    1    2  501    0  0.30504014910E+02 -0.10486433505E+03 -0.48248983899E+03  0.49469532888E+03  0.00000000000E+00 0. -1.
          1    1    1    2  502    0  0.21835746336E+02 -0.84750367897E+01  0.53579560665E+03  0.53630733556E+03  0.00000000000E+00 0. -1.
         22    1    3    3    0    0 -0.41709509310E+02  0.13780873704E+03  0.62729030593E+03  0.64360240761E+03  0.00000000000E+00 0.  1.
         22    1    3    3    0    0 -0.10630251936E+02 -0.24469365207E+02  0.54145860385E+02  0.60361629258E+02  0.00000000000E+00 0.  1.
</event>
<event>
 7    1  0.5127424E-006  0.1763494E+03  0.7818608E-02  0.1233769E+00
          2   -1    0    0  502    0  0.00000000000E+00  0.00000000000E+00  0.28165720082E+04  0.28165720082E+04  0.00000000000E+00 0. -1.
          1   -1    0    0  501    0 -0.00000000000E+00 -0.00000000000E+00 -0.21150102195E+03  0.21150102195E+03  0.00000000000E+00 0. -1.
         25    2    1    2    0    0 -0.15570071529E+03  0.32981545327E+02  0.28690514761E+02  0.20436842008E+03  0.12495123215E+03 0.  0.
          2    1    1    2  501    0 -0.12914689422E+02 -0.88857293847E+02 -0.10402615891E+03  0.13741851990E+03  0.00000000000E+00 0. -1.
          1    1    1    2  502    0  0.16861540471E+03  0.55875748520E+02  0.26804066304E+04  0.26862860902E+04  0.00000000000E+00 0. -1.
         22    1    3    3    0    0 -0.10846596267E+03  0.80285138269E+02  0.12074883594E+02  0.13548568669E+03  0.00000000000E+00 0. -1.
         22    1    3    3    0    0 -0.47234752619E+02 -0.47303592942E+02  0.16615631166E+02  0.68882733390E+02  0.00000000000E+00 0. -1.
</event>
<event>
 7    1  0.5127424E-006  0.5828880E+02  0.7818608E-02  0.1450624E+00
          2   -1    0    0  502    0  0.00000000000E+00  0.00000000000E+00  0.66029624982E+03  0.66029624982E+03  0.00000000000E+00 0. -1.
          1   -1    0    0  501    0 -0.00000000000E+00 -0.00000000000E+00 -0.11147715214E+03  0.11147715214E+03  0.00000000000E+00 0. -1.
         25    2    1    2    0    0 -0.78555545406E+02 -0.52834944974E+02  0.64464152965E+02  0.16953800626E+03  0.12500001369E+03 0.  0.
          2    1    1    2  501    0  0.39873706157E+02  0.10559125747E+02 -0.49999175377E+02  0.64817629682E+02  0.00000000000E+00 0. -1.
          1    1    1    2  502    0  0.38681839250E+02  0.42275819227E+02  0.53435412009E+03  0.53741776602E+03  0.00000000000E+00 0. -1.
         22    1    3    3    0    0 -0.72238662743E+02 -0.87482713971E+01 -0.18760409293E+02  0.75145922072E+02  0.00000000000E+00 0.  1.
         22    1    3    3    0    0 -0.63168826634E+01 -0.44086673577E+02  0.83224562257E+02  0.94392084184E+02  0.00000000000E+00 0.  1.
</event>
<event>
 7    1  0.5127424E-006  0.4169966E+02  0.7818608E-02  0.1523110E+00
          2   -1    0    0  502    0  0.00000000000E+00  0.00000000000E+00  0.38432848173E+03  0.38432848173E+03  0.00000000000E+00 0. -1.
          1   -1    0    0  501    0 -0.00000000000E+00 -0.00000000000E+00 -0.56038181833E+03  0.56038181833E+03  0.00000000000E+00 0. -1.
         25    2    1    2    0    0  0.24956852941E+02 -0.42928717689E+02  0.24068025214E+03  0.27573127889E+03  0.12504013386E+03 0.  0.
          2    1    1    2  501    0  0.96747073482E+01  0.40580050747E+02 -0.53964765284E+03  0.54125772946E+03  0.00000000000E+00 0. -1.
          1    1    1    2  502    0 -0.34631560290E+02  0.23486669419E+01  0.12291406409E+03  0.12772129171E+03  0.00000000000E+00 0. -1.
         22    1    3    3    0    0  0.71817466985E+02 -0.13371475897E+01  0.13240727574E+03  0.15063606208E+03  0.00000000000E+00 0.  1.
         22    1    3    3    0    0 -0.46860614044E+02 -0.41591570099E+02  0.10827297640E+03  0.12509521682E+03  0.00000000000E+00 0.  1.
</event>
<event>
 7    1  0.5127424E-006  0.9607479E+02  0.7818608E-02  0.1305398E+00
          2   -1    0    0  502    0  0.00000000000E+00  0.00000000000E+00  0.13221143516E+04  0.13221143516E+04  0.00000000000E+00 0. -1.
          1   -1    0    0  501    0 -0.00000000000E+00 -0.00000000000E+00 -0.42589686373E+03  0.42589686373E+03  0.00000000000E+00 0. -1.
         25    2    1    2    0    0  0.42822862578E+02  0.12580602599E+03 -0.82918322167E+02  0.20040240192E+03  0.12499888323E+03 0.  0.
          2    1    1    2  501    0  0.37513634101E+02 -0.73327311810E+02 -0.27640000478E+03  0.28841139028E+03  0.00000000000E+00 0. -1.
          1    1    1    2  502    0 -0.80336496678E+02 -0.52478714180E+02  0.12555358148E+04  0.12591974231E+04  0.00000000000E+00 0. -1.
         22    1    3    3    0    0  0.72098507347E+02  0.42513598408E+02 -0.70515850563E+01  0.83995985994E+02  0.00000000000E+00 0. -1.
         22    1    3    3    0    0 -0.29275644769E+02  0.83292427582E+02 -0.75866737110E+02  0.11640641593E+03  0.00000000000E+00 0. -1.
</event>
<event>
 7    1  0.5127424E-006  0.2896612E+02  0.7818608E-02  0.1669099E+00
          2   -1    0    0  502    0  0.00000000000E+00  0.00000000000E+00  0.34852430715E+04  0.34852430715E+04  0.00000000000E+00 0. -1.
          1   -1    0    0  501    0 -0.00000000000E+00 -0.00000000000E+00 -0.53220420356E+02  0.53220420356E+02  0.00000000000E+00 0. -1.
         25    2    1    2    0    0 -0.31002060930E+02 -0.27288675693E+02  0.15442101395E+04  0.15498118655E+04  0.12500425624E+03 0.  0.
          2    1    1    2  501    0  0.20622233353E+02  0.56801162369E+00 -0.48198712945E+02  0.52428189700E+02  0.00000000000E+00 0. -1.
          1    1    1    2  502    0  0.10379827577E+02  0.26720664069E+02  0.19360112246E+04  0.19362234366E+04  0.00000000000E+00 0. -1.
         22    1    3    3    0    0 -0.40306602406E+02  0.15267295752E+02  0.13536559299E+04  0.13543419395E+04  0.00000000000E+00 0. -1.
         22    1    3    3    0    0  0.93045414757E+01 -0.42555971446E+02  0.19055420955E+03  0.19546992601E+03  0.00000000000E+00 0. -1.
</event>
<event>
 7    1  0.5127424E-006  0.4297716E+02  0.7818608E-02  0.1507203E+00
          2   -1    0    0  502    0  0.00000000000E+00  0.00000000000E+00  0.14406225386E+04  0.14406225386E+04  0.00000000000E+00 0. -1.
          1   -1    0    0  501    0 -0.00000000000E+00 -0.00000000000E+00 -0.15500773797E+02  0.15500773797E+02  0.00000000000E+00 0. -1.
         25    2    1    2    0    0  0.63799205543E+02 -0.12926457304E+02  0.10498303110E+04  0.10592474744E+04  0.12499639288E+03 0.  0.
          2    1    1    2  501    0 -0.30290809835E+02  0.29728941844E+02  0.36387763621E+02  0.55905388694E+02  0.00000000000E+00 0. -1.
          1    1    1    2  502    0 -0.33508395707E+02 -0.16802484540E+02  0.33890369013E+03  0.34097044924E+03  0.00000000000E+00 0. -1.
         22    1    3    3    0    0 -0.25671354833E+02 -0.73307086155E+00  0.59425125010E+03  0.59480593818E+03  0.00000000000E+00 0. -1.
         22    1    3    3    0    0  0.89470560376E+02 -0.12193386442E+02  0.45557906092E+03  0.46444153625E+03  0.00000000000E+00 0. -1.
</event>
<event>
 7    1  0.5127424E-006  0.7833343E+02  0.7818608E-02  0.1416454E+00
          2   -1    0    0  502    0  0.00000000000E+00  0.00000000000E+00  0.72416343462E+03  0.72416343462E+03  0.00000000000E+00 0. -1.
          1   -1    0    0  501    0 -0.00000000000E+00 -0.00000000000E+00 -0.23783373333E+04  0.23783373333E+04  0.00000000000E+00 0. -1.
         25    2    1    2    0    0  0.10340824241E+03 -0.51340220134E+02  0.91218232505E+02  0.19306919697E+03  0.12500346426E+03 0.  0.
          2    1    1    2  501    0 -0.37951856822E+02  0.11710483643E+02 -0.23247265164E+04  0.23250657743E+04  0.00000000000E+00 0. -1.
          1    1    1    2  502    0 -0.65456385586E+02  0.39629736490E+02  0.57933438519E+03  0.58436579664E+03  0.00000000000E+00 0. -1.
         22    1    3    3    0    0  0.36551241770E+02 -0.86987904121E+02  0.48521107115E+02  0.10609988960E+03  0.00000000000E+00 0.  1.
         22    1    3    3    0    0  0.66857000638E+02  0.35647683987E+02  0.42697125390E+02  0.86969307371E+02  0.00000000000E+00 0.  1.
</event>
<event>
 7    1  0.5127424E-006  0.3808485E+02  0.7818608E-02  0.1529895E+00
          2   -1    0    0  502    0  0.00000000000E+00  0.00000000000E+00  0.69958541019E+03  0.69958541019E+03  0.00000000000E+00 0. -1.
          1   -1    0    0  501    0 -0.00000000000E+00 -0.00000000000E+00 -0.15084428665E+03  0.15084428665E+03  0.00000000000E+00 0. -1.
         25    2    1    2    0    0 -0.65741687927E+01 -0.46869023909E+01  0.42771014435E+03  0.44567511276E+03  0.12500060722E+03 0.  0.
          2    1    1    2  501    0 -0.29237691745E+02 -0.21571515349E+02 -0.13761158235E+03  0.14232751136E+03  0.00000000000E+00 0. -1.
          1    1    1    2  502    0  0.35811860538E+02  0.26258417740E+02  0.25864256153E+03  0.26242707272E+03  0.00000000000E+00 0. -1.
         22    1    3    3    0    0  0.29647046828E+01 -0.28988277829E+02  0.41607348585E+03  0.41709262203E+03  0.00000000000E+00 0.  1.
         22    1    3    3    0    0 -0.95388734755E+01  0.24301375438E+02  0.11636658503E+02  0.28582490733E+02  0.00000000000E+00 0.  1.
</event>
<event>
 7    1  0.5127424E-006  0.1854292E+03  0.7818608E-02  0.1349362E+00
          2   -1    0    0  502    0  0.00000000000E+00  0.00000000000E+00  0.10748863749E+03  0.10748863749E+03  0.00000000000E+00 0. -1.
          1   -1    0    0  501    0 -0.00000000000E+00 -0.00000000000E+00 -0.14094458352E+04  0.14094458352E+04  0.00000000000E+00 0. -1.
         25    2    1    2    0    0  0.86093098232E+02 -0.15967973023E+03 -0.10042867211E+03  0.24211585463E+03  0.12499812427E+03 0.  0.
          2    1    1    2  501    0  0.28512572765E+02  0.49539880291E+01 -0.98355323073E+03  0.98397889534E+03  0.00000000000E+00 0. -1.
          1    1    1    2  502    0 -0.11460567100E+03  0.15472574221E+03 -0.21797529486E+03  0.29083972269E+03  0.00000000000E+00 0. -1.
         22    1    3    3    0    0  0.38617982963E+02 -0.24951086092E+02 -0.87297763341E+02  0.98665114350E+02  0.00000000000E+00 0.  1.
         22    1    3    3    0    0  0.47475115268E+02 -0.13472864414E+03 -0.13130908766E+02  0.14345074028E+03  0.00000000000E+00 0.  1.
</event>
<event>
 7    1  0.5127424E-006  0.1047938E+03  0.7818608E-02  0.1317388E+00
          2   -1    0    0  502    0  0.00000000000E+00  0.00000000000E+00  0.54003564509E+03  0.54003564509E+03  0.00000000000E+00 0. -1.
          1   -1    0    0  501    0 -0.00000000000E+00 -0.00000000000E+00 -0.63075537932E+03  0.63075537932E+03  0.00000000000E+00 0. -1.
         25    2    1    2    0    0  0.58712690262E+02  0.10945031101E+03 -0.35773291890E+02  0.17980918989E+03  0.12500026312E+03 0.  0.
          2    1    1    2  501    0  0.33152838441E+02 -0.59078106065E+02 -0.51485394162E+03  0.51929174316E+03  0.00000000000E+00 0. -1.
          1    1    1    2  502    0 -0.91865528703E+02 -0.50372204942E+02  0.45990749927E+03  0.47169009135E+03  0.00000000000E+00 0. -1.
         22    1    3    3    0    0  0.30666828660E+02  0.46498218981E+02  0.46447676114E+02  0.72525342914E+02  0.00000000000E+00 0. -1.
         22    1    3    3    0    0  0.28045861602E+02  0.62952092026E+02 -0.82220968004E+02  0.10728384698E+03  0.00000000000E+00 0. -1.
</event>
<event>
 7    1  0.5127424E-006  0.2738457E+02  0.7818608E-02  0.1677901E+00
          2   -1    0    0  502    0  0.00000000000E+00  0.00000000000E+00  0.45526368593E+03  0.45526368593E+03  0.00000000000E+00 0. -1.
          1   -1    0    0  501    0 -0.00000000000E+00 -0.00000000000E+00 -0.49934394387E+03  0.49934394387E+03  0.00000000000E+00 0. -1.
         25    2    1    2    0    0  0.81453662779E+01 -0.24981188283E+02 -0.79469105916E+02  0.15043305030E+03  0.12499742824E+03 0.  0.
          2    1    1    2  501    0 -0.20783089915E+02  0.64780726320E+00 -0.38366329486E+03  0.38422633994E+03  0.00000000000E+00 0. -1.
          1    1    1    2  502    0  0.12637723637E+02  0.24333381020E+02  0.41905214283E+03  0.41994823955E+03  0.00000000000E+00 0. -1.
         22    1    3    3    0    0  0.13820275146E+02 -0.74541621209E+02 -0.34583601204E+02  0.83327539084E+02  0.00000000000E+00 0. -1.
         22    1    3    3    0    0 -0.56749088678E+01  0.49560432925E+02 -0.44885504712E+02  0.67105511217E+02  0.00000000000E+00 0. -1.
</event>
<event>
 7    1  0.5127424E-006  0.7794956E+02  0.7818608E-02  0.1340960E+00
          2   -1    0    0  502    0  0.00000000000E+00  0.00000000000E+00  0.68725594905E+03  0.68725594905E+03  0.00000000000E+00 0. -1.
          1   -1    0    0  501    0 -0.00000000000E+00 -0.00000000000E+00 -0.31145886886E+03  0.31145886886E+03  0.00000000000E+00 0. -1.
         25    2    1    2    0    0 -0.59230258893E+02  0.48483609562E+02  0.96405852419E+02  0.17543692141E+03  0.12500056419E+03 0.  0.
          2    1    1    2  501    0  0.75852580177E+02  0.23623446069E+02 -0.26357730196E+03  0.27529016552E+03  0.00000000000E+00 0. -1.
          1    1    1    2  502    0 -0.16622321284E+02 -0.72107055632E+02  0.54296852972E+03  0.54798773098E+03  0.00000000000E+00 0. -1.
         22    1    3    3    0    0 -0.73832139023E+02  0.78130417624E+02  0.50229436420E+02  0.11865303702E+03  0.00000000000E+00 0. -1.
         22    1    3    3    0    0  0.14601880130E+02 -0.29646808062E+02  0.46176415999E+02  0.56783884387E+02  0.00000000000E+00 0. -1.
</event>
<event>
 7    1  0.5127424E-006  0.9113534E+02  0.7818608E-02  0.1329255E+00
          2   -1    0    0  502    0  0.00000000000E+00  0.00000000000E+00  0.20016885772E+04  0.20016885772E+04  0.00000000000E+00 0. -1.
          1   -1    0    0  501    0 -0.00000000000E+00 -0.00000000000E+00 -0.18743104699E+02  0.18743104699E+02  0.00000000000E+00 0. -1.
         25    2    1    2    0    0 -0.11175931196E+03  0.25288111607E+02  0.72954071543E+03  0.74898736958E+03  0.12499116737E+03 0.  0.
          2    1    1    2  501    0  0.56614991403E+02 -0.68566897181E+02  0.24554056140E+03  0.26114525448E+03  0.00000000000E+00 0. -1.
          1    1    1    2  502    0  0.55144320559E+02  0.43278785574E+02  0.10078641956E+04  0.10102990578E+04  0.00000000000E+00 0. -1.
         22    1    3    3    0    0 -0.24698518971E+00  0.43096393713E+02  0.36019557316E+03  0.36276467728E+03  0.00000000000E+00 0. -1.
         22    1    3    3    0    0 -0.11151232677E+03 -0.17808282106E+02  0.36934514226E+03  0.38622269230E+03  0.00000000000E+00 0. -1.
</event>
<event>
 7    1  0.5127424E-006  0.1423148E+03  0.7818608E-02  0.1300046E+00
          2   -1    0    0  502    0  0.00000000000E+00  0.00000000000E+00  0.43045494783E+03  0.43045494783E+03  0.00000000000E+00 0. -1.
          1   -1    0    0  501    0 -0.00000000000E+00 -0.00000000000E+00 -0.32114658396E+03  0.32114658396E+03  0.00000000000E+00 0. -1.
         25    2    1    2    0    0 -0.94185461799E+01  0.12970548033E+03 -0.12665605136E+03  0.22040461491E+03  0.12499687311E+03 0.  0.
          2    1    1    2  501    0  0.58101005124E+02  0.59383313413E+01 -0.12748035309E+03  0.14022207743E+03  0.00000000000E+00 0. -1.
          1    1    1    2  502    0 -0.48682458945E+02 -0.13564381167E+03  0.36344476832E+03  0.39097483944E+03  0.00000000000E+00 0. -1.
         22    1    3    3    0    0  0.43685251202E+02  0.10307726737E+03 -0.47933087949E+02  0.12178220372E+03  0.00000000000E+00 0.  1.
         22    1    3    3    0    0 -0.53103797382E+02  0.26628212956E+02 -0.78722963410E+02  0.98622411194E+02  0.00000000000E+00 0.  1.
</event>
<event>
 7    1  0.5127424E-006  0.4311963E+02  0.7818608E-02  0.1535516E+00
          2   -1    0    0  502    0  0.00000000000E+00  0.00000000000E+00  0.11327751270E+04  0.11327751270E+04  0.00000000000E+00 0. -1.
          1   -1    0    0  501    0 -0.00000000000E+00 -0.00000000000E+00 -0.64089444505E+03  0.64089444505E+03  0.00000000000E+00 0. -1.
         25    2    1    2    0    0  0.65890179369E+01 -0.22107862367E+02 -0.13356596985E+03  0.18438425707E+03  0.12500205284E+03 0.  0.
          2    1    1    2  501    0  0.30919884756E+02  0.69687536960E+00 -0.48100137976E+03  0.48199465997E+03  0.00000000000E+00 0. -1.
          1    1    1    2  502    0 -0.37508902693E+02  0.21410986998E+02  0.11064480316E+04  0.11072906550E+04  0.00000000000E+00 0. -1.
         22    1    3    3    0    0 -0.83274096815E+01 -0.37814329662E+02 -0.15143329308E+03  0.15630518716E+03  0.00000000000E+00 0. -1.
         22    1    3    3    0    0  0.14916427618E+02  0.15706467295E+02  0.17867323224E+02  0.28079069909E+02  0.00000000000E+00 0. -1.
</event>
<event>
 7    1  0.5127424E-006  0.6882993E+02  0.7818608E-02  0.1492533E+00
          2   -1    0    0  502    0  0.00000000000E+00  0.00000000000E+00  0.32939339114E+03  0.32939339114E+03  0.00000000000E+00 0. -1.
          1   -1    0    0  501    0 -0.00000000000E+00 -0.00000000000E+00 -0.44198124696E+03  0.44198124696E+03  0.00000000000E+00 0. -1.
         25    2    1    2    0    0 -0.74790397408E+02  0.25264873496E+02 -0.23041605113E+03  0.27376795168E+03  0.12500166947E+03 0.  0.
          2    1    1    2  501    0  0.66883939704E+02 -0.61336788220E+00 -0.18342675541E+03  0.19524142033E+03  0.00000000000E+00 0. -1.
          1    1    1    2  502    0  0.79064577035E+01 -0.24651505614E+02  0.30125495073E+03  0.30236526609E+03  0.00000000000E+00 0. -1.
         22    1    3    3    0    0 -0.39241368340E+02 -0.23474993682E+02 -0.20195041668E+03  0.20706262607E+03  0.00000000000E+00 0. -1.
         22    1    3    3    0    0 -0.35549029067E+02  0.48739867178E+02 -0.28465634456E+02  0.66705325613E+02  0.00000000000E+00 0. -1.
</event>
<event>
 7    1  0.5127424E-006  0.1247613E+03  0.7818608E-02  0.1282428E+00
          2   -1    0    0  502    0  0.00000000000E+00  0.00000000000E+00  0.95723986425E+03  0.95723986425E+03  0.00000000000E+00 0. -1.
          1   -1    0    0  501    0 -0.00000000000E+00 -0.00000000000E+00 -0.45414455375E+03  0.45414455375E+03  0.00000000000E+00 0. -1.
         25    2    1    2    0    0 -0.17885215310E+03  0.79516667816E+02 -0.27400081908E+02  0.23385216166E+03  0.12500030359E+03 0.  0.
          2    1    1    2  501    0  0.10906796432E+03 -0.43463644679E+02 -0.31097651053E+03  0.33240231550E+03  0.00000000000E+00 0. -1.
          1    1    1    2  502    0  0.69784188774E+02 -0.36053023137E+02  0.84147190293E+03  0.84512994084E+03  0.00000000000E+00 0. -1.
         22    1    3    3    0    0 -0.11647581165E+03  0.63228248269E+02 -0.76310365489E+02  0.15293036965E+03  0.00000000000E+00 0. -1.
         22    1    3    3    0    0 -0.62376341446E+02  0.16288419546E+02  0.48910283580E+02  0.80921792018E+02  0.00000000000E+00 0. -1.
</event>
<event>
 7    1  0.5127424E-006  0.1022205E+03  0.7818608E-02  0.1340740E+00
          2   -1    0    0  502    0  0.00000000000E+00  0.00000000000E+00  0.48220091031E+03  0.48220091031E+03  0.00000000000E+00 0. -1.
          1   -1    0    0  501    0 -0.00000000000E+00 -0.00000000000E+00 -0.19427856656E+04  0.19427856656E+04  0.00000000000E+00 0. -1.
         25    2    1    2    0    0 -0.77581881908E+02  0.68706520853E+02 -0.18606719418E+02  0.16342541157E+03  0.12498848239E+03 0.  0.
          2    1    1    2  501    0 -0.24070807883E+02 -0.51155421586E+02 -0.18448377916E+04  0.18457038653E+04  0.00000000000E+00 0. -1.
          1    1    1    2  502    0  0.10165268979E+03 -0.17551099267E+02  0.40285975572E+03  0.41585729909E+03  0.00000000000E+00 0. -1.
         22    1    3    3    0    0 -0.54592743800E+02  0.50662748613E+02  0.49422226462E+02  0.89384776338E+02  0.00000000000E+00 0.  1.
         22    1    3    3    0    0 -0.22989138107E+02  0.18043772240E+02 -0.68028945880E+02  0.74040635229E+02  0.00000000000E+00 0.  1.
</event>
<event>
 7    1  0.5127424E-006  0.1221162E+03  0.7818608E-02  0.1384144E+00
          2   -1    0    0  502    0  0.00000000000E+00  0.00000000000E+00  0.92809891650E+03  0.92809891650E+03  0.00000000000E+00 0. -1.
          1   -1    0    0  501    0 -0.00000000000E+00 -0.00000000000E+00 -0.63712565367E+02  0.63712565367E+02  0.00000000000E+00 0. -1.
         25    2    1    2    0    0  0.94432232241E+02  0.11858575813E+03  0.68423449347E+03  0.71188998820E+03  0.12502193704E+03 0.  0.
          2    1    1    2  501    0 -0.70876409530E+02 -0.95614560990E+02  0.25385595621E+02  0.12169650022E+03  0.00000000000E+00 0. -1.
          1    1    1    2  502    0 -0.23555822710E+02 -0.22971197135E+02  0.15476626205E+03  0.15822499344E+03  0.00000000000E+00 0. -1.
         22    1    3    3    0    0  0.74635056988E+02  0.66010635986E+01  0.37490070124E+03  0.38231466302E+03  0.00000000000E+00 0. -1.
         22    1    3    3    0    0  0.19797175253E+02  0.11198469453E+03  0.30933379223E+03  0.32957532518E+03  0.00000000000E+00 0. -1.
</event>
<event>
 7    1  0.5127424E-006  0.4575458E+02  0.7818608E-02  0.1472822E+00
          2   -1    0    0  502    0  0.00000000000E+00  0.00000000000E+00  0.37820621061E+03  0.37820621061E+03  0.00000000000E+00 0. -1.
          1   -1    0    0  501    0 -0.00000000000E+00 -0.00000000000E+00 -0.49640072985E+02  0.49640072985E+02  0.00000000000E+00 0. -1.
         25    2    1    2    0    0  0.27075729130E+01 -0.10617821731E+02  0.20206006480E+03  0.23785249459E+03  0.12500188121E+03 0.  0.
          2    1    1    2  501    0 -0.12013505112E+02 -0.44149261915E+02 -0.61590597028E+01  0.46167257327E+02  0.00000000000E+00 0. -1.
          1    1    1    2  502    0  0.93059321993E+01  0.54767083646E+02  0.13266513252E+03  0.14382653167E+03  0.00000000000E+00 0. -1.
         22    1    3    3    0    0  0.16954227502E+02  0.31474869684E+02  0.53057817635E+01  0.36142282329E+02  0.00000000000E+00 0.  1.
         22    1    3    3    0    0 -0.14246654589E+02 -0.42092691415E+02  0.19675428304E+03  0.20171021226E+03  0.00000000000E+00 0.  1.
</event>
<event>
 7    1  0.5127424E-006  0.9837650E+02  0.7818608E-02  0.1468852E+00
          2   -1    0    0  502    0  0.00000000000E+00  0.00000000000E+00  0.29938255352E+03  0.29938255352E+03  0.00000000000E+00 0. -1.
          1   -1    0    0  501    0 -0.00000000000E+00 -0.00000000000E+00 -0.31351192246E+03  0.31351192246E+03  0.00000000000E+00 0. -1.
         25    2    1    2    0    0  0.14514397233E+02  0.10782318319E+03  0.15631400015E+03  0.22780240935E+03  0.12499345784E+03 0.  0.
          2    1    1    2  501    0 -0.30168738615E+02 -0.93220564386E+02 -0.26792947525E+03  0.28528307016E+03  0.00000000000E+00 0. -1.
          1    1    1    2  502    0  0.15654341382E+02 -0.14602618800E+02  0.97486106164E+02  0.99808996463E+02  0.00000000000E+00 0. -1.
         22    1    3    3    0    0  0.24573042998E+01 -0.26784503774E+02  0.46272085415E+02  0.53521527216E+02  0.00000000000E+00 0. -1.
         22    1    3    3    0    0  0.12057092933E+02  0.13460768696E+03  0.11004191474E+03  0.17428088213E+03  0.00000000000E+00 0. -1.
</event>
<event>
 7    1  0.5127424E-006  0.9278570E+02  0.7818608E-02  0.1392084E+00
          2   -1    0    0  502    0  0.00000000000E+00  0.00000000000E+00  0.16309029219E+04  0.16309029219E+04  0.00000000000E+00 0. -1.
          1   -1    0    0  501    0 -0.00000000000E+00 -0.00000000000E+00 -0.22705352152E+03  0.22705352152E+03  0.00000000000E+00 0. -1.
         25    2    1    2    0    0 -0.57646128724E+01  0.68634309589E+02  0.69146154144E+03  0.70603696768E+03  0.12500094887E+03 0.  0.
          2    1    1    2  501    0 -0.29763326858E+02 -0.88324187055E+02 -0.20941627038E+03  0.22922083663E+03  0.00000000000E+00 0. -1.
          1    1    1    2  502    0  0.35527939730E+02  0.19689877466E+02  0.92180412936E+03  0.92269863915E+03  0.00000000000E+00 0. -1.
         22    1    3    3    0    0  0.25168020198E+02  0.95232419282E+02  0.41188036105E+03  0.42349507051E+03  0.00000000000E+00 0. -1.
         22    1    3    3    0    0 -0.30932633071E+02 -0.26598109693E+02  0.27958118039E+03  0.28254189717E+03  0.00000000000E+00 0. -1.
</event>
<event>
 7    1  0.5127424E-006  0.1053349E+03  0.7818608E-02  0.1315446E+00
          2   -1    0    0  502    0  0.00000000000E+00  0.00000000000E+00  0.58990068142E+03  0.58990068142E+03  0.00000000000E+00 0. -1.
          1   -1    0    0  501    0 -0.00000000000E+00 -0.00000000000E+00 -0.63328441788E+03  0.63328441788E+03  0.00000000000E+00 0. -1.
         25    2    1    2    0    0  0.58609415160E+02  0.99781244653E+02  0.10390289530E+03  0.19952928004E+03  0.12499904644E+03 0.  0.
          2    1    1    2  501    0  0.38756392974E+02 -0.56581398347E+02 -0.57693660380E+03  0.58099858643E+03  0.00000000000E+00 0. -1.
          1    1    1    2  502    0 -0.97365808135E+02 -0.43199846306E+02  0.42964997203E+03  0.44265723284E+03  0.00000000000E+00 0. -1.
         22    1    3    3    0    0  0.57253781171E+02  0.12662163129E+03  0.10239109207E+03  0.17261219165E+03  0.00000000000E+00 0.  1.
         22    1    3    3    0    0  0.13556339894E+01 -0.26840386638E+02  0.15118032313E+01  0.26917088391E+02  0.00000000000E+00 0.  1.
</event>
<event>
 7    1  0.5127424E-006  0.7115342E+02  0.7818608E-02  0.1474184E+00
          2   -1    0    0  502    0  0.00000000000E+00  0.00000000000E+00  0.10312998003E+04  0.10312998003E+04  0.00000000000E+00 0. -1.
          1   -1    0    0  501    0 -0.00000000000E+00 -0.00000000000E+00 -0.98286102474E+03  0.98286102474E+03  0.00000000000E+00 0. -1.
         25    2    1    2    0    0  0.10666995842E+02 -0.61814152651E+02  0.30427152433E+02  0.14312595010E+03  0.12499780686E+03 0.  0.
          2    1    1    2  501    0 -0.27440721897E+02 -0.76664672032E+01 -0.92493970589E+03  0.92537842393E+03  0.00000000000E+00 0. -1.
          1    1    1    2  502    0  0.16773726055E+02  0.69480619854E+02  0.94295132900E+03  0.94565645098E+03  0.00000000000E+00 0. -1.
         22    1    3    3    0    0 -0.27283928445E+02 -0.85827484392E+02  0.37697343006E+02  0.97631242428E+02  0.00000000000E+00 0. -1.
         22    1    3    3    0    0  0.37950924287E+02  0.24013331741E+02 -0.72701905726E+01  0.45494707676E+02  0.00000000000E+00 0. -1.
</event>
<event>
 7    1  0.5127424E-006  0.5453354E+02  0.7818608E-02  0.1516520E+00
          2   -1    0    0  502    0  0.00000000000E+00  0.00000000000E+00  0.23758961184E+04  0.23758961184E+04  0.00000000000E+00 0. -1.
          1   -1    0    0  501    0 -0.00000000000E+00 -0.00000000000E+00 -0.12063217324E+03  0.12063217324E+03  0.00000000000E+00 0. -1.
         25    2    1    2    0    0  0.47522026848E+02  0.32403669268E+02  0.16966837606E+04  0.17022543365E+04  0.12500280739E+03 0.  0.
          2    1    1    2  501    0  0.75041064452E+01 -0.26703888144E+02 -0.11506496738E+03  0.11836112527E+03  0.00000000000E+00 0. -1.
          1    1    1    2  502    0 -0.55026133293E+02 -0.56997811238E+01  0.67364515191E+03  0.67591282983E+03  0.00000000000E+00 0. -1.
         22    1    3    3    0    0  0.76443055788E+02 -0.18576680107E+02  0.10291540299E+04  0.10321563113E+04  0.00000000000E+00 0. -1.
         22    1    3    3    0    0 -0.28921028940E+02  0.50980349375E+02  0.66752973072E+03  0.67009802517E+03  0.00000000000E+00 0. -1.
</event>
<event>
 7    1  0.5127424E-006  0.1917114E+03  0.7818608E-02  0.1193043E+00
          2   -1    0    0  502    0  0.00000000000E+00  0.00000000000E+00  0.15493921851E+04  0.15493921851E+04  0.00000000000E+00 0. -1.
          1   -1    0    0  501    0 -0.00000000000E+00 -0.00000000000E+00 -0.25432541587E+04  0.25432541587E+04  0.00000000000E+00 0. -1.
         25    2    1    2    0    0 -0.26095920676E+03  0.13447349964E+03  0.18148060099E+03  0.36705977079E+03  0.12495934179E+03 0.  0.
          2    1    1    2  501    0  0.13368295675E+03 -0.13575684807E+03 -0.24435706603E+04  0.24509872759E+04  0.00000000000E+00 0. -1.
          1    1    1    2  502    0  0.12727625001E+03  0.12833484306E+01  0.12682280858E+04  0.12745992972E+04  0.00000000000E+00 0. -1.
         22    1    3    3    0    0 -0.22151770216E+03  0.54213425126E+02  0.14637357815E+03  0.27098784514E+03  0.00000000000E+00 0.  1.
         22    1    3    3    0    0 -0.39441504597E+02  0.80260074510E+02  0.35107022840E+02  0.96071925649E+02  0.00000000000E+00 0.  1.
</event>
<event>
 7    1  0.5127424E-006  0.1737874E+03  0.7818608E-02  0.1241217E+00
          2   -1    0    0  502    0  0.00000000000E+00  0.00000000000E+00  0.63410960499E+02  0.63410960499E+02  0.00000000000E+00 0. -1.
          1   -1    0    0  501    0 -0.00000000000E+00 -0.00000000000E+00 -0.23089520428E+04  0.23089520428E+04  0.00000000000E+00 0. -1.
         25    2    1    2    0    0  0.45823906921E+02 -0.12755971976E+03 -0.55629167288E+03  0.58605228986E+03  0.12500219430E+03 0.  0.
          2    1    1    2  501    0 -0.12934408028E+03  0.14006661816E+03 -0.16911255401E+04  0.17018384592E+04  0.00000000000E+00 0. -1.
          1    1    1    2  502    0  0.83520173355E+02 -0.12506898402E+02  0.18761307705E+01  0.84472254212E+02  0.00000000000E+00 0. -1.
         22    1    3    3    0    0  0.27187531048E+02 -0.89252620046E+02 -0.14412039695E+03  0.17168541245E+03  0.00000000000E+00 0.  1.
         22    1    3    3    0    0  0.18636375872E+02 -0.38307099713E+02 -0.41217127593E+03  0.41436687741E+03  0.00000000000E+00 0.  1.
</event>
<event>
 7    1  0.5127424E-006  0.5232272E+02  0.7818608E-02  0.1460259E+00
          2   -1    0    0  502    0  0.00000000000E+00  0.00000000000E+00  0.12577845055E+03  0.12577845055E+03  0.00000000000E+00 0. -1.
          1   -1    0    0  501    0 -0.00000000000E+00 -0.00000000000E+00 -0.73332056014E+03  0.73332056014E+03  0.00000000000E+00 0. -1.
         25    2    1    2    0    0 -0.26980241165E+02  0.15110194627E+02 -0.22794003900E+03  0.26179578748E+03  0.12499648621E+03 0.  0.
          2    1    1    2  501    0 -0.21529924592E+02 -0.37020827217E+02 -0.48093641207E+03  0.48283942647E+03  0.00000000000E+00 0. -1.
          1    1    1    2  502    0  0.48510165757E+02  0.21910632591E+02  0.10133434148E+03  0.11446379674E+03  0.00000000000E+00 0. -1.
         22    1    3    3    0    0 -0.36834620423E+02  0.20561289735E+01 -0.23914240733E+03  0.24197129563E+03  0.00000000000E+00 0.  1.
         22    1    3    3    0    0  0.98543792577E+01  0.13054065653E+02  0.11202368328E+02  0.19824491842E+02  0.00000000000E+00 0.  1.
</event>
<event>
 7    1  0.5127424E-006  0.6631390E+02  0.7818608E-02  0.1473855E+00
          2   -1    0    0  502    0  0.00000000000E+00  0.00000000000E+00  0.44091828288E+03  0.44091828288E+03  0.00000000000E+00 0. -1.
          1   -1    0    0  501    0 -0.00000000000E+00 -0.00000000000E+00 -0.68689345557E+03  0.68689345557E+03  0.00000000000E+00 0. -1.
         25    2    1    2    0    0 -0.26284862403E+02 -0.88721681228E+02  0.63306552602E+02  0.16791724274E+03  0.12500420031E+03 0.  0.
          2    1    1    2  501    0  0.30655952917E+02  0.58392424681E+02 -0.63214722114E+03  0.63557813989E+03  0.00000000000E+00 0. -1.
          1    1    1    2  502    0 -0.43710905145E+01  0.30329256547E+02  0.32286549586E+03  0.32431635582E+03  0.00000000000E+00 0. -1.
         22    1    3    3    0    0  0.40019634861E+02 -0.32304465043E+02  0.62387469526E+02  0.80853855752E+02  0.00000000000E+00 0.  1.
         22    1    3    3    0    0 -0.66304497264E+02 -0.56417216185E+02  0.91908307531E+00  0.87063386984E+02  0.00000000000E+00 0.  1.
</event>
<event>
 7    1  0.5127424E-006  0.1037674E+03  0.7818608E-02  0.1396402E+00
          2   -1    0    0  502    0  0.00000000000E+00  0.00000000000E+00  0.17584405824E+03  0.17584405824E+03  0.00000000000E+00 0. -1.
          1   -1    0    0  501    0 -0.00000000000E+00 -0.00000000000E+00 -0.59450856253E+03  0.59450856253E+03  0.00000000000E+00 0. -1.
         25    2    1    2    0    0  0.32754305413E+02  0.12065400238E+03 -0.13579051936E+01  0.17679740968E+03  0.12500098940E+03 0.  0.
          2    1    1    2  501    0 -0.49644215918E+02 -0.89896679564E+02 -0.49646143639E+03  0.50697131969E+03  0.00000000000E+00 0. -1.
          1    1    1    2  502    0  0.16889910505E+02 -0.30757322812E+02  0.79154837292E+02  0.86583891401E+02  0.00000000000E+00 0. -1.
         22    1    3    3    0    0  0.96766729788E+01  0.55047209047E+02 -0.62748403663E+02  0.84030919226E+02  0.00000000000E+00 0.  1.
         22    1    3    3    0    0  0.23077632434E+02  0.65606793329E+02  0.61390498469E+02  0.92766490458E+02  0.00000000000E+00 0.  1.
</event>
<event>
 7    1  0.5127424E-006  0.1783468E+03  0.7818608E-02  0.1230915E+00
          2   -1    0    0  502    0  0.00000000000E+00  0.00000000000E+00  0.10419479969E+04  0.10419479969E+04  0.00000000000E+00 0. -1.
          1   -1    0    0  501    0 -0.00000000000E+00 -0.00000000000E+00 -0.45985008507E+04  0.45985008507E+04  0.00000000000E+00 0. -1.
         25    2    1    2    0    0 -0.83268134950E+02  0.42556469924E+02 -0.12716031620E+03  0.20134035180E+03  0.12499422313E+03 0.  0.
          2    1    1    2  501    0 -0.64690488779E+02  0.64610739910E+02 -0.44254706290E+04  0.44264149936E+04  0.00000000000E+00 0. -1.
          1    1    1    2  502    0  0.14795862373E+03 -0.10716720983E+03  0.99607809139E+03  0.10126935022E+04  0.00000000000E+00 0. -1.
         22    1    3    3    0    0 -0.38996067183E+02 -0.16326664479E+02 -0.12011125622E+03  0.12733407674E+03  0.00000000000E+00 0. -1.
         22    1    3    3    0    0 -0.44272067767E+02  0.58883134403E+02 -0.70490599778E+01  0.74006275059E+02  0.00000000000E+00 0. -1.
</event>
<event>
 7    1  0.5127424E-006  0.8562781E+02  0.7818608E-02  0.1345818E+00
          2   -1    0    0  502    0  0.00000000000E+00  0.00000000000E+00  0.10881507271E+04  0.10881507271E+04  0.00000000000E+00 0. -1.
          1   -1    0    0  501    0 -0.00000000000E+00 -0.00000000000E+00 -0.13298164427E+03  0.13298164427E+03  0.00000000000E+00 0. -1.
         25    2    1    2    0    0  0.70839729807E+02 -0.34381649555E+00  0.27427409190E+03  0.30962727056E+03  0.12499753461E+03 0.  0.
          2    1    1    2  501    0 -0.59959818027E+02  0.64021625539E+02 -0.97088635769E+02  0.13084399684E+03  0.00000000000E+00 0. -1.
          1    1    1    2  502    0 -0.10879911780E+02 -0.63677809043E+02  0.77798362669E+03  0.78066110396E+03  0.00000000000E+00 0. -1.
         22    1    3    3    0    0  0.99960587850E+02 -0.26369707974E+02  0.17985866658E+03  0.20745269477E+03  0.00000000000E+00 0.  1.
         22    1    3    3    0    0 -0.29120858042E+02  0.26025891479E+02  0.94415425320E+02  0.10217457579E+03  0.00000000000E+00 0.  1.
</event>
<event>
 7    1  0.5127424E-006  0.8440261E+02  0.7818608E-02  0.1407071E+00
          2   -1    0    0  502    0  0.00000000000E+00  0.00000000000E+00  0.67769377506E+03  0.67769377506E+03  0.00000000000E+00 0. -1.
          1   -1    0    0  501    0 -0.00000000000E+00 -0.00000000000E+00 -0.68606147756E+03  0.68606147756E+03  0.00000000000E+00 0. -1.
         25    2    1    2    0    0 -0.11113592550E+03  0.95512466843E+01  0.88239258745E+02  0.18934972580E+03  0.12499892650E+03 0.  0.
          2    1    1    2  501    0  0.82115637199E+02  0.17472341223E+02 -0.63199709521E+03  0.63754889140E+03  0.00000000000E+00 0. -1.
          1    1    1    2  502    0  0.29020288306E+02 -0.27023587907E+02  0.53539013396E+03  0.53685663541E+03  0.00000000000E+00 0. -1.
         22    1    3    3    0    0 -0.10731504423E+03 -0.38129869083E+02  0.83627641587E+02  0.14129397748E+03  0.00000000000E+00 0. -1.
         22    1    3    3    0    0 -0.38208812787E+01  0.47681115767E+02  0.46116171575E+01  0.48055748328E+02  0.00000000000E+00 0. -1.
</event>
<event>
 7    1  0.5127424E-006  0.9529054E+02  0.7818608E-02  0.1426917E+00
          2   -1    0    0  502    0  0.00000000000E+00  0.00000000000E+00  0.14457429177E+04  0.14457429177E+04  0.00000000000E+00 0. -1.
          1   -1    0    0  501    0 -0.00000000000E+00 -0.00000000000E+00 -0.55684074413E+02  0.55684074413E+02  0.00000000000E+00 0. -1.
         25    2    1    2    0    0  0.57481833468E+02 -0.48200878797E+02  0.34402148041E+03  0.37364385269E+03  0.12502585245E+03 0.  0.
          2    1    1    2  501    0 -0.60667556920E+02  0.78163350443E+02  0.19554974093E+02  0.10085860810E+03  0.00000000000E+00 0. -1.
          1    1    1    2  502    0  0.31857234520E+01 -0.29962471646E+02  0.10264823887E+04  0.10269245313E+04  0.00000000000E+00 0. -1.
         22    1    3    3    0    0 -0.22974386918E+01 -0.68251404160E+02  0.25864489284E+03  0.26750834190E+03  0.00000000000E+00 0. -1.
         22    1    3    3    0    0  0.59779272160E+02  0.20050525363E+02  0.85376587568E+02  0.10613551080E+03  0.00000000000E+00 0. -1.
</event>
<event>
 7    1  0.5127424E-006  0.8149939E+02  0.7818608E-02  0.1442752E+00
          2   -1    0    0  502    0  0.00000000000E+00  0.00000000000E+00  0.37566154016E+03  0.37566154016E+03  0.00000000000E+00 0. -1.
          1   -1    0    0  501    0 -0.00000000000E+00 -0.00000000000E+00 -0.48239959444E+03  0.48239959444E+03  0.00000000000E+00 0. -1.
         25    2    1    2    0    0 -0.39095657500E+02  0.10123261618E+03 -0.31711111881E+02  0.16854583835E+03  0.12500236796E+03 0.  0.
          2    1    1    2  501    0  0.38591689970E+02 -0.69965613125E+02 -0.37728024028E+03  0.38564865520E+03  0.00000000000E+00 0. -1.
          1    1    1    2  502    0  0.50396753038E+00 -0.31267003051E+02  0.30225329788E+03  0.30386664105E+03  0.00000000000E+00 0. -1.
         22    1    3    3    0    0  0.27677535859E+02  0.93268949122E+02 -0.96182325204E+01  0.97763251063E+02  0.00000000000E+00 0. -1.
         22    1    3    3    0    0 -0.66773193360E+02  0.79636670545E+01 -0.22092879361E+02  0.70782587286E+02  0.00000000000E+00 0. -1.
</event>
<event>
 7    1  0.5127424E-006  0.1037079E+03  0.7818608E-02  0.1365040E+00
          2   -1    0    0  502    0  0.00000000000E+00  0.00000000000E+00  0.26839480525E+03  0.26839480525E+03  0.00000000000E+00 0. -1.
          1   -1    0    0  501    0 -0.00000000000E+00 -0.00000000000E+00 -0.10537789157E+04  0.10537789157E+04  0.00000000000E+00 0. -1.
         25    2    1    2    0    0  0.52808659714E+02  0.28462149636E+02  0.22407248057E+02  0.14044500462E+03  0.12499546414E+03 0.  0.
          2    1    1    2  501    0 -0.90514332116E+02 -0.53625823510E+02 -0.98918118970E+03  0.99476027228E+03  0.00000000000E+00 0. -1.
          1    1    1    2  502    0  0.37705672402E+02  0.25163673874E+02  0.18138983118E+03  0.18696844405E+03  0.00000000000E+00 0. -1.
         22    1    3    3    0    0  0.55689774014E+02  0.17171753994E+02 -0.44000738573E+02  0.73022496944E+02  0.00000000000E+00 0.  1.
         22    1    3    3    0    0 -0.28811142995E+01  0.11290395642E+02  0.66407986630E+02  0.67422507678E+02  0.00000000000E+00 0.  1.
</event>
<event>
 7    1  0.5127424E-006  0.1836574E+03  0.7818608E-02  0.1367011E+00
          2   -1    0    0  502    0  0.00000000000E+00  0.00000000000E+00  0.14366238761E+03  0.14366238761E+03  0.00000000000E+00 0. -1.
          1   -1    0    0  501    0 -0.00000000000E+00 -0.00000000000E+00 -0.13409612119E+04  0.13409612119E+04  0.00000000000E+00 0. -1.
         25    2    1    2    0    0 -0.20296371077E+03 -0.21534570899E+02 -0.52675036835E+03  0.57857413072E+03  0.12499627416E+03 0.  0.
          2    1    1    2  501    0  0.24142447844E+02 -0.71575063644E+01 -0.71830825993E+03  0.71874950015E+03  0.00000000000E+00 0. -1.
          1    1    1    2  502    0  0.17882126293E+03  0.28692077263E+02  0.47759803982E+02  0.18729996863E+03  0.00000000000E+00 0. -1.
         22    1    3    3    0    0 -0.12875419576E+01  0.54823659323E+01  0.60356003252E+01  0.82548514096E+01  0.00000000000E+00 0.  1.
         22    1    3    3    0    0 -0.20167616881E+03 -0.27016936831E+02 -0.53278596867E+03  0.57031927931E+03  0.00000000000E+00 0.  1.
</event>
<event>
 7    1  0.5127424E-006  0.6632412E+02  0.7818608E-02  0.1530259E+00
          2   -1    0    0  502    0  0.00000000000E+00  0.00000000000E+00  0.14038049072E+03  0.14038049072E+03  0.00000000000E+00 0. -1.
          1   -1    0    0  501    0 -0.00000000000E+00 -0.00000000000E+00 -0.93663542620E+03  0.93663542620E+03  0.00000000000E+00 0. -1.
         25    2    1    2    0    0  0.26983534386E+02  0.55397950872E+02 -0.11221862056E+03  0.17892732370E+03  0.12499969710E+03 0.  0.
          2    1    1    2  501    0 -0.46383529523E+02 -0.47857457284E+02 -0.78863148422E+03  0.79144259800E+03  0.00000000000E+00 0. -1.
          1    1    1    2  502    0  0.19399995137E+02 -0.75404935883E+01  0.10459516931E+03  0.10664599522E+03  0.00000000000E+00 0. -1.
         22    1    3    3    0    0  0.16113953507E+02 -0.15960603328E+02 -0.10380863718E+03  0.10625739273E+03  0.00000000000E+00 0. -1.
         22    1    3    3    0    0  0.10869580879E+02  0.71358554201E+02 -0.84099833781E+01  0.72669930965E+02  0.00000000000E+00 0. -1.
</event>
<event>
 7    1  0.5127424E-006  0.1632471E+03  0.7818608E-02  0.1316261E+00
          2   -1    0    0  502    0  0.00000000000E+00  0.00000000000E+00  0.80838331583E+03  0.80838331583E+03  0.00000000000E+00 0. -1.
          1   -1    0    0  501    0 -0.00000000000E+00 -0.00000000000E+00 -0.16504698481E+04  0.16504698481E+04  0.00000000000E+00 0. -1.
         25    2    1    2    0    0  0.16532564580E+03  0.11472081689E+03 -0.89992108108E+02  0.25341264772E+03  0.12500382200E+03 0.  0.
          2    1    1    2  501    0 -0.42833883747E+02 -0.97499327583E+01 -0.14694823552E+04  0.14701388353E+04  0.00000000000E+00 0. -1.
          1    1    1    2  502    0 -0.12249176206E+03 -0.10497088413E+03  0.71738793107E+03  0.73530168090E+03  0.00000000000E+00 0. -1.
         22    1    3    3    0    0  0.50692570480E+02  0.88817683925E+02 -0.89483583779E+02  0.13588829768E+03  0.00000000000E+00 0. -1.
         22    1    3    3    0    0  0.11463307532E+03  0.25903132961E+02 -0.50852432927E+00  0.11752435004E+03  0.00000000000E+00 0. -1.
</event>
<event>
 7    1  0.5127424E-006  0.8424453E+02  0.7818608E-02  0.1347724E+00
          2   -1    0    0  502    0  0.00000000000E+00  0.00000000000E+00  0.11688978162E+04  0.11688978162E+04  0.00000000000E+00 0. -1.
          1   -1    0    0  501    0 -0.00000000000E+00 -0.00000000000E+00 -0.20608505742E+03  0.20608505742E+03  0.00000000000E+00 0. -1.
         25    2    1    2    0    0  0.34778052453E+02 -0.14186386419E+03  0.40931430405E+02  0.19656030454E+03  0.12500280970E+03 0.  0.
          2    1    1    2  501    0 -0.25254212683E+02  0.59456217058E+02 -0.11838049957E+03  0.13485829483E+03  0.00000000000E+00 0. -1.
          1    1    1    2  502    0 -0.95238397703E+01  0.82407647130E+02  0.10402618279E+04  0.10435642743E+04  0.00000000000E+00 0. -1.
         22    1    3    3    0    0 -0.13826728392E+01 -0.15394431448E+03  0.36135725397E+02  0.15813460846E+03  0.00000000000E+00 0. -1.
         22    1    3    3    0    0  0.36160725293E+02  0.12080450289E+02  0.47957050075E+01  0.38425696082E+02  0.00000000000E+00 0. -1.
</event>
<event>
 7    1  0.5127424E-006  0.9195537E+02  0.7818608E-02  0.1311431E+00
          2   -1    0    0  502    0  0.00000000000E+00  0.00000000000E+00  0.23309933295E+03  0.23309933295E+03  0.00000000000E+00 0. -1.
          1   -1    0    0  501    0 -0.00000000000E+00 -0.00000000000E+00 -0.47951132226E+03  0.47951132226E+03  0.00000000000E+00 0. -1.
         25    2    1    2    0    0 -0.36925066446E+02  0.50810401998E+02 -0.91147651874E+02  0.16697235030E+03  0.12500685517E+03 0.  0.
          2    1    1    2  501    0  0.10237443050E+03 -0.23114685211E+01 -0.33393025913E+03  0.34927823418E+03  0.00000000000E+00 0. -1.
          1    1    1    2  502    0 -0.65449364058E+02 -0.48498933477E+02  0.17866592169E+03  0.19636007073E+03  0.00000000000E+00 0. -1.
         22    1    3    3    0    0 -0.23702189775E+02 -0.21234822158E+01  0.27508445000E+02  0.36373307839E+02  0.00000000000E+00 0.  1.
         22    1    3    3    0    0 -0.13222876671E+02  0.52933884214E+02 -0.11865609687E+03  0.13059904246E+03  0.00000000000E+00 0.  1.
</event>
<event>
 7    1  0.5127424E-006  0.3534639E+02  0.7818608E-02  0.1578349E+00
          2   -1    0    0  502    0  0.00000000000E+00  0.00000000000E+00  0.17143052350E+03  0.17143052350E+03  0.00000000000E+00 0. -1.
          1   -1    0    0  501    0 -0.00000000000E+00 -0.00000000000E+00 -0.12749768076E+04  0.12749768076E+04  0.00000000000E+00 0. -1.
         25    2    1    2    0    0  0.44308521476E+02 -0.13530940785E+02  0.18986044070E+02  0.13465394021E+03  0.12499952924E+03 0.  0.
          2    1    1    2  501    0 -0.32926671827E+02 -0.12843379469E+02 -0.12146995009E+04  0.12152135597E+04  0.00000000000E+00 0. -1.
          1    1    1    2  502    0 -0.11381849648E+02  0.26374320253E+02  0.92167172769E+02  0.96539831191E+02  0.00000000000E+00 0. -1.
         22    1    3    3    0    0  0.70747145008E+02  0.34292287201E+02  0.12896368217E+02  0.79670796415E+02  0.00000000000E+00 0. -1.
         22    1    3    3    0    0 -0.26438623532E+02 -0.47823227986E+02  0.60896758533E+01  0.54983143792E+02  0.00000000000E+00 0. -1.
</event>
<event>
 7    1  0.5127424E-006  0.2284859E+03  0.7818608E-02  0.1260461E+00
          2   -1    0    0  502    0  0.00000000000E+00  0.00000000000E+00  0.13721899007E+04  0.13721899007E+04  0.00000000000E+00 0. -1.
          1   -1    0    0  501    0 -0.00000000000E+00 -0.00000000000E+00 -0.35722259643E+03  0.35722259643E+03  0.00000000000E+00 0. -1.
         25    2    1    2    0    0 -0.13463853207E+03  0.22145901484E+03  0.55174674924E+03  0.62227111288E+03  0.12500093222E+03 0.  0.
          2    1    1    2  501    0  0.14930043317E+03 -0.17051280624E+03 -0.28101563028E+03  0.36101941900E+03  0.00000000000E+00 0. -1.
          1    1    1    2  502    0 -0.14661901096E+02 -0.50946208595E+02  0.74423618526E+03  0.74612196521E+03  0.00000000000E+00 0. -1.
         22    1    3    3    0    0  0.14352645363E+02 -0.60727082643E+01  0.25125899659E+02  0.29566654330E+02  0.00000000000E+00 0.  1.
         22    1    3    3    0    0 -0.14899117744E+03  0.22753172310E+03  0.52662084958E+03  0.59270445855E+03  0.00000000000E+00 0.  1.
</event>
<event>
 7    1  0.5127424E-006  0.4235894E+02  0.7818608E-02  0.1587217E+00
          2   -1    0    0  502    0  0.00000000000E+00  0.00000000000E+00  0.16612666929E+03  0.16612666929E+03  0.00000000000E+00 0. -1.
          1   -1    0    0  501    0 -0.00000000000E+00 -0.00000000000E+00 -0.33517419849E+03  0.33517419849E+03  0.00000000000E+00 0. -1.
         25    2    1    2    0    0  0.35359632020E+02  0.19764919652E+02  0.64406714534E+01  0.13155878400E+03  0.12500110309E+03 0.  0.
          2    1    1    2  501    0 -0.42508706273E+02  0.17770661821E+01 -0.26959771446E+03  0.27293419667E+03  0.00000000000E+00 0. -1.
          1    1    1    2  502    0  0.71490742531E+01 -0.21541985834E+02  0.94109513802E+02  0.96807887098E+02  0.00000000000E+00 0. -1.
         22    1    3    3    0    0  0.63405262091E+02  0.99828511097E+00 -0.39385274546E+02  0.74648668341E+02  0.00000000000E+00 0. -1.
         22    1    3    3    0    0 -0.28045630071E+02  0.18766634541E+02  0.45825945999E+02  0.56910115663E+02  0.00000000000E+00 0. -1.
</event>
<event>
 7    1  0.5127424E-006  0.1013229E+03  0.7818608E-02  0.1369096E+00
          2   -1    0    0  502    0  0.00000000000E+00  0.00000000000E+00  0.22715202167E+03  0.22715202167E+03  0.00000000000E+00 0. -1.
          1   -1    0    0  501    0 -0.00000000000E+00 -0.00000000000E+00 -0.45099482833E+03  0.45099482833E+03  0.00000000000E+00 0. -1.
         25    2    1    2    0    0 -0.69418808900E+02 -0.19517867489E+02  0.48053074410E+01  0.14438887432E+03  0.12500055147E+03 0.  0.
          2    1    1    2  501    0  0.84343767528E+02  0.61822281157E+02 -0.37050325827E+03  0.38497860974E+03  0.00000000000E+00 0. -1.
          1    1    1    2  502    0 -0.14924958628E+02 -0.42304413669E+02  0.14185514416E+03  0.14877936595E+03  0.00000000000E+00 0. -1.
         22    1    3    3    0    0  0.16313468272E+01 -0.61629928356E+02 -0.84544755532E-01  0.61651573455E+02  0.00000000000E+00 0.  1.
         22    1    3    3    0    0 -0.71050155727E+02  0.42112060868E+02  0.48898521966E+01  0.82737300862E+02  0.00000000000E+00 0.  1.
</event>
<event>
 7    1  0.5127424E-006  0.1199744E+03  0.7818608E-02  0.1426841E+00
          2   -1    0    0  502    0  0.00000000000E+00  0.00000000000E+00  0.50453892708E+02  0.50453892708E+02  0.00000000000E+00 0. -1.
          1   -1    0    0  501    0 -0.00000000000E+00 -0.00000000000E+00 -0.62625529242E+03  0.62625529242E+03  0.00000000000E+00 0. -1.
         25    2    1    2    0    0  0.15265640258E+02 -0.11319692745E+03 -0.30725015187E+03  0.35082056310E+03  0.12500331001E+03 0.  0.
          2    1    1    2  501    0  0.23699818677E+02 -0.34239157254E+01 -0.16026875338E+03  0.16204776430E+03  0.00000000000E+00 0. -1.
          1    1    1    2  502    0 -0.38965458935E+02  0.11662084318E+03 -0.10828249446E+03  0.16384085773E+03  0.00000000000E+00 0. -1.
         22    1    3    3    0    0 -0.22137580497E+01 -0.26430216390E+02  0.43647043213E+01  0.26879503473E+02  0.00000000000E+00 0. -1.
         22    1    3    3    0    0  0.17479398307E+02 -0.86766711064E+02 -0.31161485619E+03  0.32394105963E+03  0.00000000000E+00 0. -1.
</event>
<event>
 7    1  0.5127424E-006  0.5568098E+02  0.7818608E-02  0.1461030E+00
          2   -1    0    0  502    0  0.00000000000E+00  0.00000000000E+00  0.23980793216E+03  0.23980793216E+03  0.00000000000E+00 0. -1.
          1   -1    0    0  501    0 -0.00000000000E+00 -0.00000000000E+00 -0.16017859197E+03  0.16017859197E+03  0.00000000000E+00 0. -1.
         25    2    1    2    0    0  0.12026268488E+02 -0.65034896895E+02  0.55772447551E+02  0.15201805640E+03  0.12499901846E+03 0.  0.
          2    1    1    2  501    0 -0.41209129927E+02  0.37651490506E+02 -0.10179649799E+03  0.11609631403E+03  0.00000000000E+00 0. -1.
          1    1    1    2  502    0  0.29182861439E+02  0.27383406389E+02  0.12565339063E+03  0.13187215371E+03  0.00000000000E+00 0. -1.
         22    1    3    3    0    0  0.48250452706E+02  0.14713333714E+02  0.47890386313E+01  0.50670733825E+02  0.00000000000E+00 0.  1.
         22    1    3    3    0    0 -0.36224184218E+02 -0.79748230609E+02  0.50983408920E+02  0.10134732257E+03  0.00000000000E+00 0.  1.
</event>
<event>
 7    1  0.5127424E-006  0.1054489E+03  0.7818608E-02  0.1368049E+00
          2   -1    0    0  502    0  0.00000000000E+00  0.00000000000E+00  0.22950491057E+04  0.22950491057E+04  0.00000000000E+00 0. -1.
          1   -1    0    0  501    0 -0.00000000000E+00 -0.00000000000E+00 -0.12645139847E+03  0.12645139847E+03  0.00000000000E+00 0. -1.
         25    2    1    2    0    0  0.13814259184E+03  0.48485285462E+02  0.34578745465E+03  0.39576271489E+03  0.12499985648E+03 0.  0.
          2    1    1    2  501    0 -0.42170488697E+02 -0.10592737600E+02 -0.95354437217E+02  0.10479992798E+03  0.00000000000E+00 0. -1.
          1    1    1    2  502    0 -0.95972103141E+02 -0.37892547862E+02  0.19181646898E+04  0.19209378613E+04  0.00000000000E+00 0. -1.
         22    1    3    3    0    0  0.17434977961E+02  0.34072364244E+02  0.11357521023E+02  0.39923648950E+02  0.00000000000E+00 0. -1.
         22    1    3    3    0    0  0.12070761388E+03  0.14412921219E+02  0.33442993362E+03  0.35583906594E+03  0.00000000000E+00 0. -1.
</event>
<event>
 7    1  0.5127424E-006  0.5904014E+02  0.7818608E-02  0.1445354E+00
          2   -1    0    0  502    0  0.00000000000E+00  0.00000000000E+00  0.12750907214E+03  0.12750907214E+03  0.00000000000E+00 0. -1.
          1   -1    0    0  501    0 -0.00000000000E+00 -0.00000000000E+00 -0.32726628553E+03  0.32726628553E+03  0.00000000000E+00 0. -1.
         25    2    1    2    0    0  0.18540913573E+02 -0.17130323960E+02 -0.80225977570E+02  0.15065795626E+03  0.12499759530E+03 0.  0.
          2    1    1    2  501    0  0.42259346632E+02  0.26163045834E+01 -0.19874827048E+03  0.20320819975E+03  0.00000000000E+00 0. -1.
          1    1    1    2  502    0 -0.60800260205E+02  0.14514019376E+02  0.79217034658E+02  0.10090920166E+03  0.00000000000E+00 0. -1.
         22    1    3    3    0    0  0.28329115381E+02  0.25882506198E+02  0.18444911445E+02  0.42575317539E+02  0.00000000000E+00 0.  1.
         22    1    3    3    0    0 -0.97882018078E+01 -0.43012830157E+02 -0.98670889015E+02  0.10808263872E+03  0.00000000000E+00 0.  1.
</event>
<event>
 7    1  0.5127424E-006  0.9668598E+02  0.7818608E-02  0.1315020E+00
          2   -1    0    0  502    0  0.00000000000E+00  0.00000000000E+00  0.37853440606E+03  0.37853440606E+03  0.00000000000E+00 0. -1.
          1   -1    0    0  501    0 -0.00000000000E+00 -0.00000000000E+00 -0.18290522276E+04  0.18290522276E+04  0.00000000000E+00 0. -1.
         25    2    1    2    0    0  0.79745119301E+02 -0.13634797639E+03  0.16598761650E+03  0.26101054921E+03  0.12499825298E+03 0.  0.
          2    1    1    2  501    0 -0.34455533362E+02  0.66622118061E+02 -0.17702242353E+04  0.17718124996E+04  0.00000000000E+00 0. -1.
          1    1    1    2  502    0 -0.45289585940E+02  0.69725858330E+02  0.15371879734E+03  0.17476358479E+03  0.00000000000E+00 0. -1.
         22    1    3    3    0    0  0.37609882163E+02 -0.23259924473E+01 -0.68269297867E+01  0.38295175251E+02  0.00000000000E+00 0.  1.
         22    1    3    3    0    0  0.42135237138E+02 -0.13402198394E+03  0.17281454629E+03  0.22271537396E+03  0.00000000000E+00 0.  1.
</event>
<event>
 7    1  0.5127424E-006  0.1346143E+03  0.7818608E-02  0.1346589E+00
          2   -1    0    0  502    0  0.00000000000E+00  0.00000000000E+00  0.13229377229E+04  0.13229377229E+04  0.00000000000E+00 0. -1.
          1   -1    0    0  501    0 -0.00000000000E+00 -0.00000000000E+00 -0.17402216436E+03  0.17402216436E+03  0.00000000000E+00 0. -1.
         25    2    1    2    0    0  0.77528368760E+02 -0.88075058204E+02 -0.28538878735E+02  0.17380653468E+03  0.12500552012E+03 0.  0.
          2    1    1    2  501    0 -0.11550542137E+03  0.10304635721E+03  0.10136536805E+02  0.15512189877E+03  0.00000000000E+00 0. -1.
          1    1    1    2  502    0  0.37977052606E+02 -0.14971299010E+02  0.11673179004E+04  0.11680314538E+04  0.00000000000E+00 0. -1.
         22    1    3    3    0    0  0.79710235733E+02 -0.95263791919E+02 -0.62481398523E+02  0.13904257223E+03  0.00000000000E+00 0. -1.
         22    1    3    3    0    0 -0.21818669728E+01  0.71887337158E+01  0.33942519787E+02  0.34763962453E+02  0.00000000000E+00 0. -1.
</event>
<event>
 7    1  0.5127424E-006  0.1726726E+03  0.7818608E-02  0.1360718E+00
          2   -1    0    0  502    0  0.00000000000E+00  0.00000000000E+00  0.57664058248E+02  0.57664058248E+02  0.00000000000E+00 0. -1.
          1   -1    0    0  501    0 -0.00000000000E+00 -0.00000000000E+00 -0.81516575619E+03  0.81516575619E+03  0.00000000000E+00 0. -1.
         25    2    1    2    0    0  0.15292517926E+03 -0.37638217787E+02 -0.37420751885E+03  0.42480349411E+03  0.12499598213E+03 0.  0.
          2    1    1    2  501    0 -0.18049862652E+03  0.43685651383E+02 -0.37522489633E+03  0.41866682833E+03  0.00000000000E+00 0. -1.
          1    1    1    2  502    0  0.27573447256E+02 -0.60474335967E+01 -0.80692827582E+01  0.29359492007E+02  0.00000000000E+00 0. -1.
         22    1    3    3    0    0  0.17069130862E+02  0.16358875009E+02 -0.18090509585E+03  0.18244347542E+03  0.00000000000E+00 0. -1.
         22    1    3    3    0    0  0.13585604840E+03 -0.53997092796E+02 -0.19330242301E+03  0.24236001869E+03  0.00000000000E+00 0. -1.
</event>
<event>
 7    1  0.5127424E-006  0.7030027E+02  0.7818608E-02  0.1457166E+00
          2   -1    0    0  502    0  0.00000000000E+00  0.00000000000E+00  0.15382191644E+04  0.15382191644E+04  0.00000000000E+00 0. -1.
          1   -1    0    0  501    0 -0.00000000000E+00 -0.00000000000E+00 -0.40958607720E+02  0.40958607720E+02  0.00000000000E+00 0. -1.
         25    2    1    2    0    0  0.97041924681E+02  0.49916184006E+01  0.51432645477E+03  0.53814469090E+03  0.12500381942E+03 0.  0.
          2    1    1    2  501    0 -0.66410846084E+02 -0.16149030809E+02  0.11806405919E+02  0.69358365713E+02  0.00000000000E+00 0. -1.
          1    1    1    2  502    0 -0.30631078597E+02  0.11157412408E+02  0.97112769602E+03  0.97167471553E+03  0.00000000000E+00 0. -1.
         22    1    3    3    0    0  0.30852339947E+02  0.44475677474E+02  0.37530787169E+03  0.37919118044E+03  0.00000000000E+00 0.  1.
         22    1    3    3    0    0  0.66189584734E+02 -0.39484059074E+02  0.13901858307E+03  0.15895351046E+03  0.00000000000E+00 0.  1.
</event>
<event>
 7    1  0.5127424E-006  0.1131292E+03  0.7818608E-02  0.1285154E+00
          2   -1    0    0  502    0  0.00000000000E+00  0.00000000000E+00  0.90814097875E+03  0.90814097875E+03  0.00000000000E+00 0. -1.
          1   -1    0    0  501    0 -0.00000000000E+00 -0.00000000000E+00 -0.66873190313E+03  0.66873190313E+03  0.00000000000E+00 0. -1.
         25    2    1    2    0    0 -0.13483753554E+03 -0.10060413511E+03 -0.24929191129E+03  0.32569327832E+03  0.12500920574E+03 0.  0.
          2    1    1    2  501    0  0.50893703928E+02  0.91667157805E+02 -0.37192612153E+03  0.38642214843E+03  0.00000000000E+00 0. -1.
          1    1    1    2  502    0  0.83943831607E+02  0.89369773053E+01  0.86062710844E+03  0.86475745514E+03  0.00000000000E+00 0. -1.
         22    1    3    3    0    0 -0.68952331415E+02 -0.11792299336E+03 -0.19740330511E+03  0.24005899532E+03  0.00000000000E+00 0. -1.
         22    1    3    3    0    0 -0.65885204120E+02  0.17318858245E+02 -0.51888606182E+02  0.85634282997E+02  0.00000000000E+00 0. -1.
</event>
<event>
 7    1  0.5127424E-006  0.1858626E+03  0.7818608E-02  0.1361437E+00
          2   -1    0    0  502    0  0.00000000000E+00  0.00000000000E+00  0.15360286738E+04  0.15360286738E+04  0.00000000000E+00 0. -1.
          1   -1    0    0  501    0 -0.00000000000E+00 -0.00000000000E+00 -0.20665158890E+04  0.20665158890E+04  0.00000000000E+00 0. -1.
         25    2    1    2    0    0 -0.19607899057E+03 -0.44590341079E+02 -0.28664343379E+02  0.23849873223E+03  0.12499892652E+03 0.  0.
          2    1    1    2  501    0  0.17520864566E+03  0.60209432604E+02 -0.19283757353E+04  0.19372548159E+04  0.00000000000E+00 0. -1.
          1    1    1    2  502    0  0.20870344913E+02 -0.15619091525E+02  0.14265528635E+04  0.14267910147E+04  0.00000000000E+00 0. -1.
         22    1    3    3    0    0  0.16747097281E+02 -0.10972449191E+02 -0.95652308645E+01  0.22189041216E+02  0.00000000000E+00 0.  1.
         22    1    3    3    0    0 -0.21282608785E+03 -0.33617891888E+02 -0.19099112514E+02  0.21630969101E+03  0.00000000000E+00 0.  1.
</event>
<event>
 7    1  0.5127424E-006  0.4708415E+02  0.7818608E-02  0.1483361E+00
          2   -1    0    0  502    0  0.00000000000E+00  0.00000000000E+00  0.14290667827E+04  0.14290667827E+04  0.00000000000E+00 0. -1.
          1   -1    0    0  501    0 -0.00000000000E+00 -0.00000000000E+00 -0.33098132811E+02  0.33098132811E+02  0.00000000000E+00 0. -1.
         25    2    1    2    0    0  0.89445605307E+01  0.18270176112E+02  0.11524953368E+04  0.11594326570E+04  0.12499912146E+03 0.  0.
          2    1    1    2  501    0  0.35455586865E+02  0.30980943968E+02 -0.33052841082E+01  0.47200025764E+02  0.00000000000E+00 0. -1.
          1    1    1    2  502    0 -0.44400147396E+02 -0.49251120079E+02  0.24677859720E+03  0.25553223271E+03  0.00000000000E+00 0. -1.
         22    1    3    3    0    0  0.26010125001E+02  0.67058163211E+02  0.54168088593E+03  0.54643527159E+03  0.00000000000E+00 0. -1.
         22    1    3    3    0    0 -0.17065564471E+02 -0.48787987099E+02  0.61081445086E+03  0.61299738544E+03  0.00000000000E+00 0. -1.
</event>
<event>
 7    1  0.5127424E-006  0.6980146E+02  0.7818608E-02  0.1401440E+00
          2   -1    0    0  502    0  0.00000000000E+00  0.00000000000E+00  0.35499393012E+04  0.35499393012E+04  0.00000000000E+00 0. -1.
          1   -1    0    0  501    0 -0.00000000000E+00 -0.00000000000E+00 -0.90580524487E+03  0.90580524487E+03  0.00000000000E+00 0. -1.
         25    2    1    2    0    0 -0.67106240351E+02 -0.73585497153E+02  0.13975697246E+04  0.14066784590E+04  0.12500031590E+03 0.  0.
          2    1    1    2  501    0  0.17344331296E+02  0.67594180169E+02 -0.89960700359E+03  0.90230956990E+03  0.00000000000E+00 0. -1.
          1    1    1    2  502    0  0.49761909055E+02  0.59913169837E+01  0.21461713353E+04  0.21467565171E+04  0.00000000000E+00 0. -1.
         22    1    3    3    0    0 -0.40909009368E+02 -0.13107679702E+02  0.12083551657E+03  0.12824422162E+03  0.00000000000E+00 0.  1.
         22    1    3    3    0    0 -0.26197230983E+02 -0.60477817450E+02  0.12767342080E+04  0.12784342374E+04  0.00000000000E+00 0.  1.
</event>
<event>
 7    1  0.5127424E-006  0.3085416E+03  0.7818608E-02  0.1229042E+00
          2   -1    0    0  502    0  0.00000000000E+00  0.00000000000E+00  0.25249754894E+04  0.25249754894E+04  0.00000000000E+00 0. -1.
          1   -1    0    0  501    0 -0.00000000000E+00 -0.00000000000E+00 -0.34952143692E+03  0.34952143692E+03  0.00000000000E+00 0. -1.
         25    2    1    2    0    0 -0.27861949252E+03 -0.47990436330E+02  0.16397806103E+03  0.34992258894E+03  0.12500044065E+03 0.  0.
          2    1    1    2  501    0 -0.33198206931E+02  0.42439099432E+02 -0.24286166302E+03  0.24876693002E+03  0.00000000000E+00 0. -1.
          1    1    1    2  502    0  0.31181769945E+03  0.55513368984E+01  0.22543376545E+04  0.22758074074E+04  0.00000000000E+00 0. -1.
         22    1    3    3    0    0  0.11005142133E+02 -0.63718669640E+01 -0.29514216074E+01  0.13054682358E+02  0.00000000000E+00 0.  1.
         22    1    3    3    0    0 -0.28962463465E+03 -0.41618569366E+02  0.16692948263E+03  0.33686790658E+03  0.00000000000E+00 0.  1.
</event>
<event>
 7    1  0.5127424E-006  0.3137896E+03  0.7818608E-02  0.1275241E+00
          2   -1    0    0  502    0  0.00000000000E+00  0.00000000000E+00  0.66947638245E+03  0.66947638245E+03  0.00000000000E+00 0. -1.
          1   -1    0    0  501    0 -0.00000000000E+00 -0.00000000000E+00 -0.25336435896E+04  0.25336435896E+04  0.00000000000E+00 0. -1.
         25    2    1    2    0    0 -0.11493711981E+03  0.31046219687E+03 -0.41614144532E+03  0.54625556569E+03  0.12499649328E+03 0.  0.
          2    1    1    2  501    0 -0.18418634837E+02 -0.27915982450E+02 -0.20119208247E+04  0.20121987856E+04  0.00000000000E+00 0. -1.
          1    1    1    2  502    0  0.13335575465E+03 -0.28254621442E+03  0.56389506287E+03  0.64466562070E+03  0.00000000000E+00 0. -1.
         22    1    3    3    0    0 -0.73238864620E+02  0.22544982336E+03 -0.37358276165E+03  0.44244280303E+03  0.00000000000E+00 0. -1.
         22    1    3    3    0    0 -0.41698255190E+02  0.85012373514E+02 -0.42558683671E+02  0.10381276267E+03  0.00000000000E+00 0. -1.
</event>
<event>
 7    1  0.5127424E-006  0.6852581E+02  0.7818608E-02  0.1526441E+00
          2   -1    0    0  502    0  0.00000000000E+00  0.00000000000E+00  0.31750411087E+02  0.31750411087E+02  0.00000000000E+00 0. -1.
          1   -1    0    0  501    0 -0.00000000000E+00 -0.00000000000E+00 -0.18312411890E+04  0.18312411890E+04  0.00000000000E+00 0. -1.
         25    2    1    2    0    0  0.73399113248E+02  0.18316759808E+02 -0.26061688585E+03  0.29877600501E+03  0.12499202560E+03 0.  0.
          2    1    1    2  501    0 -0.68325646443E+02  0.17107998633E+01 -0.15418307714E+04  0.15433448897E+04  0.00000000000E+00 0. -1.
          1    1    1    2  502    0 -0.50734668052E+01 -0.20027559671E+02  0.29568792838E+01  0.20870705472E+02  0.00000000000E+00 0. -1.
         22    1    3    3    0    0  0.13026710947E+02  0.17172652446E+02 -0.23012212884E+03  0.23112937799E+03  0.00000000000E+00 0. -1.
         22    1    3    3    0    0  0.60372402302E+02  0.11441073622E+01 -0.30494757009E+02  0.67646627014E+02  0.00000000000E+00 0. -1.
</event>
<event>
 7    1  0.5127424E-006  0.1479564E+03  0.7818608E-02  0.1280242E+00
          2   -1    0    0  502    0  0.00000000000E+00  0.00000000000E+00  0.28408258751E+04  0.28408258751E+04  0.00000000000E+00 0. -1.
          1   -1    0    0  501    0 -0.00000000000E+00 -0.00000000000E+00 -0.13885742078E+04  0.13885742078E+04  0.00000000000E+00 0. -1.
         25    2    1    2    0    0 -0.15617082816E+03 -0.72423534742E+02  0.39462721241E+03  0.44831135209E+03  0.12497173953E+03 0.  0.
          2    1    1    2  501    0  0.93085714657E+01  0.66978303018E+02 -0.13586586653E+04  0.13603404395E+04  0.00000000000E+00 0. -1.
          1    1    1    2  502    0  0.14686225670E+03  0.54452317235E+01  0.24162831202E+04  0.24207482913E+04  0.00000000000E+00 0. -1.
         22    1    3    3    0    0 -0.79375493921E+02 -0.36153306661E+02  0.33070631578E+03  0.34201490891E+03  0.00000000000E+00 0.  1.
         22    1    3    3    0    0 -0.76795334243E+02 -0.36270228081E+02  0.63920896629E+02  0.10629644318E+03  0.00000000000E+00 0.  1.
</event>
<event>
 7    1  0.5127424E-006  0.2091698E+03  0.7818608E-02  0.1212123E+00
          2   -1    0    0  502    0  0.00000000000E+00  0.00000000000E+00  0.12853555956E+04  0.12853555956E+04  0.00000000000E+00 0. -1.
          1   -1    0    0  501    0 -0.00000000000E+00 -0.00000000000E+00 -0.19303149739E+04  0.19303149739E+04  0.00000000000E+00 0. -1.
         25    2    1    2    0    0 -0.11029790862E+03 -0.83539992885E+02 -0.59219613543E+02  0.19564464957E+03  0.12500122887E+03 0.  0.
          2    1    1    2  501    0 -0.93631959355E+02  0.15536443093E+02 -0.17921253915E+04  0.17946369392E+04  0.00000000000E+00 0. -1.
          1    1    1    2  502    0  0.20392986798E+03  0.68003549792E+02  0.12063856267E+04  0.12253889808E+04  0.00000000000E+00 0. -1.
         22    1    3    3    0    0 -0.57955851506E+01  0.70669265565E+00  0.32531697195E+02  0.33051468109E+02  0.00000000000E+00 0.  1.
         22    1    3    3    0    0 -0.10450232347E+03 -0.84246685541E+02 -0.91751310739E+02  0.16259318146E+03  0.00000000000E+00 0.  1.
</event>
<event>
 7    1  0.5127424E-006  0.6952852E+02  0.7818608E-02  0.1367950E+00
          2   -1    0    0  502    0  0.00000000000E+00  0.00000000000E+00  0.22382723059E+03  0.22382723059E+03  0.00000000000E+00 0. -1.
          1   -1    0    0  501    0 -0.00000000000E+00 -0.00000000000E+00 -0.39993382267E+03  0.39993382267E+03  0.00000000000E+00 0. -1.
         25    2    1    2    0    0 -0.30173681966E+02  0.49797452475E+01 -0.90720782551E+02  0.15745045830E+03  0.12500054994E+03 0.  0.
          2    1    1    2  501    0  0.37545834070E+02  0.64156831764E+02 -0.26419797017E+03  0.27445647408E+03  0.00000000000E+00 0. -1.
          1    1    1    2  502    0 -0.73721521043E+01 -0.69136577012E+02  0.17881216064E+03  0.19185412089E+03  0.00000000000E+00 0. -1.
         22    1    3    3    0    0 -0.59660047521E+02 -0.91189749523E+01 -0.10552930156E+03  0.12156854224E+03  0.00000000000E+00 0.  1.
         22    1    3    3    0    0  0.29486365555E+02  0.14098720200E+02  0.14808519007E+02  0.35881916059E+02  0.00000000000E+00 0.  1.
</event>
<event>
 7    1  0.5127424E-006  0.6042642E+02  0.7818608E-02  0.1493945E+00
          2   -1    0    0  502    0  0.00000000000E+00  0.00000000000E+00  0.65279363856E+03  0.65279363856E+03  0.00000000000E+00 0. -1.
          1   -1    0    0  501    0 -0.00000000000E+00 -0.00000000000E+00 -0.17278024080E+03  0.17278024080E+03  0.00000000000E+00 0. -1.
         25    2    1    2    0    0 -0.39783032224E+01 -0.36489235899E+02  0.77664939866E+02  0.15167092366E+03  0.12499973987E+03 0.  0.
          2    1    1    2  501    0 -0.12230498358E+02  0.60779115565E+02 -0.12827762132E+03  0.14247397696E+03  0.00000000000E+00 0. -1.
          1    1    1    2  502    0  0.16208801581E+02 -0.24289879666E+02  0.53062607921E+03  0.53142897874E+03  0.00000000000E+00 0. -1.
         22    1    3    3    0    0 -0.63525884328E+02 -0.10831740208E+02  0.29361145488E+02  0.70816251242E+02  0.00000000000E+00 0.  1.
         22    1    3    3    0    0  0.59547581106E+02 -0.25657495691E+02  0.48303794378E+02  0.80854672419E+02  0.00000000000E+00 0.  1.
</event>
<event>
 7    1  0.5127424E-006  0.1348380E+03  0.7818608E-02  0.1257610E+00
          2   -1    0    0  502    0  0.00000000000E+00  0.00000000000E+00  0.76667963360E+02  0.76667963360E+02  0.00000000000E+00 0. -1.
          1   -1    0    0  501    0 -0.00000000000E+00 -0.00000000000E+00 -0.20491567115E+04  0.20491567115E+04  0.00000000000E+00 0. -1.
         25    2    1    2    0    0 -0.18403131175E+02 -0.19572289698E+03 -0.19941082235E+03  0.30665521600E+03  0.12500647100E+03 0.  0.
          2    1    1    2  501    0  0.47194640120E+01  0.92269451588E+02 -0.16697836690E+04  0.16723377130E+04  0.00000000000E+00 0. -1.
          1    1    1    2  502    0  0.13683667163E+02  0.10345344539E+03 -0.10329425681E+03  0.14683174589E+03  0.00000000000E+00 0. -1.
         22    1    3    3    0    0 -0.39124019780E+02 -0.57940799818E+01 -0.18987990313E+02  0.43872588967E+02  0.00000000000E+00 0.  1.
         22    1    3    3    0    0  0.20720888605E+02 -0.18992881700E+03 -0.18042283204E+03  0.26278262703E+03  0.00000000000E+00 0.  1.
</event>
<event>
 7    1  0.5127424E-006  0.1041098E+03  0.7818608E-02  0.1320283E+00
          2   -1    0    0  502    0  0.00000000000E+00  0.00000000000E+00  0.11522247906E+03  0.11522247906E+03  0.00000000000E+00 0. -1.
          1   -1    0    0  501    0 -0.00000000000E+00 -0.00000000000E+00 -0.59058608133E+03  0.59058608133E+03  0.00000000000E+00 0. -1.
         25    2    1    2    0    0 -0.43812993060E+02 -0.12500153939E+02 -0.28959742354E+03  0.31869657441E+03  0.12500002644E+03 0.  0.
          2    1    1    2  501    0 -0.66236526234E+02  0.52604339968E+01 -0.25054589490E+03  0.25920685759E+03  0.00000000000E+00 0. -1.
          1    1    1    2  502    0  0.11004951929E+03  0.72397199423E+01  0.64779716166E+02  0.12790512839E+03  0.00000000000E+00 0. -1.
         22    1    3    3    0    0  0.37452188102E+02 -0.31348776944E+02 -0.90730610323E+02  0.10304103968E+03  0.00000000000E+00 0. -1.
         22    1    3    3    0    0 -0.81265181163E+02  0.18848623005E+02 -0.19886681322E+03  0.21565553472E+03  0.00000000000E+00 0. -1.
</event>
<event>
 7    1  0.5127424E-006  0.7491665E+02  0.7818608E-02  0.1369967E+00
          2   -1    0    0  502    0  0.00000000000E+00  0.00000000000E+00  0.20019738397E+03  0.20019738397E+03  0.00000000000E+00 0. -1.
          1   -1    0    0  501    0 -0.00000000000E+00 -0.00000000000E+00 -0.88336070385E+03  0.88336070385E+03  0.00000000000E+00 0. -1.
         25    2    1    2    0    0 -0.52438594115E+01 -0.72855890399E+02 -0.56410622434E+02  0.15537001717E+03  0.12498881984E+03 0.  0.
          2    1    1    2  501    0 -0.54966285019E+02  0.24639117866E+02 -0.76634089033E+03  0.76870458487E+03  0.00000000000E+00 0. -1.
          1    1    1    2  502    0  0.60210144430E+02  0.48216772534E+02  0.13958819288E+03  0.15948348578E+03  0.00000000000E+00 0. -1.
         22    1    3    3    0    0  0.37667465910E+01 -0.10821388265E+03 -0.42078160426E+02  0.11616800060E+03  0.00000000000E+00 0. -1.
         22    1    3    3    0    0 -0.90106060026E+01  0.35357992248E+02 -0.14332462007E+02  0.39202016575E+02  0.00000000000E+00 0. -1.
</event>
<event>
 7    1  0.5127424E-006  0.1062089E+03  0.7818608E-02  0.1442757E+00
          2   -1    0    0  502    0  0.00000000000E+00  0.00000000000E+00  0.10462864501E+04  0.10462864501E+04  0.00000000000E+00 0. -1.
          1   -1    0    0  501    0 -0.00000000000E+00 -0.00000000000E+00 -0.84268896425E+02  0.84268896425E+02  0.00000000000E+00 0. -1.
         25    2    1    2    0    0 -0.82765492532E+01 -0.91640709712E+02  0.31094225844E+03  0.34752898061E+03  0.12499913335E+03 0.  0.
          2    1    1    2  501    0 -0.93700483069E+01  0.10789966368E+03 -0.21168001631E+02  0.11035497052E+03  0.00000000000E+00 0. -1.
          1    1    1    2  502    0  0.17646597560E+02 -0.16258953963E+02  0.67224329682E+03  0.67267139534E+03  0.00000000000E+00 0. -1.
         22    1    3    3    0    0 -0.17221446704E+02  0.25173657710E+02  0.11733172157E+03  0.12123128373E+03  0.00000000000E+00 0.  1.
         22    1    3    3    0    0  0.89448974506E+01 -0.11681436742E+03  0.19361053687E+03  0.22629769688E+03  0.00000000000E+00 0.  1.
</event>
<event>
 7    1  0.5127424E-006  0.2341818E+03  0.7818608E-02  0.1233601E+00
          2   -1    0    0  502    0  0.00000000000E+00  0.00000000000E+00  0.91344691621E+03  0.91344691621E+03  0.00000000000E+00 0. -1.
          1   -1    0    0  501    0 -0.00000000000E+00 -0.00000000000E+00 -0.65806988623E+03  0.65806988623E+03  0.00000000000E+00 0. -1.
         25    2    1    2    0    0 -0.16540169857E+03  0.23331875418E+03  0.10284594671E+03  0.32863098771E+03  0.12500269750E+03 0.  0.
          2    1    1    2  501    0  0.10467329733E+03 -0.20332061589E+03 -0.51941856140E+03  0.56753098061E+03  0.00000000000E+00 0. -1.
          1    1    1    2  502    0  0.60728401235E+02 -0.29998138291E+02  0.67194964467E+03  0.67535483413E+03  0.00000000000E+00 0. -1.
         22    1    3    3    0    0 -0.84121160758E+02  0.21017224480E+03  0.87682562530E+02  0.24276938428E+03  0.00000000000E+00 0. -1.
         22    1    3    3    0    0 -0.81280537811E+02  0.23146509388E+02  0.15163384179E+02  0.85861603429E+02  0.00000000000E+00 0. -1.
</event>
<event>
 7    1  0.5127424E-006  0.1649927E+03  0.7818608E-02  0.1325456E+00
          2   -1    0    0  502    0  0.00000000000E+00  0.00000000000E+00  0.59401161747E+03  0.59401161747E+03  0.00000000000E+00 0. -1.
          1   -1    0    0  501    0 -0.00000000000E+00 -0.00000000000E+00 -0.11699663224E+04  0.11699663224E+04  0.00000000000E+00 0. -1.
         25    2    1    2    0    0  0.17658640082E+03 -0.83419957391E+02  0.51448345245E+02  0.23751561669E+03  0.12500035878E+03 0.  0.
          2    1    1    2  501    0 -0.40031803030E+02 -0.88341970829E+00 -0.10622205697E+04  0.10629750065E+04  0.00000000000E+00 0. -1.
          1    1    1    2  502    0 -0.13655459779E+03  0.84303377099E+02  0.43481751947E+03  0.46348731677E+03  0.00000000000E+00 0. -1.
         22    1    3    3    0    0  0.31709035681E+02  0.16926100753E+02 -0.26655453277E+02  0.44748955517E+02  0.00000000000E+00 0.  1.
         22    1    3    3    0    0  0.14487736514E+03 -0.10034605814E+03  0.78103798521E+02  0.19276666117E+03  0.00000000000E+00 0.  1.
</event>
<event>
 7    1  0.5127424E-006  0.1940582E+03  0.7818608E-02  0.1292007E+00
          2   -1    0    0  502    0  0.00000000000E+00  0.00000000000E+00  0.41073668234E+03  0.41073668234E+03  0.00000000000E+00 0. -1.
          1   -1    0    0  501    0 -0.00000000000E+00 -0.00000000000E+00 -0.12047494822E+04  0.12047494822E+04  0.00000000000E+00 0. -1.
         25    2    1    2    0    0  0.13935296186E+03  0.11114760686E+03  0.23825501775E+03  0.32274365813E+03  0.12499990757E+03 0.  0.
          2    1    1    2  501    0 -0.12018152604E+03 -0.15312393461E+03 -0.11499642428E+04  0.11663225533E+04  0.00000000000E+00 0. -1.
          1    1    1    2  502    0 -0.19171435821E+02  0.41976327755E+02  0.11769642519E+03  0.12641995312E+03  0.00000000000E+00 0. -1.
         22    1    3    3    0    0  0.15452227730E+03  0.10878309028E+03  0.17467672560E+03  0.25733801386E+03  0.00000000000E+00 0.  1.
         22    1    3    3    0    0 -0.15169315440E+02  0.23645165772E+01  0.63578292150E+02  0.65405644269E+02  0.00000000000E+00 0.  1.
</event>
<event>
 7    1  0.5127424E-006  0.7688783E+02  0.7818608E-02  0.1435919E+00
          2   -1    0    0  502    0  0.00000000000E+00  0.00000000000E+00  0.16707537172E+04  0.16707537172E+04  0.00000000000E+00 0. -1.
          1   -1    0    0  501    0 -0.00000000000E+00 -0.00000000000E+00 -0.20834735612E+03  0.20834735612E+03  0.00000000000E+00 0. -1.
         25    2    1    2    0    0 -0.84692281666E+02  0.77551572476E+00  0.35266036038E+03  0.38362282735E+03  0.12499503943E+03 0.  0.
          2    1    1    2  501    0  0.69762083869E+02 -0.32303893711E+02 -0.18496070563E+03  0.20030165382E+03  0.00000000000E+00 0. -1.
          1    1    1    2  502    0  0.14930197797E+02  0.31528377986E+02  0.12947067063E+04  0.12951765922E+04  0.00000000000E+00 0. -1.
         22    1    3    3    0    0 -0.85822968739E+02 -0.38178679295E+02  0.14804744694E+03  0.17533179991E+03  0.00000000000E+00 0. -1.
         22    1    3    3    0    0  0.11306870735E+01  0.38954195020E+02  0.20461291344E+03  0.20829102744E+03  0.00000000000E+00 0. -1.
</event>
<event>
 7    1  0.5127424E-006  0.1101384E+03  0.7818608E-02  0.1265344E+00
          2   -1    0    0  502    0  0.00000000000E+00  0.00000000000E+00  0.10859990529E+04  0.10859990529E+04  0.00000000000E+00 0. -1.
          1   -1    0    0  501    0 -0.00000000000E+00 -0.00000000000E+00 -0.12359452409E+03  0.12359452409E+03  0.00000000000E+00 0. -1.
         25    2    1    2    0    0 -0.37001095278E+02 -0.10806923787E+02  0.27941300644E+02  0.13375878775E+03  0.12499930546E+03 0.  0.
          2    1    1    2  501    0 -0.42091282733E+02  0.96030522121E+02 -0.26270487633E+02  0.10809105320E+03  0.00000000000E+00 0. -1.
          1    1    1    2  502    0  0.79092378011E+02 -0.85223598334E+02  0.96073371576E+03  0.96774373601E+03  0.00000000000E+00 0. -1.
         22    1    3    3    0    0  0.25008155063E+02  0.14696320289E+02 -0.32448175189E+02  0.43523254966E+02  0.00000000000E+00 0. -1.
         22    1    3    3    0    0 -0.62009250341E+02 -0.25503244076E+02  0.60389475834E+02  0.90235532789E+02  0.00000000000E+00 0. -1.
</event>
<event>
 7    1  0.5127424E-006  0.1025742E+03  0.7818608E-02  0.1355420E+00
          2   -1    0    0  502    0  0.00000000000E+00  0.00000000000E+00  0.13702348220E+04  0.13702348220E+04  0.00000000000E+00 0. -1.
          1   -1    0    0  501    0 -0.00000000000E+00 -0.00000000000E+00 -0.24213805293E+03  0.24213805293E+03  0.00000000000E+00 0. -1.
         25    2    1    2    0    0 -0.12638632471E+03 -0.11485214198E+02  0.32182819629E+03  0.36783714126E+03  0.12500144538E+03 0.  0.
          2    1    1    2  501    0  0.97782893332E+02 -0.29146901731E+02 -0.20661391216E+03  0.23043512060E+03  0.00000000000E+00 0. -1.
          1    1    1    2  502    0  0.28603431374E+02  0.40632115928E+02  0.10128824849E+04  0.10141006130E+04  0.00000000000E+00 0. -1.
         22    1    3    3    0    0 -0.66937867700E+02 -0.62152902269E+02  0.11574086255E+03  0.14744357787E+03  0.00000000000E+00 0. -1.
         22    1    3    3    0    0 -0.59448457006E+02  0.50667688071E+02  0.20608733374E+03  0.22039356339E+03  0.00000000000E+00 0. -1.
</event>
<event>
 7    1  0.5127424E-006  0.8608719E+02  0.7818608E-02  0.1411486E+00
          2   -1    0    0  502    0  0.00000000000E+00  0.00000000000E+00  0.11401866430E+04  0.11401866430E+04  0.00000000000E+00 0. -1.
          1   -1    0    0  501    0 -0.00000000000E+00 -0.00000000000E+00 -0.36777975147E+02  0.36777975147E+02  0.00000000000E+00 0. -1.
         25    2    1    2    0    0 -0.38209682456E+01  0.80135517525E+02  0.24790733799E+03  0.28899175230E+03  0.12498753419E+03 0.  0.
          2    1    1    2  501    0 -0.33409364521E+02 -0.85104528429E+02  0.11685111512E+03  0.14836829008E+03  0.00000000000E+00 0. -1.
          1    1    1    2  502    0  0.37230332766E+02  0.49690109033E+01  0.73865021479E+03  0.73960457581E+03  0.00000000000E+00 0. -1.
         22    1    3    3    0    0  0.79517778131E+01 -0.31901939151E+02  0.34388634376E+02  0.47576702977E+02  0.00000000000E+00 0.  1.
         22    1    3    3    0    0 -0.11772746059E+02  0.11203745668E+03  0.21351870361E+03  0.24141504932E+03  0.00000000000E+00 0.  1.
</event>
<event>
 7    1  0.5127424E-006  0.3093331E+03  0.7818608E-02  0.1188363E+00
          2   -1    0    0  502    0  0.00000000000E+00  0.00000000000E+00  0.37662236942E+04  0.37662236942E+04  0.00000000000E+00 0. -1.
          1   -1    0    0  501    0 -0.00000000000E+00 -0.00000000000E+00 -0.27422281787E+03  0.27422281787E+03  0.00000000000E+00 0. -1.
         25    2    1    2    0    0  0.23793488741E+03  0.20601473587E+03  0.86356114611E+03  0.92758724740E+03  0.12500066570E+03 0.  0.
          2    1    1    2  501    0 -0.27936001972E+03 -0.13401610296E+03 -0.14224195493E+03  0.34093270628E+03  0.00000000000E+00 0. -1.
          1    1    1    2  502    0  0.41425132314E+02 -0.71998632907E+02  0.27706816852E+04  0.27719265584E+04  0.00000000000E+00 0. -1.
         22    1    3    3    0    0  0.18770476841E+03  0.13882327480E+03  0.46528732767E+03  0.52057398993E+03  0.00000000000E+00 0.  1.
         22    1    3    3    0    0  0.50230119002E+02  0.67191461073E+02  0.39827381844E+03  0.40701325746E+03  0.00000000000E+00 0.  1.
</event>
<event>
 7    1  0.5127424E-006  0.1160216E+03  0.7818608E-02  0.1365457E+00
          2   -1    0    0  502    0  0.00000000000E+00  0.00000000000E+00  0.39570965720E+03  0.39570965720E+03  0.00000000000E+00 0. -1.
          1   -1    0    0  501    0 -0.00000000000E+00 -0.00000000000E+00 -0.20080660317E+03  0.20080660317E+03  0.00000000000E+00 0. -1.
         25    2    1    2    0    0  0.14656842151E+02 -0.14825205044E+03  0.32418830880E+02  0.19715330262E+03  0.12499980263E+03 0.  0.
          2    1    1    2  501    0 -0.13850213825E+02  0.10788040531E+03 -0.91533237930E+02  0.14215605481E+03  0.00000000000E+00 0. -1.
          1    1    1    2  502    0 -0.80662832662E+00  0.40371645132E+02  0.25401746108E+03  0.25720690293E+03  0.00000000000E+00 0. -1.
         22    1    3    3    0    0 -0.87962091487E+01 -0.27111524935E+02  0.63763783681E+02  0.69844313934E+02  0.00000000000E+00 0.  1.
         22    1    3    3    0    0  0.23453051300E+02 -0.12114052551E+03 -0.31344952801E+02  0.12730898869E+03  0.00000000000E+00 0.  1.
</event>
<event>
 7    1  0.5127424E-006  0.9040452E+02  0.7818608E-02  0.1416418E+00
          2   -1    0    0  502    0  0.00000000000E+00  0.00000000000E+00  0.44418692740E+02  0.44418692740E+02  0.00000000000E+00 0. -1.
          1   -1    0    0  501    0 -0.00000000000E+00 -0.00000000000E+00 -0.14365872424E+04  0.14365872424E+04  0.00000000000E+00 0. -1.
         25    2    1    2    0    0 -0.19966621459E+02 -0.78619321115E+02 -0.18035719075E+03  0.23394954268E+03  0.12499603449E+03 0.  0.
          2    1    1    2  501    0 -0.12332448148E+02  0.90526108927E+02 -0.12090772116E+04  0.12125241314E+04  0.00000000000E+00 0. -1.
          1    1    1    2  502    0  0.32299069606E+02 -0.11906787812E+02 -0.27341473505E+01  0.34532261078E+02  0.00000000000E+00 0. -1.
         22    1    3    3    0    0 -0.78912746854E+01  0.27496867376E+02 -0.56132762777E+01  0.29152337851E+02  0.00000000000E+00 0.  1.
         22    1    3    3    0    0 -0.12075346773E+02 -0.10611618849E+03 -0.17474391447E+03  0.20479720482E+03  0.00000000000E+00 0.  1.
</event>
<event>
 7    1  0.5127424E-006  0.6200970E+02  0.7818608E-02  0.1419644E+00
          2   -1    0    0  502    0  0.00000000000E+00  0.00000000000E+00  0.59077738318E+03  0.59077738318E+03  0.00000000000E+00 0. -1.
          1   -1    0    0  501    0 -0.00000000000E+00 -0.00000000000E+00 -0.17745307152E+04  0.17745307152E+04  0.00000000000E+00 0. -1.
         25    2    1    2    0    0  0.80110978566E+02  0.66871871664E+02  0.30794086006E+03  0.34833769686E+03  0.12498784604E+03 0.  0.
          2    1    1    2  501    0 -0.33420726574E+02 -0.52158363148E+02 -0.17514988162E+04  0.17525939470E+04  0.00000000000E+00 0. -1.
          1    1    1    2  502    0 -0.46690251992E+02 -0.14713508516E+02  0.25980462416E+03  0.26437645451E+03  0.00000000000E+00 0. -1.
         22    1    3    3    0    0  0.88554915005E+02 -0.45710556026E+01  0.19803035725E+03  0.21697670362E+03  0.00000000000E+00 0. -1.
         22    1    3    3    0    0 -0.84439364387E+01  0.71442927267E+02  0.10991050281E+03  0.13136099325E+03  0.00000000000E+00 0. -1.
</event>
<event>
 7    1  0.5127424E-006  0.1062539E+03  0.7818608E-02  0.1320822E+00
          2   -1    0    0  502    0  0.00000000000E+00  0.00000000000E+00  0.22580702736E+03  0.22580702736E+03  0.00000000000E+00 0. -1.
          1   -1    0    0  501    0 -0.00000000000E+00 -0.00000000000E+00 -0.45377349046E+03  0.45377349046E+03  0.00000000000E+00 0. -1.
         25    2    1    2    0    0 -0.38819110071E+02 -0.16146980670E+03 -0.26324910177E+03  0.33541121172E+03  0.12498467738E+03 0.  0.
          2    1    1    2  501    0  0.27380936197E+02  0.58722020179E+02 -0.13227141062E+03  0.14728787251E+03  0.00000000000E+00 0. -1.
          1    1    1    2  502    0  0.11438173873E+02  0.10274778652E+03  0.16755404930E+03  0.19688143359E+03  0.00000000000E+00 0. -1.
         22    1    3    3    0    0  0.39445816621E+01 -0.14555396834E+03 -0.13228311116E+03  0.19672401714E+03  0.00000000000E+00 0.  1.
         22    1    3    3    0    0 -0.42763691733E+02 -0.15915838362E+02 -0.13096599061E+03  0.13868719457E+03  0.00000000000E+00 0.  1.
</event>
<event>
 7    1  0.5127424E-006  0.7051258E+02  0.7818608E-02  0.1463422E+00
          2   -1    0    0  502    0  0.00000000000E+00  0.00000000000E+00  0.26126348880E+03  0.26126348880E+03  0.00000000000E+00 0. -1.
          1   -1    0    0  501    0 -0.00000000000E+00 -0.00000000000E+00 -0.21044876117E+03  0.21044876117E+03  0.00000000000E+00 0. -1.
         25    2    1    2    0    0  0.32915870506E+02  0.28140375187E+02  0.12849322119E+03  0.18442113736E+03  0.12500125106E+03 0.  0.
          2    1    1    2  501    0 -0.42975312433E+02 -0.57524652748E+02 -0.17285463246E+03  0.18717555160E+03  0.00000000000E+00 0. -1.
          1    1    1    2  502    0  0.10059441928E+02  0.29384277561E+02  0.95176138900E+02  0.10011556101E+03  0.00000000000E+00 0. -1.
         22    1    3    3    0    0 -0.29935282982E+02 -0.19817731459E+02  0.89164350831E+02  0.96120471839E+02  0.00000000000E+00 0. -1.
         22    1    3    3    0    0  0.62851153488E+02  0.47958106646E+02  0.39328870356E+02  0.88300665520E+02  0.00000000000E+00 0. -1.
</event>
<event>
 7    1  0.5127424E-006  0.4300205E+02  0.7818608E-02  0.1520188E+00
          2   -1    0    0  502    0  0.00000000000E+00  0.00000000000E+00  0.15491995317E+04  0.15491995317E+04  0.00000000000E+00 0. -1.
          1   -1    0    0  501    0 -0.00000000000E+00 -0.00000000000E+00 -0.36009229964E+02  0.36009229964E+02  0.00000000000E+00 0. -1.
         25    2    1    2    0    0 -0.64349575001E+02  0.41154797491E+02  0.21788093181E+03  0.26254878834E+03  0.12500072260E+03 0.  0.
          2    1    1    2  501    0  0.26567001451E+02 -0.21730725403E+02  0.87777175432E+01  0.35427084525E+02  0.00000000000E+00 0. -1.
          1    1    1    2  502    0  0.37782573550E+02 -0.19424072088E+02  0.12865316524E+04  0.12872328888E+04  0.00000000000E+00 0. -1.
         22    1    3    3    0    0  0.31894797233E+02 -0.13778370606E+02  0.40105743540E+02  0.53062154611E+02  0.00000000000E+00 0.  1.
         22    1    3    3    0    0 -0.96244372234E+02  0.54933168098E+02  0.17777518827E+03  0.20948663373E+03  0.00000000000E+00 0.  1.
</event>
<event>
 7    1  0.5127424E-006  0.7242686E+02  0.7818608E-02  0.1370988E+00
          2   -1    0    0  502    0  0.00000000000E+00  0.00000000000E+00  0.21759809879E+03  0.21759809879E+03  0.00000000000E+00 0. -1.
          1   -1    0    0  501    0 -0.00000000000E+00 -0.00000000000E+00 -0.11056803128E+04  0.11056803128E+04  0.00000000000E+00 0. -1.
         25    2    1    2    0    0 -0.14688932847E+02 -0.12144384888E+03 -0.42400793219E+03  0.45866247760E+03  0.12499667445E+03 0.  0.
          2    1    1    2  501    0  0.33259454489E+02  0.52066314058E+02 -0.65640864267E+03  0.65930978951E+03  0.00000000000E+00 0. -1.
          1    1    1    2  502    0 -0.18570521642E+02  0.69377534823E+02  0.19233436083E+03  0.20530614449E+03  0.00000000000E+00 0. -1.
         22    1    3    3    0    0 -0.51108467235E+02 -0.39392056043E+02 -0.29184944967E+03  0.29889782665E+03  0.00000000000E+00 0. -1.
         22    1    3    3    0    0  0.36419534388E+02 -0.82051792838E+02 -0.13215848251E+03  0.15976465095E+03  0.00000000000E+00 0. -1.
</event>
<event>
 7    1  0.5127424E-006  0.1094283E+03  0.7818608E-02  0.1423032E+00
          2   -1    0    0  502    0  0.00000000000E+00  0.00000000000E+00  0.35105355636E+03  0.35105355636E+03  0.00000000000E+00 0. -1.
          1   -1    0    0  501    0 -0.00000000000E+00 -0.00000000000E+00 -0.19692321640E+04  0.19692321640E+04  0.00000000000E+00 0. -1.
         25    2    1    2    0    0  0.92551684635E+02 -0.75075078108E+02 -0.23347301071E+03  0.29040528512E+03  0.12499400472E+03 0.  0.
          2    1    1    2  501    0 -0.97601296222E+02  0.48522590714E+02 -0.17049835513E+04  0.17084640368E+04  0.00000000000E+00 0. -1.
          1    1    1    2  502    0  0.50496115875E+01  0.26552487394E+02  0.32027795434E+03  0.32141639846E+03  0.00000000000E+00 0. -1.
         22    1    3    3    0    0  0.43451712957E+02  0.27495562137E+02 -0.36832263185E+02  0.63250872780E+02  0.00000000000E+00 0. -1.
         22    1    3    3    0    0  0.49099971678E+02 -0.10257064024E+03 -0.19664074753E+03  0.22715441234E+03  0.00000000000E+00 0. -1.
</event>
<event>
 7    1  0.5127424E-006  0.9690342E+02  0.7818608E-02  0.1348472E+00
          2   -1    0    0  502    0  0.00000000000E+00  0.00000000000E+00  0.68633714183E+03  0.68633714183E+03  0.00000000000E+00 0. -1.
          1   -1    0    0  501    0 -0.00000000000E+00 -0.00000000000E+00 -0.50653942693E+03  0.50653942693E+03  0.00000000000E+00 0. -1.
         25    2    1    2    0    0 -0.49053366471E+01  0.59209769061E+02 -0.36610930116E+02  0.14315966585E+03  0.12499788255E+03 0.  0.
          2    1    1    2  501    0 -0.38265007877E+02 -0.94565043692E+02 -0.40914932537E+03  0.42167514602E+03  0.00000000000E+00 0. -1.
          1    1    1    2  502    0  0.43170344524E+02  0.35355274631E+02  0.62555797039E+03  0.62804175690E+03  0.00000000000E+00 0. -1.
         22    1    3    3    0    0 -0.58586233771E+02  0.50721938444E+02  0.24643045603E+00  0.77492725820E+02  0.00000000000E+00 0.  1.
         22    1    3    3    0    0  0.53680897124E+02  0.84878306169E+01 -0.36857360572E+02  0.65666940031E+02  0.00000000000E+00 0.  1.
</event>
<event>
 7    1  0.5127424E-006  0.2893297E+02  0.7818608E-02  0.1636876E+00
          2   -1    0    0  502    0  0.00000000000E+00  0.00000000000E+00  0.20150168873E+03  0.20150168873E+03  0.00000000000E+00 0. -1.
          1   -1    0    0  501    0 -0.00000000000E+00 -0.00000000000E+00 -0.41158787019E+03  0.41158787019E+03  0.00000000000E+00 0. -1.
         25    2    1    2    0    0 -0.20159271798E+02 -0.39719792833E+01  0.33166976117E+02  0.13094574806E+03  0.12499827108E+03 0.  0.
          2    1    1    2  501    0 -0.90022154990E+00  0.24742650052E+02 -0.36043604401E+03  0.36128541480E+03  0.00000000000E+00 0. -1.
          1    1    1    2  502    0  0.21059493348E+02 -0.20770670769E+02  0.11718288643E+03  0.12085839605E+03  0.00000000000E+00 0. -1.
         22    1    3    3    0    0  0.10192263182E+02 -0.53845514992E+02  0.45554287331E+02  0.71262997466E+02  0.00000000000E+00 0. -1.
         22    1    3    3    0    0 -0.30351534980E+02  0.49873535709E+02 -0.12387311214E+02  0.59682750597E+02  0.00000000000E+00 0. -1.
</event>
<event>
 7    1  0.5127424E-006  0.4691862E+02  0.7818608E-02  0.1464651E+00
          2   -1    0    0  502    0  0.00000000000E+00  0.00000000000E+00  0.86740376603E+03  0.86740376603E+03  0.00000000000E+00 0. -1.
          1   -1    0    0  501    0 -0.00000000000E+00 -0.00000000000E+00 -0.74946876852E+03  0.74946876852E+03  0.00000000000E+00 0. -1.
         25    2    1    2    0    0 -0.13211197489E+02 -0.85010000447E+01  0.40308658093E+03  0.42230956001E+03  0.12497907828E+03 0.  0.
          2    1    1    2  501    0  0.12521673381E+02 -0.44537614755E+02 -0.73758312869E+03  0.73903265365E+03  0.00000000000E+00 0. -1.
          1    1    1    2  502    0  0.68952410764E+00  0.53038614799E+02  0.45243154527E+03  0.45553032090E+03  0.00000000000E+00 0. -1.
         22    1    3    3    0    0 -0.56781874780E+02  0.25830573686E+02  0.13745667744E+03  0.15094945516E+03  0.00000000000E+00 0.  1.
         22    1    3    3    0    0  0.43570677291E+02 -0.34331573730E+02  0.26562990348E+03  0.27136010484E+03  0.00000000000E+00 0.  1.
</event>
<event>
 7    1  0.5127424E-006  0.7888184E+02  0.7818608E-02  0.1497102E+00
          2   -1    0    0  502    0  0.00000000000E+00  0.00000000000E+00  0.57201574907E+03  0.57201574907E+03  0.00000000000E+00 0. -1.
          1   -1    0    0  501    0 -0.00000000000E+00 -0.00000000000E+00 -0.11868181505E+04  0.11868181505E+04  0.00000000000E+00 0. -1.
         25    2    1    2    0    0  0.60434852431E+02 -0.62454993544E+01 -0.79919342955E+03  0.81118738135E+03  0.12499380851E+03 0.  0.
          2    1    1    2  501    0  0.15460743716E+02 -0.15491424040E+02 -0.37855728634E+03  0.37918944850E+03  0.00000000000E+00 0. -1.
          1    1    1    2  502    0 -0.75895596147E+02  0.21736923395E+02  0.56294831446E+03  0.56845706972E+03  0.00000000000E+00 0. -1.
         22    1    3    3    0    0  0.62072564602E+02 -0.15643061409E+02 -0.16589223095E+03  0.17781434401E+03  0.00000000000E+00 0. -1.
         22    1    3    3    0    0 -0.16377121706E+01  0.93975620542E+01 -0.63330119860E+03  0.63337303734E+03  0.00000000000E+00 0. -1.
</event>
<event>
 7    1  0.5127424E-006  0.7853476E+02  0.7818608E-02  0.1377942E+00
          2   -1    0    0  502    0  0.00000000000E+00  0.00000000000E+00  0.78327731433E+03  0.78327731433E+03  0.00000000000E+00 0. -1.
          1   -1    0    0  501    0 -0.00000000000E+00 -0.00000000000E+00 -0.19775992578E+03  0.19775992578E+03  0.00000000000E+00 0. -1.
         25    2    1    2    0    0  0.61536881047E+02 -0.10838751878E+03  0.34722046932E+03  0.38950849504E+03  0.12498068426E+03 0.  0.
          2    1    1    2  501    0 -0.19653871505E+02  0.50093182426E+02 -0.16930703498E+03  0.17765267711E+03  0.00000000000E+00 0. -1.
          1    1    1    2  502    0 -0.41883009542E+02  0.58294336353E+02  0.40760395422E+03  0.41387606796E+03  0.00000000000E+00 0. -1.
         22    1    3    3    0    0 -0.19746024674E+02  0.41264088465E+01  0.13117381655E+03  0.13271587278E+03  0.00000000000E+00 0.  1.
         22    1    3    3    0    0  0.81282905721E+02 -0.11251392763E+03  0.21604665277E+03  0.25679262226E+03  0.00000000000E+00 0.  1.
</event>
<event>
 7    1  0.5127424E-006  0.5547251E+02  0.7818608E-02  0.1432788E+00
          2   -1    0    0  502    0  0.00000000000E+00  0.00000000000E+00  0.83162487627E+03  0.83162487627E+03  0.00000000000E+00 0. -1.
          1   -1    0    0  501    0 -0.00000000000E+00 -0.00000000000E+00 -0.78615649606E+02  0.78615649606E+02  0.00000000000E+00 0. -1.
         25    2    1    2    0    0 -0.50985718718E+02  0.20055287449E+02  0.26194180185E+03  0.29536545850E+03  0.12500195380E+03 0.  0.
          2    1    1    2  501    0  0.35002161574E+02  0.35009814729E+02 -0.50243756906E+02  0.70535619018E+02  0.00000000000E+00 0. -1.
          1    1    1    2  502    0  0.15983557144E+02 -0.55065102177E+02  0.54131118173E+03  0.54433944836E+03  0.00000000000E+00 0. -1.
         22    1    3    3    0    0 -0.58691780897E+02 -0.47197924459E+01  0.38340272137E+02  0.70263632507E+02  0.00000000000E+00 0. -1.
         22    1    3    3    0    0  0.77060621786E+01  0.24775079895E+02  0.22360152971E+03  0.22510182599E+03  0.00000000000E+00 0. -1.
</event>
<event>
 7    1  0.5127424E-006  0.1775376E+03  0.7818608E-02  0.1382094E+00
          2   -1    0    0  502    0  0.00000000000E+00  0.00000000000E+00  0.28560460788E+04  0.28560460788E+04  0.00000000000E+00 0. -1.
          1   -1    0    0  501    0 -0.00000000000E+00 -0.00000000000E+00 -0.68690570085E+03  0.68690570085E+03  0.00000000000E+00 0. -1.
         25    2    1    2    0    0 -0.14636193864E+03 -0.57716872547E+02  0.90979280329E-01  0.20094280304E+03  0.12499978944E+03 0.  0.
          2    1    1    2  501    0 -0.22902073690E+02  0.22368736666E+01 -0.58337411737E+03  0.58382777375E+03  0.00000000000E+00 0. -1.
          1    1    1    2  502    0  0.16926401233E+03  0.55479998881E+02  0.27524235160E+04  0.27581812028E+04  0.00000000000E+00 0. -1.
         22    1    3    3    0    0 -0.86101274510E+02  0.32853482122E+02  0.31711512779E+00  0.92156830033E+02  0.00000000000E+00 0.  1.
         22    1    3    3    0    0 -0.60260664126E+02 -0.90570354669E+02 -0.22613584746E+00  0.10878597301E+03  0.00000000000E+00 0.  1.
</event>
<event>
 7    1  0.5127424E-006  0.8662393E+02  0.7818608E-02  0.1315386E+00
          2   -1    0    0  502    0  0.00000000000E+00  0.00000000000E+00  0.12537035308E+03  0.12537035308E+03  0.00000000000E+00 0. -1.
          1   -1    0    0  501    0 -0.00000000000E+00 -0.00000000000E+00 -0.11466049521E+04  0.11466049521E+04  0.00000000000E+00 0. -1.
         25    2    1    2    0    0 -0.88011740116E+02 -0.60527977710E+02 -0.24628372748E+03  0.29612484219E+03  0.12499818099E+03 0.  0.
          2    1    1    2  501    0  0.90303392318E+01  0.87442897360E+02 -0.85542238458E+03  0.85992747565E+03  0.00000000000E+00 0. -1.
          1    1    1    2  502    0  0.78981400884E+02 -0.26914919651E+02  0.80471513044E+02  0.11592298735E+03  0.00000000000E+00 0. -1.
         22    1    3    3    0    0 -0.16465464589E+02 -0.71662145928E+02 -0.55683996828E+02  0.92234929315E+02  0.00000000000E+00 0. -1.
         22    1    3    3    0    0 -0.71546275527E+02  0.11134168218E+02 -0.19059973066E+03  0.20388991287E+03  0.00000000000E+00 0. -1.
</event>
<event>
 7    1  0.5610793E-006  0.4463496E+02  0.7818608E-02  0.1528778E+00
          2   -1    0    0  502    0  0.00000000000E+00  0.00000000000E+00  0.10727375350E+04  0.10727375350E+04  0.00000000000E+00 0. -1.
          1   -1    0    0  501    0 -0.00000000000E+00 -0.00000000000E+00 -0.68589824342E+03  0.68589824342E+03  0.00000000000E+00 0. -1.
         25    2    1    2    0    0 -0.13512567167E+02 -0.11471630979E-01 -0.15819621166E+03  0.20207335913E+03  0.12500004594E+03 0.  0.
          2    1    1    2  501    0 -0.31143930889E+02  0.23414031266E+01 -0.50480488901E+03  0.50577010842E+03  0.00000000000E+00 0. -1.
          1    1    1    2  502    0  0.44656498056E+02 -0.23299314957E+01  0.10498403922E+04  0.10507923108E+04  0.00000000000E+00 0. -1.
         22    1    3    3    0    0  0.17225997516E+02  0.51453730917E+02 -0.11805803737E+03  0.12993044910E+03  0.00000000000E+00 0. -1.
         22    1    3    3    0    0 -0.30738564683E+02 -0.51465202548E+02 -0.40138174283E+02  0.72142910025E+02  0.00000000000E+00 0. -1.
</event>
<event>
 7    1  0.5127424E-006  0.6147433E+02  0.7818608E-02  0.1433524E+00
          2   -1    0    0  502    0  0.00000000000E+00  0.00000000000E+00  0.38081318877E+02  0.38081318877E+02  0.00000000000E+00 0. -1.
          1   -1    0    0  501    0 -0.00000000000E+00 -0.00000000000E+00 -0.18211774463E+04  0.18211774463E+04  0.00000000000E+00 0. -1.
         25    2    1    2    0    0 -0.61339066125E+02  0.78757849125E+02 -0.92713043136E+03  0.94083000327E+03  0.12499991387E+03 0.  0.
          2    1    1    2  501    0  0.40059446827E+02 -0.39760736452E+02 -0.87000814437E+03  0.87183705284E+03  0.00000000000E+00 0. -1.
          1    1    1    2  502    0  0.21279619299E+02 -0.38997112673E+02  0.14042448344E+02  0.46591709025E+02  0.00000000000E+00 0. -1.
         22    1    3    3    0    0  0.27432833011E+02  0.95177405647E+01 -0.62677653694E+02  0.69077029359E+02  0.00000000000E+00 0.  1.
         22    1    3    3    0    0 -0.88771899136E+02  0.69240108560E+02 -0.86445277766E+03  0.87175297391E+03  0.00000000000E+00 0.  1.
</event>
<event>
 7    1  0.5127424E-006  0.1915716E+03  0.7818608E-02  0.1204498E+00
          2   -1    0    0  502    0  0.00000000000E+00  0.00000000000E+00  0.47194398308E+03  0.47194398308E+03  0.00000000000E+00 0. -1.
          1   -1    0    0  501    0 -0.00000000000E+00 -0.00000000000E+00 -0.85902591971E+03  0.85902591971E+03  0.00000000000E+00 0. -1.
         25    2    1    2    0    0  0.26113898532E+03  0.12592251103E+03 -0.14405964300E+03  0.34702809065E+03  0.12500106608E+03 0.  0.
          2    1    1    2  501    0 -0.86743145668E+02 -0.71553573666E+02 -0.58528069953E+03  0.59598471832E+03  0.00000000000E+00 0. -1.
          1    1    1    2  502    0 -0.17439583965E+03 -0.54368937362E+02  0.34225840590E+03  0.38795709382E+03  0.00000000000E+00 0. -1.
         22    1    3    3    0    0  0.14484399078E+03  0.13520760035E+03 -0.77879669180E+02  0.21289931830E+03  0.00000000000E+00 0. -1.
         22    1    3    3    0    0  0.11629499454E+03 -0.92850893246E+01 -0.66179973818E+02  0.13412877235E+03  0.00000000000E+00 0. -1.
</event>
<event>
 7    1  0.5127424E-006  0.5412607E+02  0.7818608E-02  0.1540423E+00
          2   -1    0    0  502    0  0.00000000000E+00  0.00000000000E+00  0.34226875135E+03  0.34226875135E+03  0.00000000000E+00 0. -1.
          1   -1    0    0  501    0 -0.00000000000E+00 -0.00000000000E+00 -0.33431391060E+03  0.33431391060E+03  0.00000000000E+00 0. -1.
         25    2    1    2    0    0 -0.28169260820E+02 -0.55945677576E+02  0.47480897336E+02  0.14765318124E+03  0.12499440077E+03 0.  0.
          2    1    1    2  501    0 -0.12337870762E+02  0.20424797073E+02 -0.28075009754E+03  0.28176233364E+03  0.00000000000E+00 0. -1.
          1    1    1    2  502    0  0.40507131581E+02  0.35520880503E+02  0.24122404095E+03  0.24716714708E+03  0.00000000000E+00 0. -1.
         22    1    3    3    0    0 -0.21306523417E+02 -0.88763995253E+02  0.62789938052E+02  0.11079526666E+03  0.00000000000E+00 0. -1.
         22    1    3    3    0    0 -0.68627374025E+01  0.32818317677E+02 -0.15309040716E+02  0.36857914583E+02  0.00000000000E+00 0. -1.
</event>
<event>
 7    1  0.5127424E-006  0.1049797E+03  0.7818608E-02  0.1282827E+00
          2   -1    0    0  502    0  0.00000000000E+00  0.00000000000E+00  0.17534337454E+04  0.17534337454E+04  0.00000000000E+00 0. -1.
          1   -1    0    0  501    0 -0.00000000000E+00 -0.00000000000E+00 -0.83445535323E+03  0.83445535323E+03  0.00000000000E+00 0. -1.
         25    2    1    2    0    0  0.84541784097E+02 -0.12153541900E+03  0.14718493542E+03  0.24332447922E+03  0.12500090258E+03 0.  0.
          2    1    1    2  501    0  0.15635850427E+02  0.91671321463E+02 -0.78187376244E+03  0.78738471626E+03  0.00000000000E+00 0. -1.
          1    1    1    2  502    0 -0.10017763452E+03  0.29864097533E+02  0.15536672192E+04  0.15571799032E+04  0.00000000000E+00 0. -1.
         22    1    3    3    0    0  0.44379439218E+02 -0.74958124227E+02  0.36712885807E+01  0.87187919879E+02  0.00000000000E+00 0.  1.
         22    1    3    3    0    0  0.40162344879E+02 -0.46577294769E+02  0.14351364684E+03  0.15613655934E+03  0.00000000000E+00 0.  1.
</event>
<event>
 7    1  0.5127424E-006  0.8366624E+02  0.7818608E-02  0.1423879E+00
          2   -1    0    0  502    0  0.00000000000E+00  0.00000000000E+00  0.16249287166E+04  0.16249287166E+04  0.00000000000E+00 0. -1.
          1   -1    0    0  501    0 -0.00000000000E+00 -0.00000000000E+00 -0.12405888506E+03  0.12405888506E+03  0.00000000000E+00 0. -1.
         25    2    1    2    0    0 -0.37535173046E+02 -0.97565921265E+02  0.12007768340E+02  0.16339545290E+03  0.12500355723E+03 0.  0.
          2    1    1    2  501    0  0.32069455243E+02  0.14322702110E+02 -0.40698506545E+02  0.53758331358E+02  0.00000000000E+00 0. -1.
          1    1    1    2  502    0  0.54657178032E+01  0.83243219155E+02  0.15295605698E+04  0.15318338174E+04  0.00000000000E+00 0. -1.
         22    1    3    3    0    0  0.81763529206E+01 -0.10989912205E+03  0.27494516842E+02  0.11358088850E+03  0.00000000000E+00 0. -1.
         22    1    3    3    0    0 -0.45711525967E+02  0.12333200787E+02 -0.15486748503E+02  0.49814564407E+02  0.00000000000E+00 0. -1.
</event>
<event>
 7    1  0.5127424E-006  0.9133218E+02  0.7818608E-02  0.1408448E+00
          2   -1    0    0  502    0  0.00000000000E+00  0.00000000000E+00  0.11374967023E+03  0.11374967023E+03  0.00000000000E+00 0. -1.
          1   -1    0    0  501    0 -0.00000000000E+00 -0.00000000000E+00 -0.15496386640E+04  0.15496386640E+04  0.00000000000E+00 0. -1.
         25    2    1    2    0    0 -0.52825232800E+02 -0.20068083133E+02 -0.49532593749E+03  0.51397092949E+03  0.12500039533E+03 0.  0.
          2    1    1    2  501    0 -0.33663026180E+02 -0.13455439304E+02 -0.10240078120E+04  0.10246493289E+04  0.00000000000E+00 0. -1.
          1    1    1    2  502    0  0.86488258979E+02  0.33523522437E+02  0.83444755703E+02  0.12476807585E+03  0.00000000000E+00 0. -1.
         22    1    3    3    0    0 -0.62582758379E+02  0.36225303720E+02 -0.35807838614E+03  0.36530672714E+03  0.00000000000E+00 0.  1.
         22    1    3    3    0    0  0.97575255790E+01 -0.56293386854E+02 -0.13724755135E+03  0.14866420235E+03  0.00000000000E+00 0.  1.
</event>
<event>
 7    1  0.5127424E-006  0.1087633E+03  0.7818608E-02  0.1340959E+00
          2   -1    0    0  502    0  0.00000000000E+00  0.00000000000E+00  0.12645569979E+04  0.12645569979E+04  0.00000000000E+00 0. -1.
          1   -1    0    0  501    0 -0.00000000000E+00 -0.00000000000E+00 -0.14292653775E+04  0.14292653775E+04  0.00000000000E+00 0. -1.
         25    2    1    2    0    0 -0.15151050608E+02 -0.15794333899E+03 -0.21262899259E+03  0.29327697813E+03  0.12499857897E+03 0.  0.
          2    1    1    2  501    0  0.13719200146E+02  0.10492846169E+03 -0.11733558055E+04  0.11781180098E+04  0.00000000000E+00 0. -1.
          1    1    1    2  502    0  0.14318504621E+01  0.53014877306E+02  0.12212764185E+04  0.12224273876E+04  0.00000000000E+00 0. -1.
         22    1    3    3    0    0 -0.31237268652E+02 -0.13100837186E+03 -0.79270427621E+02  0.15627783319E+03  0.00000000000E+00 0.  1.
         22    1    3    3    0    0  0.16086218044E+02 -0.26934967133E+02 -0.13335856497E+03  0.13699914494E+03  0.00000000000E+00 0.  1.
</event>
<event>
 7    1  0.5127424E-006  0.7113282E+02  0.7818608E-02  0.1379193E+00
          2   -1    0    0  502    0  0.00000000000E+00  0.00000000000E+00  0.46537737935E+03  0.46537737935E+03  0.00000000000E+00 0. -1.
          1   -1    0    0  501    0 -0.00000000000E+00 -0.00000000000E+00 -0.25899056737E+03  0.25899056737E+03  0.00000000000E+00 0. -1.
         25    2    1    2    0    0 -0.43369044598E+02  0.24981362798E+02 -0.98157395831E+02  0.16662884095E+03  0.12500141505E+03 0.  0.
          2    1    1    2  501    0  0.82421070476E+02  0.18985203750E+02 -0.11016100745E+03  0.13888527057E+03  0.00000000000E+00 0. -1.
          1    1    1    2  502    0 -0.39052025878E+02 -0.43966566549E+02  0.41470521526E+03  0.41885383520E+03  0.00000000000E+00 0. -1.
         22    1    3    3    0    0 -0.76151746709E+01 -0.49424161725E+02 -0.51594432275E+02  0.71852098712E+02  0.00000000000E+00 0. -1.
         22    1    3    3    0    0 -0.35753869927E+02  0.74405524523E+02 -0.46562963555E+02  0.94776742239E+02  0.00000000000E+00 0. -1.
</event>
<event>
 7    1  0.5127424E-006  0.4385822E+02  0.7818608E-02  0.1499740E+00
          2   -1    0    0  502    0  0.00000000000E+00  0.00000000000E+00  0.97804669602E+03  0.97804669602E+03  0.00000000000E+00 0. -1.
          1   -1    0    0  501    0 -0.00000000000E+00 -0.00000000000E+00 -0.10945637147E+03  0.10945637147E+03  0.00000000000E+00 0. -1.
         25    2    1    2    0    0  0.68257316299E+02 -0.26345383502E+02  0.12887001112E+03  0.19387222324E+03  0.12500327482E+03 0.  0.
          2    1    1    2  501    0 -0.42906867951E+02 -0.28370458159E+01 -0.70451353407E+02  0.82537514763E+02  0.00000000000E+00 0. -1.
          1    1    1    2  502    0 -0.25350448347E+02  0.29182429318E+02  0.81017166684E+03  0.81109332950E+03  0.00000000000E+00 0. -1.
         22    1    3    3    0    0 -0.15653090212E+02 -0.52578683586E+02  0.65824173543E+02  0.85687566329E+02  0.00000000000E+00 0.  1.
         22    1    3    3    0    0  0.83910406511E+02  0.26233300084E+02  0.63045837580E+02  0.10818465691E+03  0.00000000000E+00 0.  1.
</event>
<event>
 7    1  0.5127424E-006  0.5980587E+02  0.7818608E-02  0.1407580E+00
          2   -1    0    0  502    0  0.00000000000E+00  0.00000000000E+00  0.36024980418E+03  0.36024980418E+03  0.00000000000E+00 0. -1.
          1   -1    0    0  501    0 -0.00000000000E+00 -0.00000000000E+00 -0.18292899749E+04  0.18292899749E+04  0.00000000000E+00 0. -1.
         25    2    1    2    0    0 -0.10864423623E+02  0.21852936251E+02  0.50185329802E+02  0.13689110293E+03  0.12500008085E+03 0.  0.
          2    1    1    2  501    0  0.45821268114E+02  0.31739273884E+02 -0.17816573691E+04  0.17825290884E+04  0.00000000000E+00 0. -1.
          1    1    1    2  502    0 -0.34956844491E+02 -0.53592210135E+02  0.26243186865E+03  0.27011958768E+03  0.00000000000E+00 0. -1.
         22    1    3    3    0    0  0.41542828264E+02  0.38830356937E+02 -0.72291087217E+01  0.57322449467E+02  0.00000000000E+00 0.  1.
         22    1    3    3    0    0 -0.52407251888E+02 -0.16977420686E+02  0.57414438524E+02  0.79568653467E+02  0.00000000000E+00 0.  1.
</event>
<event>
 7    1  0.5127424E-006  0.8356705E+02  0.7818608E-02  0.1338841E+00
          2   -1    0    0  502    0  0.00000000000E+00  0.00000000000E+00  0.29721096122E+04  0.29721096122E+04  0.00000000000E+00 0. -1.
          1   -1    0    0  501    0 -0.00000000000E+00 -0.00000000000E+00 -0.78569367549E+02  0.78569367549E+02  0.00000000000E+00 0. -1.
         25    2    1    2    0    0  0.97646037271E+02  0.56590604161E+02  0.28706339605E+03  0.33281883404E+03  0.12500295143E+03 0.  0.
          2    1    1    2  501    0 -0.67088892938E+02  0.21013303395E+02 -0.32580456829E+02  0.77485254355E+02  0.00000000000E+00 0. -1.
          1    1    1    2  502    0 -0.30557144333E+02 -0.77603907555E+02  0.26390573054E+04  0.26403748913E+04  0.00000000000E+00 0. -1.
         22    1    3    3    0    0  0.36965323281E+02  0.13788302952E+00  0.22817097862E+03  0.23114594875E+03  0.00000000000E+00 0.  1.
         22    1    3    3    0    0  0.60680713990E+02  0.56452721131E+02  0.58892417427E+02  0.10167288529E+03  0.00000000000E+00 0.  1.
</event>
<event>
 7    1  0.5127424E-006  0.1043034E+03  0.7818608E-02  0.1295051E+00
          2   -1    0    0  502    0  0.00000000000E+00  0.00000000000E+00  0.17389971090E+04  0.17389971090E+04  0.00000000000E+00 0. -1.
          1   -1    0    0  501    0 -0.00000000000E+00 -0.00000000000E+00 -0.49963329390E+02  0.49963329390E+02  0.00000000000E+00 0. -1.
         25    2    1    2    0    0  0.13154639979E+03 -0.47999344061E+02  0.28942786178E+03  0.34496647188E+03  0.12499994889E+03 0.  0.
          2    1    1    2  501    0 -0.32167066721E+02  0.77009637571E+02  0.66067557459E+02  0.10644306745E+03  0.00000000000E+00 0. -1.
          1    1    1    2  502    0 -0.99379333065E+02 -0.29010293510E+02  0.13335383604E+04  0.13375508991E+04  0.00000000000E+00 0. -1.
         22    1    3    3    0    0  0.80484768371E+02 -0.51344776060E+02  0.66760231212E+02  0.11649468846E+03  0.00000000000E+00 0. -1.
         22    1    3    3    0    0  0.51061631415E+02  0.33454319993E+01  0.22266763056E+03  0.22847178342E+03  0.00000000000E+00 0. -1.
</event>
<event>
 7    1  0.5127424E-006  0.1300821E+03  0.7818608E-02  0.1366435E+00
          2   -1    0    0  502    0  0.00000000000E+00  0.00000000000E+00  0.14507220807E+04  0.14507220807E+04  0.00000000000E+00 0. -1.
          1   -1    0    0  501    0 -0.00000000000E+00 -0.00000000000E+00 -0.67705527673E+02  0.67705527673E+02  0.00000000000E+00 0. -1.
         25    2    1    2    0    0  0.27020709840E+02  0.13779454499E+03  0.16702754054E+03  0.25147762935E+03  0.12500137350E+03 0.  0.
          2    1    1    2  501    0 -0.34710495528E+02 -0.84449436807E+01 -0.75970163846E+01  0.36521914401E+02  0.00000000000E+00 0. -1.
          1    1    1    2  502    0  0.76897856872E+01 -0.12934960131E+03  0.12235860289E+04  0.12304280647E+04  0.00000000000E+00 0. -1.
         22    1    3    3    0    0 -0.37124292367E+02  0.10658936538E+03  0.12610810294E+03  0.16924171921E+03  0.00000000000E+00 0.  1.
         22    1    3    3    0    0  0.64145002208E+02  0.31205179602E+02  0.40919437608E+02  0.82235910139E+02  0.00000000000E+00 0.  1.
</event>
<event>
 7    1  0.5127424E-006  0.5461314E+02  0.7818608E-02  0.1546406E+00
          2   -1    0    0  502    0  0.00000000000E+00  0.00000000000E+00  0.13757746241E+04  0.13757746241E+04  0.00000000000E+00 0. -1.
          1   -1    0    0  501    0 -0.00000000000E+00 -0.00000000000E+00 -0.24809111961E+03  0.24809111961E+03  0.00000000000E+00 0. -1.
         25    2    1    2    0    0 -0.28808041233E+02  0.21059710714E+02  0.84684155009E+03  0.85676047774E+03  0.12499796239E+03 0.  0.
          2    1    1    2  501    0  0.33330626323E+02 -0.43355559163E+02 -0.23980499320E+03  0.24596152123E+03  0.00000000000E+00 0. -1.
          1    1    1    2  502    0 -0.45225850896E+01  0.22295848448E+02  0.52064694762E+03  0.52114374475E+03  0.00000000000E+00 0. -1.
         22    1    3    3    0    0  0.24630746737E+02 -0.21394594609E+02  0.73529011443E+02  0.80442015683E+02  0.00000000000E+00 0. -1.
         22    1    3    3    0    0 -0.53438787969E+02  0.42454305323E+02  0.77331253865E+03  0.77631846206E+03  0.00000000000E+00 0. -1.
</event>
<event>
 7    1  0.5127424E-006  0.3885570E+02  0.7818608E-02  0.1585762E+00
          2   -1    0    0  502    0  0.00000000000E+00  0.00000000000E+00  0.19500975096E+03  0.19500975096E+03  0.00000000000E+00 0. -1.
          1   -1    0    0  501    0 -0.00000000000E+00 -0.00000000000E+00 -0.18620235562E+04  0.18620235562E+04  0.00000000000E+00 0. -1.
         25    2    1    2    0    0  0.16658546590E+02 -0.16016534168E+02 -0.98764083951E+03  0.99578766166E+03  0.12499841081E+03 0.  0.
          2    1    1    2  501    0 -0.10913129435E+02 -0.22453585335E+02 -0.86814702497E+03  0.86850591066E+03  0.00000000000E+00 0. -1.
          1    1    1    2  502    0 -0.57454171549E+01  0.38470119502E+02  0.18877405928E+03  0.19273973480E+03  0.00000000000E+00 0. -1.
         22    1    3    3    0    0  0.36024031029E+02 -0.44888652997E+02 -0.22141431705E+03  0.22877286066E+03  0.00000000000E+00 0.  1.
         22    1    3    3    0    0 -0.19365484438E+02  0.28872118830E+02 -0.76622652246E+03  0.76701480100E+03  0.00000000000E+00 0.  1.
</event>
<event>
 7    1  0.5127424E-006  0.7886367E+02  0.7818608E-02  0.1414953E+00
          2   -1    0    0  502    0  0.00000000000E+00  0.00000000000E+00  0.20361468714E+04  0.20361468714E+04  0.00000000000E+00 0. -1.
          1   -1    0    0  501    0 -0.00000000000E+00 -0.00000000000E+00 -0.19691442592E+03  0.19691442592E+03  0.00000000000E+00 0. -1.
         25    2    1    2    0    0  0.45027936767E+02 -0.47579764977E+02  0.27747698541E+03  0.31130485562E+03  0.12500354626E+03 0.  0.
          2    1    1    2  501    0 -0.26102361865E+02 -0.30192341764E+02 -0.17685599849E+03  0.18130348865E+03  0.00000000000E+00 0. -1.
          1    1    1    2  502    0 -0.18925574902E+02  0.77772106741E+02  0.17386114586E+04  0.17404529531E+04  0.00000000000E+00 0. -1.
         22    1    3    3    0    0 -0.27388641308E+02 -0.61473194481E+02  0.13804534709E+03  0.15357606964E+03  0.00000000000E+00 0. -1.
         22    1    3    3    0    0  0.72416578075E+02  0.13893429504E+02  0.13943163832E+03  0.15772878598E+03  0.00000000000E+00 0. -1.
</event>
<event>
 7    1  0.5127424E-006  0.1686720E+03  0.7818608E-02  0.1210533E+00
          2   -1    0    0  502    0  0.00000000000E+00  0.00000000000E+00  0.11379507030E+03  0.11379507030E+03  0.00000000000E+00 0. -1.
          1   -1    0    0  501    0 -0.00000000000E+00 -0.00000000000E+00 -0.25184071549E+04  0.25184071549E+04  0.00000000000E+00 0. -1.
         25    2    1    2    0    0  0.14581466690E+03 -0.77558499713E+02 -0.42974515541E+03  0.47705805952E+03  0.12500502227E+03 0.  0.
          2    1    1    2  501    0 -0.62428102722E+02  0.16344992055E+03 -0.20197364526E+04  0.20273007874E+04  0.00000000000E+00 0. -1.
          1    1    1    2  502    0 -0.83386564179E+02 -0.85891420837E+02  0.44869523364E+02  0.12784337834E+03  0.00000000000E+00 0. -1.
         22    1    3    3    0    0  0.20541271933E+02  0.55684299653E+01  0.51299673579E+00  0.21288833471E+02  0.00000000000E+00 0. -1.
         22    1    3    3    0    0  0.12527339497E+03 -0.83126929678E+02 -0.43025815215E+03  0.45576922605E+03  0.00000000000E+00 0. -1.
</event>
<event>
 7    1  0.5127424E-006  0.8640522E+02  0.7818608E-02  0.1326450E+00
          2   -1    0    0  502    0  0.00000000000E+00  0.00000000000E+00  0.14748742626E+04  0.14748742626E+04  0.00000000000E+00 0. -1.
          1   -1    0    0  501    0 -0.00000000000E+00 -0.00000000000E+00 -0.54283106791E+02  0.54283106791E+02  0.00000000000E+00 0. -1.
         25    2    1    2    0    0  0.92911819277E+00 -0.77198928701E+02  0.12122863964E+03  0.19048668863E+03  0.12501302981E+03 0.  0.
          2    1    1    2  501    0 -0.81749492295E+02  0.46638662253E+02  0.10429421356E+03  0.14048283628E+03  0.00000000000E+00 0. -1.
          1    1    1    2  502    0  0.80820374102E+02  0.30560266447E+02  0.11950683026E+04  0.11981878445E+04  0.00000000000E+00 0. -1.
         22    1    3    3    0    0  0.70968665811E+01  0.21290536389E+02  0.80774508515E+02  0.83834203526E+02  0.00000000000E+00 0.  1.
         22    1    3    3    0    0 -0.61677483883E+01 -0.98489465089E+02  0.40454131122E+02  0.10665248510E+03  0.00000000000E+00 0.  1.
</event>
<event>
 7    1  0.5127424E-006  0.7017302E+02  0.7818608E-02  0.1434969E+00
          2   -1    0    0  502    0  0.00000000000E+00  0.00000000000E+00  0.37217728059E+03  0.37217728059E+03  0.00000000000E+00 0. -1.
          1   -1    0    0  501    0 -0.00000000000E+00 -0.00000000000E+00 -0.22849019071E+03  0.22849019071E+03  0.00000000000E+00 0. -1.
         25    2    1    2    0    0  0.58139638576E+02 -0.70634939640E+02 -0.59414528603E+02  0.16590582730E+03  0.12500058021E+03 0.  0.
          2    1    1    2  501    0 -0.38305193868E+02  0.38355716389E+01 -0.10867549400E+03  0.11529250836E+03  0.00000000000E+00 0. -1.
          1    1    1    2  502    0 -0.19834444708E+02  0.66799368001E+02  0.31177711248E+03  0.31946913564E+03  0.00000000000E+00 0. -1.
         22    1    3    3    0    0 -0.34530429637E+02 -0.35948883734E+02  0.12112886932E+01  0.49861207696E+02  0.00000000000E+00 0.  1.
         22    1    3    3    0    0  0.92670068214E+02 -0.34686055907E+02 -0.60625817296E+02  0.11604461961E+03  0.00000000000E+00 0.  1.
</event>
<event>
 7    1  0.5127424E-006  0.1040394E+03  0.7818608E-02  0.1289117E+00
          2   -1    0    0  502    0  0.00000000000E+00  0.00000000000E+00  0.97046663603E+03  0.97046663603E+03  0.00000000000E+00 0. -1.
          1   -1    0    0  501    0 -0.00000000000E+00 -0.00000000000E+00 -0.15430735786E+04  0.15430735786E+04  0.00000000000E+00 0. -1.
         25    2    1    2    0    0  0.10091270313E+03 -0.15973466610E+03 -0.21000995132E+03  0.30891274886E+03  0.12499747816E+03 0.  0.
          2    1    1    2  501    0 -0.50597780432E+02  0.87008602116E+02 -0.12795084770E+04  0.12834611700E+04  0.00000000000E+00 0. -1.
          1    1    1    2  502    0 -0.50314922701E+02  0.72726063983E+02  0.91691148572E+03  0.92116629578E+03  0.00000000000E+00 0. -1.
         22    1    3    3    0    0 -0.16241947905E+01 -0.11276586386E+03 -0.11939449388E+03  0.16423709456E+03  0.00000000000E+00 0. -1.
         22    1    3    3    0    0  0.10253689792E+03 -0.46968802242E+02 -0.90615457447E+02  0.14467565430E+03  0.00000000000E+00 0. -1.
</event>
<event>
 7    1  0.5127424E-006  0.9720645E+02  0.7818608E-02  0.1300880E+00
          2   -1    0    0  502    0  0.00000000000E+00  0.00000000000E+00  0.19217053522E+04  0.19217053522E+04  0.00000000000E+00 0. -1.
          1   -1    0    0  501    0 -0.00000000000E+00 -0.00000000000E+00 -0.10194791934E+04  0.10194791934E+04  0.00000000000E+00 0. -1.
         25    2    1    2    0    0  0.10911850345E+01  0.95882198438E+02  0.12120738449E+04  0.12222694199E+04  0.12499977090E+03 0.  0.
          2    1    1    2  501    0 -0.83308944282E+02 -0.16106337391E+02 -0.10079299960E+04  0.10114952650E+04  0.00000000000E+00 0. -1.
          1    1    1    2  502    0  0.82217759248E+02 -0.79775861048E+02  0.69808230994E+03  0.70741986076E+03  0.00000000000E+00 0. -1.
         22    1    3    3    0    0  0.40023184073E+02  0.27210423008E+01  0.64724341129E+03  0.64848538364E+03  0.00000000000E+00 0. -1.
         22    1    3    3    0    0 -0.38931999039E+02  0.93161156138E+02  0.56483043356E+03  0.57378403624E+03  0.00000000000E+00 0. -1.
</event>
<event>
 7    1  0.5127424E-006  0.1030848E+03  0.7818608E-02  0.1400322E+00
          2   -1    0    0  502    0  0.00000000000E+00  0.00000000000E+00  0.35850571677E+03  0.35850571677E+03  0.00000000000E+00 0. -1.
          1   -1    0    0  501    0 -0.00000000000E+00 -0.00000000000E+00 -0.32736853631E+03  0.32736853631E+03  0.00000000000E+00 0. -1.
         25    2    1    2    0    0 -0.90567460440E+02  0.82041522847E+02 -0.58591232049E+02  0.18436490359E+03  0.12499683532E+03 0.  0.
          2    1    1    2  501    0  0.87667856940E+02 -0.47924584889E+02 -0.19267418347E+03  0.21703861397E+03  0.00000000000E+00 0. -1.
          1    1    1    2  502    0  0.28996034994E+01 -0.34116937958E+02  0.28240259598E+03  0.28447073553E+03  0.00000000000E+00 0. -1.
         22    1    3    3    0    0 -0.16757873813E+02 -0.17827617498E+01  0.34871115985E+02  0.38729824480E+02  0.00000000000E+00 0.  1.
         22    1    3    3    0    0 -0.73809586626E+02  0.83824284597E+02 -0.93462348035E+02  0.14563507911E+03  0.00000000000E+00 0.  1.
</event>
<event>
 7    1  0.5127424E-006  0.4830484E+02  0.7818608E-02  0.1496456E+00
          2   -1    0    0  502    0  0.00000000000E+00  0.00000000000E+00  0.17053751181E+04  0.17053751181E+04  0.00000000000E+00 0. -1.
          1   -1    0    0  501    0 -0.00000000000E+00 -0.00000000000E+00 -0.36708538238E+03  0.36708538238E+03  0.00000000000E+00 0. -1.
         25    2    1    2    0    0  0.14733813690E+01 -0.69402168757E+02 -0.57389091710E+02  0.15407001408E+03  0.12500091804E+03 0.  0.
          2    1    1    2  501    0 -0.23849942063E+02  0.41328872544E+02 -0.25898153780E+03  0.26334071535E+03  0.00000000000E+00 0. -1.
          1    1    1    2  502    0  0.22376560694E+02  0.28073296213E+02  0.16546603653E+04  0.16550497711E+04  0.00000000000E+00 0. -1.
         22    1    3    3    0    0  0.42836862993E+02 -0.21274816891E+02  0.21823120027E+02  0.52572456977E+02  0.00000000000E+00 0. -1.
         22    1    3    3    0    0 -0.41363481624E+02 -0.48127351866E+02 -0.79212211736E+02  0.10149755710E+03  0.00000000000E+00 0. -1.
</event>
<event>
 7    1  0.5127424E-006  0.1370210E+03  0.7818608E-02  0.1406616E+00
          2   -1    0    0  502    0  0.00000000000E+00  0.00000000000E+00  0.51422999404E+02  0.51422999404E+02  0.00000000000E+00 0. -1.
          1   -1    0    0  501    0 -0.00000000000E+00 -0.00000000000E+00 -0.13650789496E+04  0.13650789496E+04  0.00000000000E+00 0. -1.
         25    2    1    2    0    0  0.58627361529E+02 -0.13107521404E+03 -0.31088119928E+03  0.36454131818E+03  0.12500149336E+03 0.  0.
          2    1    1    2  501    0 -0.24473596634E+02  0.14009824050E+01 -0.84306044400E+03  0.84341676051E+03  0.00000000000E+00 0. -1.
          1    1    1    2  502    0 -0.34153764895E+02  0.12967423163E+03 -0.15971430690E+03  0.20854387029E+03  0.00000000000E+00 0. -1.
         22    1    3    3    0    0  0.38771281998E+02 -0.53237683496E+02 -0.29947775277E+02  0.72348686898E+02  0.00000000000E+00 0. -1.
         22    1    3    3    0    0  0.19856079531E+02 -0.77837530543E+02 -0.28093342400E+03  0.29219263128E+03  0.00000000000E+00 0. -1.
</event>
<event>
 7    1  0.5127424E-006  0.4718651E+02  0.7818608E-02  0.1507664E+00
          2   -1    0    0  502    0  0.00000000000E+00  0.00000000000E+00  0.30175352519E+04  0.30175352519E+04  0.00000000000E+00 0. -1.
          1   -1    0    0  501    0 -0.00000000000E+00 -0.00000000000E+00 -0.82590192382E+02  0.82590192382E+02  0.00000000000E+00 0. -1.
         25    2    1    2    0    0  0.37550985790E+02 -0.71569431007E+02  0.26586980905E+03  0.30470426391E+03  0.12500269235E+03 0.  0.
          2    1    1    2  501    0 -0.17049890033E+02  0.29455820813E+02 -0.58373234128E+02  0.67570545303E+02  0.00000000000E+00 0. -1.
          1    1    1    2  502    0 -0.20501095757E+02  0.42113610194E+02  0.27274484846E+04  0.27278506351E+04  0.00000000000E+00 0. -1.
         22    1    3    3    0    0  0.34197969096E+02 -0.93504768368E+02  0.26433224320E+03  0.28246093109E+03  0.00000000000E+00 0.  1.
         22    1    3    3    0    0  0.33530166940E+01  0.21935337360E+02  0.15375658430E+01  0.22243332817E+02  0.00000000000E+00 0.  1.
</event>
<event>
 7    1  0.5127424E-006  0.6505729E+02  0.7818608E-02  0.1393110E+00
          2   -1    0    0  502    0  0.00000000000E+00  0.00000000000E+00  0.16764935115E+04  0.16764935115E+04  0.00000000000E+00 0. -1.
          1   -1    0    0  501    0 -0.00000000000E+00 -0.00000000000E+00 -0.10360540958E+04  0.10360540958E+04  0.00000000000E+00 0. -1.
         25    2    1    2    0    0  0.36195047470E+02 -0.62815176661E+02  0.12796083333E+03  0.19301352525E+03  0.12499767271E+03 0.  0.
          2    1    1    2  501    0 -0.57450270912E+02  0.93944775488E+00 -0.10019984684E+04  0.10036445321E+04  0.00000000000E+00 0. -1.
          1    1    1    2  502    0  0.21255223441E+02  0.61875728906E+02  0.15144770507E+04  0.15158895499E+04  0.00000000000E+00 0. -1.
         22    1    3    3    0    0 -0.20444722176E+02  0.27371463400E+02  0.13675573973E+02  0.36799524413E+02  0.00000000000E+00 0.  1.
         22    1    3    3    0    0  0.56639769646E+02 -0.90186640062E+02  0.11428525935E+03  0.15621400083E+03  0.00000000000E+00 0.  1.
</event>
<event>
 7    1  0.5127424E-006  0.1133096E+03  0.7818608E-02  0.1270604E+00
          2   -1    0    0  502    0  0.00000000000E+00  0.00000000000E+00  0.18122300223E+04  0.18122300223E+04  0.00000000000E+00 0. -1.
          1   -1    0    0  501    0 -0.00000000000E+00 -0.00000000000E+00 -0.59263365273E+02  0.59263365273E+02  0.00000000000E+00 0. -1.
         25    2    1    2    0    0  0.12077367460E+03  0.99922948936E+01  0.77199265722E+03  0.79138098185E+03  0.12500027679E+03 0.  0.
          2    1    1    2  501    0 -0.30994139619E+02 -0.91752236355E+02  0.53849480260E+01  0.96995397994E+02  0.00000000000E+00 0. -1.
          1    1    1    2  502    0 -0.89779534986E+02  0.81759941461E+02  0.97558905178E+03  0.98311700773E+03  0.00000000000E+00 0. -1.
         22    1    3    3    0    0  0.11378343321E+03  0.30377605787E+02  0.75446848073E+03  0.76360471255E+03  0.00000000000E+00 0. -1.
         22    1    3    3    0    0  0.69902413909E+01 -0.20385310893E+02  0.17524176494E+02  0.27776269308E+02  0.00000000000E+00 0. -1.
</event>
<event>
 7    1  0.5127424E-006  0.4835830E+02  0.7818608E-02  0.1466366E+00
          2   -1    0    0  502    0  0.00000000000E+00  0.00000000000E+00  0.14091180171E+04  0.14091180171E+04  0.00000000000E+00 0. -1.
          1   -1    0    0  501    0 -0.00000000000E+00 -0.00000000000E+00 -0.51523474006E+03  0.51523474006E+03  0.00000000000E+00 0. -1.
         25    2    1    2    0    0 -0.77239924619E+01 -0.12099100140E+02  0.62623319658E+03  0.63874721930E+03  0.12499578143E+03 0.  0.
          2    1    1    2  501    0  0.16385962642E+02 -0.41196245915E+02 -0.50707080501E+03  0.50900533568E+03  0.00000000000E+00 0. -1.
          1    1    1    2  502    0 -0.86619701806E+01  0.53295346055E+02  0.77472088548E+03  0.77660020219E+03  0.00000000000E+00 0. -1.
         22    1    3    3    0    0  0.72720873588E+01 -0.57480012128E+02  0.50687400019E+03  0.51017456534E+03  0.00000000000E+00 0.  1.
         22    1    3    3    0    0 -0.14996079821E+02  0.45380911988E+02  0.11935919639E+03  0.12857265396E+03  0.00000000000E+00 0.  1.
</event>
<event>
 7    1  0.5127424E-006  0.3710215E+02  0.7818608E-02  0.1625455E+00
          2   -1    0    0  502    0  0.00000000000E+00  0.00000000000E+00  0.78685631160E+01  0.78685631160E+01  0.00000000000E+00 0. -1.
          1   -1    0    0  501    0 -0.00000000000E+00 -0.00000000000E+00 -0.16672276414E+04  0.16672276414E+04  0.00000000000E+00 0. -1.
         25    2    1    2    0    0  0.27163552262E+02  0.17629609926E+02 -0.73959648700E+03  0.75078357701E+03  0.12499741678E+03 0.  0.
          2    1    1    2  501    0 -0.10375349998E+02  0.17825938013E+02 -0.74140284552E+03  0.74168968666E+03  0.00000000000E+00 0. -1.
          1    1    1    2  502    0 -0.16788202265E+02 -0.35455547939E+02 -0.17835974573E+03  0.18262294081E+03  0.00000000000E+00 0. -1.
         22    1    3    3    0    0  0.74751639504E+02  0.22865753675E+02 -0.37529039631E+03  0.38334518630E+03  0.00000000000E+00 0.  1.
         22    1    3    3    0    0 -0.47588087242E+02 -0.52361437484E+01 -0.36430609069E+03  0.36743839070E+03  0.00000000000E+00 0.  1.
</event>
<event>
 7    1  0.5127424E-006  0.1879250E+03  0.7818608E-02  0.1375621E+00
          2   -1    0    0  502    0  0.00000000000E+00  0.00000000000E+00  0.14093661753E+04  0.14093661753E+04  0.00000000000E+00 0. -1.
          1   -1    0    0  501    0 -0.00000000000E+00 -0.00000000000E+00 -0.57857625582E+03  0.57857625582E+03  0.00000000000E+00 0. -1.
         25    2    1    2    0    0  0.99406078819E+00 -0.20601054384E+03 -0.87108135113E+02  0.25623167980E+03  0.12500205677E+03 0.  0.
          2    1    1    2  501    0  0.12442013755E+02  0.19248430553E+02 -0.39996044296E+03  0.40061660190E+03  0.00000000000E+00 0. -1.
          1    1    1    2  502    0 -0.13436074543E+02  0.18676211329E+03  0.13178584976E+04  0.13310941494E+04  0.00000000000E+00 0. -1.
         22    1    3    3    0    0 -0.33792086035E+02 -0.79204106905E+02 -0.90199319700E+02  0.12470410139E+03  0.00000000000E+00 0. -1.
         22    1    3    3    0    0  0.34786146823E+02 -0.12680643694E+03  0.30911845869E+01  0.13152757841E+03  0.00000000000E+00 0. -1.
</event>
<event>
 7    1  0.5127424E-006  0.3842712E+02  0.7818608E-02  0.1552452E+00
          2   -1    0    0  502    0  0.00000000000E+00  0.00000000000E+00  0.52258216104E+03  0.52258216104E+03  0.00000000000E+00 0. -1.
          1   -1    0    0  501    0 -0.00000000000E+00 -0.00000000000E+00 -0.14920617273E+04  0.14920617273E+04  0.00000000000E+00 0. -1.
         25    2    1    2    0    0  0.45882824419E+02  0.31642103685E+02 -0.32241994929E+03  0.35026472820E+03  0.12499719925E+03 0.  0.
          2    1    1    2  501    0 -0.30877643122E+02  0.37140125851E+01 -0.11547846856E+04  0.11552033989E+04  0.00000000000E+00 0. -1.
          1    1    1    2  502    0 -0.15005181297E+02 -0.35356116270E+02  0.50772506868E+03  0.50917576119E+03  0.00000000000E+00 0. -1.
         22    1    3    3    0    0 -0.13663404683E+02  0.17528953425E+02 -0.13931104604E+00  0.22225486345E+02  0.00000000000E+00 0.  1.
         22    1    3    3    0    0  0.59546229101E+02  0.14113150260E+02 -0.32228063825E+03  0.32803924186E+03  0.00000000000E+00 0.  1.
</event>
<event>
 7    1  0.6235233E-006  0.7843255E+02  0.7818608E-02  0.1434723E+00
          2   -1    0    0  502    0  0.00000000000E+00  0.00000000000E+00  0.74182793101E+03  0.74182793101E+03  0.00000000000E+00 0. -1.
          1   -1    0    0  501    0 -0.00000000000E+00 -0.00000000000E+00 -0.82847859744E+03  0.82847859744E+03  0.00000000000E+00 0. -1.
         25    2    1    2    0    0  0.97486789431E+01 -0.94973663401E+02 -0.21302717194E+03  0.26480388341E+03  0.12500194879E+03 0.  0.
          2    1    1    2  501    0  0.24346734565E+02  0.24452990189E+02 -0.58691227518E+03  0.58792578696E+03  0.00000000000E+00 0. -1.
          1    1    1    2  502    0 -0.34095413508E+02  0.70520673212E+02  0.71328878070E+03  0.71757685807E+03  0.00000000000E+00 0. -1.
         22    1    3    3    0    0 -0.78751093157E+01 -0.12248429223E+03 -0.15003069061E+03  0.19383917900E+03  0.00000000000E+00 0.  1.
         22    1    3    3    0    0  0.17623788259E+02  0.27510628831E+02 -0.62996481332E+02  0.70964704407E+02  0.00000000000E+00 0.  1.
</event>
<event>
 7    1  0.5127424E-006  0.1122997E+03  0.7818608E-02  0.1322770E+00
          2   -1    0    0  502    0  0.00000000000E+00  0.00000000000E+00  0.16703186709E+04  0.16703186709E+04  0.00000000000E+00 0. -1.
          1   -1    0    0  501    0 -0.00000000000E+00 -0.00000000000E+00 -0.38878262397E+02  0.38878262397E+02  0.00000000000E+00 0. -1.
         25    2    1    2    0    0  0.66186865336E+02  0.59602218825E+02  0.69405977091E+03  0.71082844169E+03  0.12499992917E+03 0.  0.
          2    1    1    2  501    0 -0.11535894712E+03 -0.24787055319E+02  0.88855618093E+02  0.14770716184E+03  0.00000000000E+00 0. -1.
          1    1    1    2  502    0  0.49172081784E+02 -0.34815163507E+02  0.84852501955E+03  0.85066132981E+03  0.00000000000E+00 0. -1.
         22    1    3    3    0    0 -0.17600221180E+02  0.97223980631E+01  0.15738036612E+02  0.25533871741E+02  0.00000000000E+00 0. -1.
         22    1    3    3    0    0  0.83787086516E+02  0.49879820762E+02  0.67832173429E+03  0.68529456995E+03  0.00000000000E+00 0. -1.
</event>
<event>
 7    1  0.5127424E-006  0.1045495E+03  0.7818608E-02  0.1364871E+00
          2   -1    0    0  502    0  0.00000000000E+00  0.00000000000E+00  0.93635704697E+03  0.93635704697E+03  0.00000000000E+00 0. -1.
          1   -1    0    0  501    0 -0.00000000000E+00 -0.00000000000E+00 -0.19019797019E+03  0.19019797019E+03  0.00000000000E+00 0. -1.
         25    2    1    2    0    0 -0.39566560112E+02  0.51116342913E+02  0.13214454919E+03  0.19304151641E+03  0.12499780792E+03 0.  0.
          2    1    1    2  501    0 -0.26789321786E+02  0.36194218240E+02 -0.15259477279E+03  0.15910013790E+03  0.00000000000E+00 0. -1.
          1    1    1    2  502    0  0.66355881898E+02 -0.87310561153E+02  0.76660930038E+03  0.77441336286E+03  0.00000000000E+00 0. -1.
         22    1    3    3    0    0 -0.75098876755E+01  0.89444360871E+02  0.95623509136E+02  0.13115085819E+03  0.00000000000E+00 0. -1.
         22    1    3    3    0    0 -0.32056672436E+02 -0.38328017958E+02  0.36521040053E+02  0.61890658219E+02  0.00000000000E+00 0. -1.
</event>
<event>
 7    1  0.5127424E-006  0.1094154E+03  0.7818608E-02  0.1283546E+00
          2   -1    0    0  502    0  0.00000000000E+00  0.00000000000E+00  0.11849352584E+03  0.11849352584E+03  0.00000000000E+00 0. -1.
          1   -1    0    0  501    0 -0.00000000000E+00 -0.00000000000E+00 -0.19533070659E+04  0.19533070659E+04  0.00000000000E+00 0. -1.
         25    2    1    2    0    0 -0.13807592147E+03  0.11234354655E+03 -0.46018131454E+03  0.50899719088E+03  0.12500106210E+03 0.  0.
          2    1    1    2  501    0  0.52045528281E+02 -0.91078152034E+02 -0.14455191314E+04  0.14493203669E+04  0.00000000000E+00 0. -1.
          1    1    1    2  502    0  0.86030393191E+02 -0.21265394513E+02  0.70886905892E+02  0.11348303390E+03  0.00000000000E+00 0. -1.
         22    1    3    3    0    0 -0.81416530623E+02  0.47589510809E+02 -0.37950940955E+03  0.39105089814E+03  0.00000000000E+00 0. -1.
         22    1    3    3    0    0 -0.56659390849E+02  0.64754035738E+02 -0.80671904988E+02  0.11794629274E+03  0.00000000000E+00 0. -1.
</event>
<event>
 7    1  0.5127424E-006  0.7904368E+02  0.7818608E-02  0.1410013E+00
          2   -1    0    0  502    0  0.00000000000E+00  0.00000000000E+00  0.25227889207E+03  0.25227889207E+03  0.00000000000E+00 0. -1.
          1   -1    0    0  501    0 -0.00000000000E+00 -0.00000000000E+00 -0.45190726871E+03  0.45190726871E+03  0.00000000000E+00 0. -1.
         25    2    1    2    0    0 -0.12196364158E+02 -0.47857760279E+02  0.62743862888E+02  0.14832680054E+03  0.12499972364E+03 0.  0.
          2    1    1    2  501    0 -0.26149915951E+02 -0.32069674383E+02 -0.39454562514E+03  0.39670963240E+03  0.00000000000E+00 0. -1.
          1    1    1    2  502    0  0.38346280110E+02  0.79927434662E+02  0.13217338561E+03  0.15914972785E+03  0.00000000000E+00 0. -1.
         22    1    3    3    0    0  0.17168075415E+02 -0.70512447481E+02  0.79488300161E+02  0.10763427858E+03  0.00000000000E+00 0. -1.
         22    1    3    3    0    0 -0.29364439573E+02  0.22654687202E+02 -0.16744437273E+02  0.40692521958E+02  0.00000000000E+00 0. -1.
</event>
<event>
 7    1  0.5127424E-006  0.4709586E+02  0.7818608E-02  0.1562500E+00
          2   -1    0    0  502    0  0.00000000000E+00  0.00000000000E+00  0.57397456816E+02  0.57397456816E+02  0.00000000000E+00 0. -1.
          1   -1    0    0  501    0 -0.00000000000E+00 -0.00000000000E+00 -0.10604670114E+04  0.10604670114E+04  0.00000000000E+00 0. -1.
         25    2    1    2    0    0  0.13176200742E+02 -0.24738406808E+02 -0.47773690279E+03  0.49461443053E+03  0.12500114223E+03 0.  0.
          2    1    1    2  501    0 -0.10921882089E+02  0.48436321531E+02 -0.57025374148E+03  0.57241129830E+03  0.00000000000E+00 0. -1.
          1    1    1    2  502    0 -0.22543186531E+01 -0.23697914724E+02  0.44921089734E+02  0.50838739340E+02  0.00000000000E+00 0. -1.
         22    1    3    3    0    0  0.60264375549E+02  0.14277096369E+02 -0.30882570585E+03  0.31497451807E+03  0.00000000000E+00 0. -1.
         22    1    3    3    0    0 -0.47088174806E+02 -0.39015503177E+02 -0.16891119694E+03  0.17963991245E+03  0.00000000000E+00 0. -1.
</event>
<event>
 7    1  0.5127424E-006  0.3315002E+02  0.7818608E-02  0.1618942E+00
          2   -1    0    0  502    0  0.00000000000E+00  0.00000000000E+00  0.47585898046E+03  0.47585898046E+03  0.00000000000E+00 0. -1.
          1   -1    0    0  501    0 -0.00000000000E+00 -0.00000000000E+00 -0.63540553792E+03  0.63540553792E+03  0.00000000000E+00 0. -1.
         25    2    1    2    0    0 -0.21741144929E+02  0.17042639613E+01  0.22894371655E+03  0.26175559409E+03  0.12500073517E+03 0.  0.
          2    1    1    2  501    0  0.24766026414E+02  0.22084837941E+02 -0.61792953867E+03  0.61881985335E+03  0.00000000000E+00 0. -1.
          1    1    1    2  502    0 -0.30248814857E+01 -0.23789101902E+02  0.22943926467E+03  0.23068907094E+03  0.00000000000E+00 0. -1.
         22    1    3    3    0    0  0.27840780113E+02  0.49027546225E+02  0.80822690766E+02  0.98544998192E+02  0.00000000000E+00 0. -1.
         22    1    3    3    0    0 -0.49581925041E+02 -0.47323282263E+02  0.14812102578E+03  0.16321059590E+03  0.00000000000E+00 0. -1.
</event>
<event>
 7    1  0.5127424E-006  0.2541639E+02  0.7818608E-02  0.1655352E+00
          2   -1    0    0  502    0  0.00000000000E+00  0.00000000000E+00  0.13092015209E+04  0.13092015209E+04  0.00000000000E+00 0. -1.
          1   -1    0    0  501    0 -0.00000000000E+00 -0.00000000000E+00 -0.42708685371E+02  0.42708685371E+02  0.00000000000E+00 0. -1.
         25    2    1    2    0    0  0.58091255059E+00 -0.36745258340E+01  0.39015616780E+03  0.40970830658E+03  0.12500088644E+03 0.  0.
          2    1    1    2  501    0  0.24395928220E+02  0.81764721474E+01 -0.27701672532E+02  0.37807389114E+02  0.00000000000E+00 0. -1.
          1    1    1    2  502    0 -0.24976840771E+02 -0.45019463135E+01  0.90403834022E+03  0.90439451053E+03  0.00000000000E+00 0. -1.
         22    1    3    3    0    0  0.12247362498E+02 -0.27573564422E-01 -0.58085339730E+01  0.13554988579E+02  0.00000000000E+00 0.  1.
         22    1    3    3    0    0 -0.11666449948E+02 -0.36469522695E+01  0.39596470177E+03  0.39615331800E+03  0.00000000000E+00 0.  1.
</event>
<event>
 7    1  0.5827608E-006  0.5829515E+02  0.7818608E-02  0.1459979E+00
          2   -1    0    0  502    0  0.00000000000E+00  0.00000000000E+00  0.16766971381E+04  0.16766971381E+04  0.00000000000E+00 0. -1.
          1   -1    0    0  501    0 -0.00000000000E+00 -0.00000000000E+00 -0.91262767497E+03  0.91262767497E+03  0.00000000000E+00 0. -1.
         25    2    1    2    0    0 -0.41941713163E+02 -0.85782745030E+02  0.15899920830E+02  0.15808829608E+03  0.12498526004E+03 0.  0.
          2    1    1    2  501    0  0.22892002830E+02  0.30975844138E+02 -0.84056288339E+03  0.84144489281E+03  0.00000000000E+00 0. -1.
          1    1    1    2  502    0  0.19049710333E+02  0.54806900893E+02  0.15887324257E+04  0.15897916242E+04  0.00000000000E+00 0. -1.
         22    1    3    3    0    0  0.23273261263E+02  0.21034276510E+02  0.94845850875E+01  0.32772592702E+02  0.00000000000E+00 0.  1.
         22    1    3    3    0    0 -0.65214974426E+02 -0.10681702154E+03  0.64153357422E+01  0.12531570338E+03  0.00000000000E+00 0.  1.
</event>
<event>
 7    1  0.5127424E-006  0.1039806E+03  0.7818608E-02  0.1352835E+00
          2   -1    0    0  502    0  0.00000000000E+00  0.00000000000E+00  0.19196870937E+03  0.19196870937E+03  0.00000000000E+00 0. -1.
          1   -1    0    0  501    0 -0.00000000000E+00 -0.00000000000E+00 -0.66716849942E+03  0.66716849942E+03  0.00000000000E+00 0. -1.
         25    2    1    2    0    0 -0.12758733041E+02 -0.73619685940E+02 -0.19785586776E+03  0.24566868506E+03  0.12499405979E+03 0.  0.
          2    1    1    2  501    0 -0.48081413973E+02 -0.14092222302E+02 -0.42684140799E+03  0.42977203338E+03  0.00000000000E+00 0. -1.
          1    1    1    2  502    0  0.60840147014E+02  0.87711908242E+02  0.14949748570E+03  0.18369649035E+03  0.00000000000E+00 0. -1.
         22    1    3    3    0    0  0.17250886355E+02 -0.36017061952E+02 -0.19325669729E+03  0.19733973973E+03  0.00000000000E+00 0. -1.
         22    1    3    3    0    0 -0.30009619396E+02 -0.37602623988E+02 -0.45991704729E+01  0.48328945324E+02  0.00000000000E+00 0. -1.
</event>
<event>
 7    1  0.5127424E-006  0.3552881E+02  0.7818608E-02  0.1555109E+00
          2   -1    0    0  502    0  0.00000000000E+00  0.00000000000E+00  0.53101823784E+03  0.53101823784E+03  0.00000000000E+00 0. -1.
          1   -1    0    0  501    0 -0.00000000000E+00 -0.00000000000E+00 -0.20202857156E+04  0.20202857156E+04  0.00000000000E+00 0. -1.
         25    2    1    2    0    0 -0.25762487269E+02  0.59676775795E+02 -0.31119324536E+02  0.14428682953E+03  0.12500101398E+03 0.  0.
          2    1    1    2  501    0  0.22181609356E+02 -0.24528642060E+02 -0.19317831774E+04  0.19320662315E+04  0.00000000000E+00 0. -1.
          1    1    1    2  502    0  0.35808779127E+01 -0.35148133735E+02  0.47363502426E+03  0.47495089241E+03  0.00000000000E+00 0. -1.
         22    1    3    3    0    0 -0.37177480874E+02  0.85686364155E+02 -0.53931579320E+02  0.10785607695E+03  0.00000000000E+00 0. -1.
         22    1    3    3    0    0  0.11414993605E+02 -0.26009588360E+02  0.22812254784E+02  0.36430752586E+02  0.00000000000E+00 0. -1.
</event>
<event>
 7    1  0.5127424E-006  0.6347066E+02  0.7818608E-02  0.1482597E+00
          2   -1    0    0  502    0  0.00000000000E+00  0.00000000000E+00  0.26260987553E+04  0.26260987553E+04  0.00000000000E+00 0. -1.
          1   -1    0    0  501    0 -0.00000000000E+00 -0.00000000000E+00 -0.43135173809E+02  0.43135173809E+02  0.00000000000E+00 0. -1.
         25    2    1    2    0    0  0.61204089041E+02 -0.12454493147E+02  0.79495482451E+03  0.80714277151E+03  0.12500090272E+03 0.  0.
          2    1    1    2  501    0 -0.49487882984E+02  0.40173707253E+02 -0.93996691283E+01  0.64430824117E+02  0.00000000000E+00 0. -1.
          1    1    1    2  502    0 -0.11716206057E+02 -0.27719214106E+02  0.17974084261E+04  0.17976603335E+04  0.00000000000E+00 0. -1.
         22    1    3    3    0    0  0.91688053263E+02  0.18704972332E+02  0.46511654074E+03  0.47443647791E+03  0.00000000000E+00 0. -1.
         22    1    3    3    0    0 -0.30483964223E+02 -0.31159465478E+02  0.32983828377E+03  0.33270629360E+03  0.00000000000E+00 0. -1.
</event>
<event>
 7    1  0.5127424E-006  0.5119021E+02  0.7818608E-02  0.1502778E+00
          2   -1    0    0  502    0  0.00000000000E+00  0.00000000000E+00  0.17131415116E+04  0.17131415116E+04  0.00000000000E+00 0. -1.
          1   -1    0    0  501    0 -0.00000000000E+00 -0.00000000000E+00 -0.39623678470E+02  0.39623678470E+02  0.00000000000E+00 0. -1.
         25    2    1    2    0    0  0.13310146645E+02 -0.15341358168E+02  0.36850899507E+03  0.38966183132E+03  0.12499978426E+03 0.  0.
          2    1    1    2  501    0  0.19693714989E+02 -0.25773057708E+02 -0.19301202777E+02  0.37744262377E+02  0.00000000000E+00 0. -1.
          1    1    1    2  502    0 -0.33003861634E+02  0.41114415876E+02  0.13243100408E+04  0.13253590964E+04  0.00000000000E+00 0. -1.
         22    1    3    3    0    0  0.60236830350E+02  0.22665903903E+02  0.15641742144E+03  0.16914085450E+03  0.00000000000E+00 0. -1.
         22    1    3    3    0    0 -0.46926683705E+02 -0.38007262071E+02  0.21209157363E+03  0.22052097682E+03  0.00000000000E+00 0. -1.
</event>
<event>
 7    1  0.5127424E-006  0.9652555E+02  0.7818608E-02  0.1435162E+00
          2   -1    0    0  502    0  0.00000000000E+00  0.00000000000E+00  0.54441589539E+03  0.54441589539E+03  0.00000000000E+00 0. -1.
          1   -1    0    0  501    0 -0.00000000000E+00 -0.00000000000E+00 -0.58141418486E+03  0.58141418486E+03  0.00000000000E+00 0. -1.
         25    2    1    2    0    0  0.34211064783E+02 -0.81766612511E+02 -0.17324182691E+03  0.23129803751E+03  0.12501950123E+03 0.  0.
          2    1    1    2  501    0 -0.11629123555E+02  0.98229926155E+02 -0.37230247270E+03  0.38521875095E+03  0.00000000000E+00 0. -1.
          1    1    1    2  502    0 -0.22581941228E+02 -0.16463313643E+02  0.50854601014E+03  0.50931329179E+03  0.00000000000E+00 0. -1.
         22    1    3    3    0    0  0.46721821321E+02 -0.90695698741E+00 -0.13126877634E+03  0.13933859050E+03  0.00000000000E+00 0.  1.
         22    1    3    3    0    0 -0.12510756539E+02 -0.80859655524E+02 -0.41973050564E+02  0.91959447009E+02  0.00000000000E+00 0.  1.
</event>
<event>
 7    1  0.5127424E-006  0.2450196E+03  0.7818608E-02  0.1174798E+00
          2   -1    0    0  502    0  0.00000000000E+00  0.00000000000E+00  0.21252650141E+04  0.21252650141E+04  0.00000000000E+00 0. -1.
          1   -1    0    0  501    0 -0.00000000000E+00 -0.00000000000E+00 -0.26978822553E+03  0.26978822553E+03  0.00000000000E+00 0. -1.
         25    2    1    2    0    0  0.94139723701E+02  0.20936529230E+03  0.57966852852E+03  0.63587429305E+03  0.12499760158E+03 0.  0.
          2    1    1    2  501    0 -0.11170615505E+03  0.49271998248E+02 -0.21432755460E+03  0.24666231075E+03  0.00000000000E+00 0. -1.
          1    1    1    2  502    0  0.17566431345E+02 -0.25863729054E+03  0.14901358146E+04  0.15125166358E+04  0.00000000000E+00 0. -1.
         22    1    3    3    0    0  0.18554485277E+02  0.12394715030E+03  0.42881777261E+03  0.44675703363E+03  0.00000000000E+00 0. -1.
         22    1    3    3    0    0  0.75585238424E+02  0.85418141996E+02  0.15085075592E+03  0.18911725942E+03  0.00000000000E+00 0. -1.
</event>
<event>
 7    1  0.5127424E-006  0.9912051E+02  0.7818608E-02  0.1314620E+00
          2   -1    0    0  502    0  0.00000000000E+00  0.00000000000E+00  0.58399590313E+03  0.58399590313E+03  0.00000000000E+00 0. -1.
          1   -1    0    0  501    0 -0.00000000000E+00 -0.00000000000E+00 -0.21276318080E+03  0.21276318080E+03  0.00000000000E+00 0. -1.
         25    2    1    2    0    0 -0.50637452478E+02 -0.21964086276E+02  0.21758390060E+02  0.13836292143E+03  0.12499719121E+03 0.  0.
          2    1    1    2  501    0  0.70595195552E+01 -0.73086122975E+02 -0.13988783568E+03  0.15798741963E+03  0.00000000000E+00 0. -1.
          1    1    1    2  502    0  0.43577932923E+02  0.95050209251E+02  0.48936216795E+03  0.50040874287E+03  0.00000000000E+00 0. -1.
         22    1    3    3    0    0 -0.74946231987E+02  0.44812493309E+01 -0.25240431667E+02  0.79209208274E+02  0.00000000000E+00 0. -1.
         22    1    3    3    0    0  0.24308779509E+02 -0.26445335607E+02  0.46998821728E+02  0.59153713158E+02  0.00000000000E+00 0. -1.
</event>
<event>
 7    1  0.5127424E-006  0.7619500E+02  0.7818608E-02  0.1436410E+00
          2   -1    0    0  502    0  0.00000000000E+00  0.00000000000E+00  0.22115227807E+03  0.22115227807E+03  0.00000000000E+00 0. -1.
          1   -1    0    0  501    0 -0.00000000000E+00 -0.00000000000E+00 -0.10486408728E+04  0.10486408728E+04  0.00000000000E+00 0. -1.
         25    2    1    2    0    0 -0.50686031504E+02 -0.20882180316E+02  0.11204279696E+03  0.17659640918E+03  0.12501025615E+03 0.  0.
          2    1    1    2  501    0  0.52137785867E+02  0.55924315066E+02 -0.10108412911E+04  0.10137287573E+04  0.00000000000E+00 0. -1.
          1    1    1    2  502    0 -0.14517543627E+01 -0.35042134749E+02  0.71309899346E+02  0.79467984392E+02  0.00000000000E+00 0. -1.
         22    1    3    3    0    0 -0.25266121920E+02 -0.60998084026E+02  0.11093029253E+03  0.12909172310E+03  0.00000000000E+00 0. -1.
         22    1    3    3    0    0 -0.25419909584E+02  0.40115903710E+02  0.11125044239E+01  0.47504686083E+02  0.00000000000E+00 0. -1.
</event>
<event>
 7    1  0.5127424E-006  0.7972130E+02  0.7818608E-02  0.1331471E+00
          2   -1    0    0  502    0  0.00000000000E+00  0.00000000000E+00  0.59058641352E+03  0.59058641352E+03  0.00000000000E+00 0. -1.
          1   -1    0    0  501    0 -0.00000000000E+00 -0.00000000000E+00 -0.50380529205E+02  0.50380529205E+02  0.00000000000E+00 0. -1.
         25    2    1    2    0    0  0.19267991745E+02  0.42763607924E+02  0.29040200574E+03  0.31962511246E+03  0.12500762340E+03 0.  0.
          2    1    1    2  501    0  0.51283127666E+02 -0.77389231967E+02  0.47449099487E+02  0.10426154348E+03  0.00000000000E+00 0. -1.
          1    1    1    2  502    0 -0.70551119411E+02  0.34625624043E+02  0.20235477909E+03  0.21708028678E+03  0.00000000000E+00 0. -1.
         22    1    3    3    0    0  0.16140264555E+02 -0.33379489740E+02  0.28227007470E+02  0.46598953056E+02  0.00000000000E+00 0. -1.
         22    1    3    3    0    0  0.31277271898E+01  0.76143097664E+02  0.26217499827E+03  0.27302615940E+03  0.00000000000E+00 0. -1.
</event>
<event>
 7    1  0.5127424E-006  0.1139935E+03  0.7818608E-02  0.1345592E+00
          2   -1    0    0  502    0  0.00000000000E+00  0.00000000000E+00  0.68665366042E+03  0.68665366042E+03  0.00000000000E+00 0. -1.
          1   -1    0    0  501    0 -0.00000000000E+00 -0.00000000000E+00 -0.14788843834E+04  0.14788843834E+04  0.00000000000E+00 0. -1.
         25    2    1    2    0    0 -0.83816598794E+01  0.73765804561E+02  0.13083301693E+03  0.19559048068E+03  0.12500684648E+03 0.  0.
          2    1    1    2  501    0 -0.67141066374E+01  0.48154257820E+02 -0.14388811475E+04  0.14397023541E+04  0.00000000000E+00 0. -1.
          1    1    1    2  502    0  0.15095766517E+02 -0.12192006238E+03  0.51581740757E+03  0.53024520906E+03  0.00000000000E+00 0. -1.
         22    1    3    3    0    0  0.76868571505E+01  0.15335007560E+02 -0.23897233762E+02  0.29416458169E+02  0.00000000000E+00 0.  1.
         22    1    3    3    0    0 -0.16068517030E+02  0.58430797001E+02  0.15473025069E+03  0.16617402251E+03  0.00000000000E+00 0.  1.
</event>
<event>
 7    1  0.5127424E-006  0.1377371E+03  0.7818608E-02  0.1345598E+00
          2   -1    0    0  502    0  0.00000000000E+00  0.00000000000E+00  0.35981283203E+04  0.35981283203E+04  0.00000000000E+00 0. -1.
          1   -1    0    0  501    0 -0.00000000000E+00 -0.00000000000E+00 -0.23098301024E+02  0.23098301024E+02  0.00000000000E+00 0. -1.
         25    2    1    2    0    0 -0.16371037737E+01  0.14460660523E+03  0.10710300776E+04  0.10879538125E+04  0.12499728225E+03 0.  0.
          2    1    1    2  501    0 -0.36573813180E+02 -0.13200054411E+03  0.31010237945E+03  0.33900630259E+03  0.00000000000E+00 0. -1.
          1    1    1    2  502    0  0.38210916954E+02 -0.12606061125E+02  0.21938975621E+04  0.21942665062E+04  0.00000000000E+00 0. -1.
         22    1    3    3    0    0  0.45660422083E+02  0.13510917659E+03  0.77338964891E+03  0.78642921664E+03  0.00000000000E+00 0.  1.
         22    1    3    3    0    0 -0.47297525857E+02  0.94974286409E+01  0.29764042874E+03  0.30152459588E+03  0.00000000000E+00 0.  1.
</event>
<event>
 7    1  0.5127424E-006  0.3589782E+02  0.7818608E-02  0.1568750E+00
          2   -1    0    0  502    0  0.00000000000E+00  0.00000000000E+00  0.52998787535E+03  0.52998787535E+03  0.00000000000E+00 0. -1.
          1   -1    0    0  501    0 -0.00000000000E+00 -0.00000000000E+00 -0.27626799121E+03  0.27626799121E+03  0.00000000000E+00 0. -1.
         25    2    1    2    0    0 -0.64106762125E+01  0.12392202051E+02 -0.12835115129E+03  0.17969737357E+03  0.12498985795E+03 0.  0.
          2    1    1    2  501    0  0.36396888287E+02 -0.13944483875E+02 -0.11867567049E+03  0.12491235677E+03  0.00000000000E+00 0. -1.
          1    1    1    2  502    0 -0.29986212075E+02  0.15522818236E+01  0.50074670592E+03  0.50164613622E+03  0.00000000000E+00 0. -1.
         22    1    3    3    0    0 -0.20152368368E+01 -0.10219116146E+02  0.23712327982E+02  0.25899150809E+02  0.00000000000E+00 0.  1.
         22    1    3    3    0    0 -0.43954393757E+01  0.22611318197E+02 -0.15206347927E+03  0.15379822277E+03  0.00000000000E+00 0.  1.
</event>
<event>
 7    1  0.5127424E-006  0.1125938E+03  0.7818608E-02  0.1361042E+00
          2   -1    0    0  502    0  0.00000000000E+00  0.00000000000E+00  0.48514800925E+02  0.48514800925E+02  0.00000000000E+00 0. -1.
          1   -1    0    0  501    0 -0.00000000000E+00 -0.00000000000E+00 -0.10696799376E+04  0.10696799376E+04  0.00000000000E+00 0. -1.
         25    2    1    2    0    0  0.29948657854E+02 -0.82756405063E+02 -0.21717347743E+03  0.26558374635E+03  0.12499944937E+03 0.  0.
          2    1    1    2  501    0  0.13440235170E+02 -0.41028465193E+02 -0.64522977344E+03  0.64667258749E+03  0.00000000000E+00 0. -1.
          1    1    1    2  502    0 -0.43388893024E+02  0.12378487026E+03 -0.15876188585E+03  0.20593840472E+03  0.00000000000E+00 0. -1.
         22    1    3    3    0    0 -0.44252736033E+02 -0.57246426787E+02 -0.82632821201E+02  0.10983460823E+03  0.00000000000E+00 0. -1.
         22    1    3    3    0    0  0.74201393887E+02 -0.25509978276E+02 -0.13454065623E+03  0.15574913812E+03  0.00000000000E+00 0. -1.
</event>
<event>
 7    1  0.5127424E-006  0.6134645E+02  0.7818608E-02  0.1443523E+00
          2   -1    0    0  502    0  0.00000000000E+00  0.00000000000E+00  0.10706013089E+04  0.10706013089E+04  0.00000000000E+00 0. -1.
          1   -1    0    0  501    0 -0.00000000000E+00 -0.00000000000E+00 -0.60236104238E+02  0.60236104238E+02  0.00000000000E+00 0. -1.
         25    2    1    2    0    0  0.16656742258E+02 -0.16175013191E+02  0.10801973789E+03  0.16683046408E+03  0.12500024743E+03 0.  0.
          2    1    1    2  501    0  0.39647108646E+02 -0.11589471317E+02 -0.15424660599E+02  0.44092280775E+02  0.00000000000E+00 0. -1.
          1    1    1    2  502    0 -0.56303850904E+02  0.27764484508E+02  0.91777012742E+03  0.91991466833E+03  0.00000000000E+00 0. -1.
         22    1    3    3    0    0  0.36411656294E+02 -0.31062442715E+00  0.12893397374E+03  0.13397714278E+03  0.00000000000E+00 0.  1.
         22    1    3    3    0    0 -0.19754914035E+02 -0.15864388764E+02 -0.20914235853E+02  0.32853321304E+02  0.00000000000E+00 0.  1.
</event>
<event>
 7    1  0.5127424E-006  0.1400754E+03  0.7818608E-02  0.1225700E+00
          2   -1    0    0  502    0  0.00000000000E+00  0.00000000000E+00  0.21552542195E+04  0.21552542195E+04  0.00000000000E+00 0. -1.
          1   -1    0    0  501    0 -0.00000000000E+00 -0.00000000000E+00 -0.26290670124E+04  0.26290670124E+04  0.00000000000E+00 0. -1.
         25    2    1    2    0    0  0.33206785634E+02 -0.21622933646E+03 -0.73109610454E+03  0.77329420275E+03  0.12499837346E+03 0.  0.
          2    1    1    2  501    0  0.48849896518E+02  0.12477724500E+03 -0.18727074394E+04  0.18774953600E+04  0.00000000000E+00 0. -1.
          1    1    1    2  502    0 -0.82056682152E+02  0.91452091463E+02  0.21299907510E+04  0.21335316692E+04  0.00000000000E+00 0. -1.
         22    1    3    3    0    0 -0.41981511206E+02 -0.95091224811E+02 -0.23177638761E+03  0.25401787766E+03  0.00000000000E+00 0. -1.
         22    1    3    3    0    0  0.75188296840E+02 -0.12113811165E+03 -0.49931971693E+03  0.51927632509E+03  0.00000000000E+00 0. -1.
</event>
<event>
 7    1  0.5127424E-006  0.5502892E+02  0.7818608E-02  0.1454213E+00
          2   -1    0    0  502    0  0.00000000000E+00  0.00000000000E+00  0.41608753375E+03  0.41608753375E+03  0.00000000000E+00 0. -1.
          1   -1    0    0  501    0 -0.00000000000E+00 -0.00000000000E+00 -0.67002363888E+02  0.67002363888E+02  0.00000000000E+00 0. -1.
         25    2    1    2    0    0 -0.74333959172E+02 -0.48984414870E+02  0.24632940237E+03  0.29021929342E+03  0.12499621361E+03 0.  0.
          2    1    1    2  501    0  0.51532550245E+02  0.13053192464E+02 -0.24612483146E+02  0.58581258905E+02  0.00000000000E+00 0. -1.
          1    1    1    2  502    0  0.22801408927E+02  0.35931222406E+02  0.12736825064E+03  0.13428934531E+03  0.00000000000E+00 0. -1.
         22    1    3    3    0    0 -0.54908515797E+02 -0.89929885927E+02  0.14523251083E+03  0.17942912721E+03  0.00000000000E+00 0.  1.
         22    1    3    3    0    0 -0.19425443376E+02  0.40945471057E+02  0.10109689154E+03  0.11079016621E+03  0.00000000000E+00 0.  1.
</event>
<event>
 7    1  0.5127424E-006  0.9800232E+02  0.7818608E-02  0.1344541E+00
          2   -1    0    0  502    0  0.00000000000E+00  0.00000000000E+00  0.42184731629E+04  0.42184731629E+04  0.00000000000E+00 0. -1.
          1   -1    0    0  501    0 -0.00000000000E+00 -0.00000000000E+00 -0.51861693050E+02  0.51861693050E+02  0.00000000000E+00 0. -1.
         25    2    1    2    0    0  0.42799539158E+02 -0.36027793393E+01  0.22078148942E+03  0.25732036475E+03  0.12499809388E+03 0.  0.
          2    1    1    2  501    0  0.57062719990E+02  0.65416982308E+00 -0.82612413844E+01  0.57661339388E+02  0.00000000000E+00 0. -1.
          1    1    1    2  502    0 -0.99862259147E+02  0.29486095163E+01  0.39540912218E+04  0.39553531518E+04  0.00000000000E+00 0. -1.
         22    1    3    3    0    0 -0.24319442820E+02 -0.25271932866E+01 -0.21087127163E+01  0.24541162856E+02  0.00000000000E+00 0. -1.
         22    1    3    3    0    0  0.67118981978E+02 -0.10755860527E+01  0.22289020214E+03  0.23277920190E+03  0.00000000000E+00 0. -1.
</event>
<event>
 7    1  0.5127424E-006  0.9266929E+02  0.7818608E-02  0.1357738E+00
          2   -1    0    0  502    0  0.00000000000E+00  0.00000000000E+00  0.24803786451E+04  0.24803786451E+04  0.00000000000E+00 0. -1.
          1   -1    0    0  501    0 -0.00000000000E+00 -0.00000000000E+00 -0.21908202445E+02  0.21908202445E+02  0.00000000000E+00 0. -1.
         25    2    1    2    0    0 -0.28381467030E+02  0.92462093178E+02  0.17498400253E+04  0.17569631165E+04  0.12499812917E+03 0.  0.
          2    1    1    2  501    0  0.53933120265E+02  0.39819590589E+00  0.33789697457E+02  0.63644981544E+02  0.00000000000E+00 0. -1.
          1    1    1    2  502    0 -0.25551653235E+02 -0.92860289084E+02  0.67484071986E+03  0.68167874945E+03  0.00000000000E+00 0. -1.
         22    1    3    3    0    0 -0.34434024605E+02  0.64516333334E+02  0.16786938750E+04  0.16802860427E+04  0.00000000000E+00 0. -1.
         22    1    3    3    0    0  0.60525575748E+01  0.27945759844E+02  0.71146150307E+02  0.76677073823E+02  0.00000000000E+00 0. -1.
</event>
<event>
 7    1  0.5127424E-006  0.2749008E+03  0.7818608E-02  0.1216649E+00
          2   -1    0    0  502    0  0.00000000000E+00  0.00000000000E+00  0.11160028618E+04  0.11160028618E+04  0.00000000000E+00 0. -1.
          1   -1    0    0  501    0 -0.00000000000E+00 -0.00000000000E+00 -0.59021950103E+03  0.59021950103E+03  0.00000000000E+00 0. -1.
         25    2    1    2    0    0 -0.22761238626E+03  0.15880186099E+02 -0.17218400286E+03  0.31198121491E+03  0.12500147568E+03 0.  0.
          2    1    1    2  501    0 -0.49309214213E+02 -0.48030780856E+02 -0.32590423290E+03  0.33309446639E+03  0.00000000000E+00 0. -1.
          1    1    1    2  502    0  0.27692160048E+03  0.32150594758E+02  0.10238715965E+04  0.10611466815E+04  0.00000000000E+00 0. -1.
         22    1    3    3    0    0 -0.23923371101E+03  0.90354003754E+00 -0.16863120668E+03  0.29269449728E+03  0.00000000000E+00 0. -1.
         22    1    3    3    0    0  0.11621324751E+02  0.14976646061E+02 -0.35527961798E+01  0.19286717629E+02  0.00000000000E+00 0. -1.
</event>
<event>
 7    1  0.5127424E-006  0.7869725E+02  0.7818608E-02  0.1408216E+00
          2   -1    0    0  502    0  0.00000000000E+00  0.00000000000E+00  0.11550292612E+03  0.11550292612E+03  0.00000000000E+00 0. -1.
          1   -1    0    0  501    0 -0.00000000000E+00 -0.00000000000E+00 -0.46485260170E+03  0.46485260170E+03  0.00000000000E+00 0. -1.
         25    2    1    2    0    0 -0.22169232946E+01  0.48766326758E+02 -0.13896636901E+03  0.19318368105E+03  0.12500085413E+03 0.  0.
          2    1    1    2  501    0  0.30768085926E+02  0.28808200348E+02 -0.27750663913E+03  0.28068936973E+03  0.00000000000E+00 0. -1.
          1    1    1    2  502    0 -0.28551162631E+02 -0.77574527105E+02  0.67123332551E+02  0.10648247704E+03  0.00000000000E+00 0. -1.
         22    1    3    3    0    0 -0.28285590628E+02  0.32485128701E+02 -0.15332454924E+03  0.15926008798E+03  0.00000000000E+00 0. -1.
         22    1    3    3    0    0  0.26068667333E+02  0.16281198057E+02  0.14358180237E+02  0.33923593065E+02  0.00000000000E+00 0. -1.
</event>
<event>
 7    1  0.5127424E-006  0.1487370E+03  0.7818608E-02  0.1244684E+00
          2   -1    0    0  502    0  0.00000000000E+00  0.00000000000E+00  0.13450848285E+04  0.13450848285E+04  0.00000000000E+00 0. -1.
          1   -1    0    0  501    0 -0.00000000000E+00 -0.00000000000E+00 -0.26486348748E+03  0.26486348748E+03  0.00000000000E+00 0. -1.
         25    2    1    2    0    0 -0.46302842739E+02 -0.51586520854E+02  0.16611192414E+03  0.21914406237E+03  0.12500330536E+03 0.  0.
          2    1    1    2  501    0  0.13499076551E+03  0.86402722473E+02 -0.20915693053E+03  0.26350438101E+03  0.00000000000E+00 0. -1.
          1    1    1    2  502    0 -0.88687922769E+02 -0.34816201620E+02  0.11232663474E+04  0.11272998726E+04  0.00000000000E+00 0. -1.
         22    1    3    3    0    0 -0.23246187713E+02  0.16917419018E+01  0.15895104555E+03  0.16065080801E+03  0.00000000000E+00 0.  1.
         22    1    3    3    0    0 -0.23056655027E+02 -0.53278262756E+02  0.71608785888E+01  0.58493254358E+02  0.00000000000E+00 0.  1.
</event>
<event>
 7    1  0.5127424E-006  0.9442264E+02  0.7818608E-02  0.1323010E+00
          2   -1    0    0  502    0  0.00000000000E+00  0.00000000000E+00  0.70284791076E+03  0.70284791076E+03  0.00000000000E+00 0. -1.
          1   -1    0    0  501    0 -0.00000000000E+00 -0.00000000000E+00 -0.11301822027E+04  0.11301822027E+04  0.00000000000E+00 0. -1.
         25    2    1    2    0    0  0.15044138528E+03  0.30447484059E+01  0.11432509824E+03  0.22657821112E+03  0.12500230705E+03 0.  0.
          2    1    1    2  501    0 -0.86820948708E+02 -0.35681259460E+02 -0.10695900534E+04  0.10737010346E+04  0.00000000000E+00 0. -1.
          1    1    1    2  502    0 -0.63620436569E+02  0.32636511054E+02  0.52793066326E+03  0.53275086768E+03  0.00000000000E+00 0. -1.
         22    1    3    3    0    0 -0.66147808804E+01  0.21297049541E+02 -0.10957174205E+02  0.24847118783E+02  0.00000000000E+00 0. -1.
         22    1    3    3    0    0  0.15705616616E+03 -0.18252301135E+02  0.12528227245E+03  0.20173109234E+03  0.00000000000E+00 0. -1.
</event>
<event>
 7    1  0.5127424E-006  0.9362525E+02  0.7818608E-02  0.1453903E+00
          2   -1    0    0  502    0  0.00000000000E+00  0.00000000000E+00  0.16925718170E+03  0.16925718170E+03  0.00000000000E+00 0. -1.
          1   -1    0    0  501    0 -0.00000000000E+00 -0.00000000000E+00 -0.17796554608E+03  0.17796554608E+03  0.00000000000E+00 0. -1.
         25    2    1    2    0    0 -0.78377062061E+02  0.36310197047E+02  0.42703708655E+02  0.15784035709E+03  0.12501430848E+03 0.  0.
          2    1    1    2  501    0  0.73556744461E+02 -0.60911523973E+02 -0.97773893289E+02  0.13667678156E+03  0.00000000000E+00 0. -1.
          1    1    1    2  502    0  0.48203176003E+01  0.24601326926E+02  0.46361820252E+02  0.52705589129E+02  0.00000000000E+00 0. -1.
         22    1    3    3    0    0 -0.38894838173E+02  0.78594827043E+02  0.47605971123E+02  0.99781179392E+02  0.00000000000E+00 0. -1.
         22    1    3    3    0    0 -0.39482223888E+02 -0.42284629996E+02 -0.49022624676E+01  0.58059177693E+02  0.00000000000E+00 0. -1.
</event>
<event>
 7    1  0.5127424E-006  0.8031709E+02  0.7818608E-02  0.1398004E+00
          2   -1    0    0  502    0  0.00000000000E+00  0.00000000000E+00  0.49407923102E+02  0.49407923102E+02  0.00000000000E+00 0. -1.
          1   -1    0    0  501    0 -0.00000000000E+00 -0.00000000000E+00 -0.61135646042E+03  0.61135646042E+03  0.00000000000E+00 0. -1.
         25    2    1    2    0    0  0.61472849050E+02 -0.86421503577E+02 -0.13795087160E+03  0.21425481385E+03  0.12500837904E+03 0.  0.
          2    1    1    2  501    0 -0.13078674651E+02  0.42807750985E+02 -0.32455628636E+03  0.32762835392E+03  0.00000000000E+00 0. -1.
          1    1    1    2  502    0 -0.48394174399E+02  0.43613752592E+02 -0.99441379354E+02  0.11888121575E+03  0.00000000000E+00 0. -1.
         22    1    3    3    0    0  0.18512716862E+02 -0.11197973801E+03 -0.88334073568E+02  0.14382312388E+03  0.00000000000E+00 0. -1.
         22    1    3    3    0    0  0.42960132188E+02  0.25558234429E+02 -0.49616798032E+02  0.70431689968E+02  0.00000000000E+00 0. -1.
</event>
<event>
 7    1  0.5127424E-006  0.1226154E+03  0.7818608E-02  0.1323636E+00
          2   -1    0    0  502    0  0.00000000000E+00  0.00000000000E+00  0.30333281737E+03  0.30333281737E+03  0.00000000000E+00 0. -1.
          1   -1    0    0  501    0 -0.00000000000E+00 -0.00000000000E+00 -0.73372526942E+03  0.73372526942E+03  0.00000000000E+00 0. -1.
         25    2    1    2    0    0 -0.12101321203E+03  0.34219723969E+02 -0.22139342277E+03  0.28364907489E+03  0.12500625203E+03 0.  0.
          2    1    1    2  501    0 -0.34160836398E+00 -0.54755969159E+02 -0.46560416455E+03  0.46881293807E+03  0.00000000000E+00 0. -1.
          1    1    1    2  502    0  0.12135482040E+03  0.20536245190E+02  0.25660513526E+03  0.28459607384E+03  0.00000000000E+00 0. -1.
         22    1    3    3    0    0 -0.70405226244E+02 -0.40375938492E+02 -0.14185805051E+03  0.16343444798E+03  0.00000000000E+00 0.  1.
         22    1    3    3    0    0 -0.50607985789E+02  0.74595662461E+02 -0.79535372255E+02  0.12021462691E+03  0.00000000000E+00 0.  1.
</event>
<event>
 7    1  0.5127424E-006  0.6099218E+02  0.7818608E-02  0.1494026E+00
          2   -1    0    0  502    0  0.00000000000E+00  0.00000000000E+00  0.27315297779E+04  0.27315297779E+04  0.00000000000E+00 0. -1.
          1   -1    0    0  501    0 -0.00000000000E+00 -0.00000000000E+00 -0.35848995447E+03  0.35848995447E+03  0.00000000000E+00 0. -1.
         25    2    1    2    0    0  0.88119128012E+02 -0.12157142772E+02  0.14180687027E+04  0.14263429927E+04  0.12499084059E+03 0.  0.
          2    1    1    2  501    0 -0.60893323055E+02  0.24207472579E+01 -0.35157150477E+03  0.35681420905E+03  0.00000000000E+00 0. -1.
          1    1    1    2  502    0 -0.27225804957E+02  0.97363955143E+01  0.13065426255E+04  0.13068625307E+04  0.00000000000E+00 0. -1.
         22    1    3    3    0    0  0.74600004372E+01 -0.24502355783E+02  0.53274583552E+02  0.59111744164E+02  0.00000000000E+00 0. -1.
         22    1    3    3    0    0  0.80659127574E+02  0.12345213010E+02  0.13647941192E+04  0.13672312485E+04  0.00000000000E+00 0. -1.
</event>
<event>
 7    1  0.5127424E-006  0.6932783E+02  0.7818608E-02  0.1488166E+00
          2   -1    0    0  502    0  0.00000000000E+00  0.00000000000E+00  0.78692828807E+03  0.78692828807E+03  0.00000000000E+00 0. -1.
          1   -1    0    0  501    0 -0.00000000000E+00 -0.00000000000E+00 -0.21909389834E+03  0.21909389834E+03  0.00000000000E+00 0. -1.
         25    2    1    2    0    0 -0.51879307166E+00 -0.47423973328E+02  0.71834707094E+03  0.73068230404E+03  0.12499925085E+03 0.  0.
          2    1    1    2  501    0  0.18308760895E+02  0.67059614520E+02 -0.20407114771E+03  0.21558579720E+03  0.00000000000E+00 0. -1.
          1    1    1    2  502    0 -0.17789967823E+02 -0.19635641192E+02  0.53558466506E+02  0.59754085171E+02  0.00000000000E+00 0. -1.
         22    1    3    3    0    0 -0.52843807457E+01  0.12714022300E+02  0.57491817100E+03  0.57508301521E+03  0.00000000000E+00 0.  1.
         22    1    3    3    0    0  0.47655876740E+01 -0.60137995629E+02  0.14342889994E+03  0.15559928882E+03  0.00000000000E+00 0.  1.
</event>
<event>
 7    1  0.5127424E-006  0.1078975E+03  0.7818608E-02  0.1443855E+00
          2   -1    0    0  502    0  0.00000000000E+00  0.00000000000E+00  0.97875862157E+03  0.97875862157E+03  0.00000000000E+00 0. -1.
          1   -1    0    0  501    0 -0.00000000000E+00 -0.00000000000E+00 -0.80504223331E+02  0.80504223331E+02  0.00000000000E+00 0. -1.
         25    2    1    2    0    0 -0.23170462641E+02 -0.84587673666E+02  0.30009298714E+03  0.33670877896E+03  0.12500022411E+03 0.  0.
          2    1    1    2  501    0  0.31377433469E+02  0.10653042497E+03 -0.12217891800E+02  0.11172534026E+03  0.00000000000E+00 0. -1.
          1    1    1    2  502    0 -0.82069708285E+01 -0.21942751307E+02  0.61037930290E+03  0.61082872568E+03  0.00000000000E+00 0. -1.
         22    1    3    3    0    0 -0.20091594267E+02 -0.11596190961E+03  0.26230546755E+03  0.28749781730E+03  0.00000000000E+00 0. -1.
         22    1    3    3    0    0 -0.30788683734E+01  0.31374235949E+02  0.37787519583E+02  0.49210961666E+02  0.00000000000E+00 0. -1.
</event>
<event>
 7    1  0.5127424E-006  0.7031255E+02  0.7818608E-02  0.1526502E+00
          2   -1    0    0  502    0  0.00000000000E+00  0.00000000000E+00  0.30995045707E+03  0.30995045707E+03  0.00000000000E+00 0. -1.
          1   -1    0    0  501    0 -0.00000000000E+00 -0.00000000000E+00 -0.16583008074E+03  0.16583008074E+03  0.00000000000E+00 0. -1.
         25    2    1    2    0    0  0.43443837988E+02  0.36981513971E+02 -0.83446151954E+02  0.16077984562E+03  0.12502759315E+03 0.  0.
          2    1    1    2  501    0  0.19596966900E+02 -0.45887884549E+01 -0.36449155542E+02  0.41636991136E+02  0.00000000000E+00 0. -1.
          1    1    1    2  502    0 -0.63040804889E+02 -0.32392725516E+02  0.26401568382E+03  0.27336370105E+03  0.00000000000E+00 0. -1.
         22    1    3    3    0    0  0.26558237325E+02 -0.44216663490E+02 -0.16371184202E+02  0.54115330288E+02  0.00000000000E+00 0. -1.
         22    1    3    3    0    0  0.16885600663E+02  0.81198177461E+02 -0.67074967752E+02  0.10666451533E+03  0.00000000000E+00 0. -1.
</event>
<event>
 7    1  0.5127424E-006  0.1077090E+03  0.7818608E-02  0.1304220E+00
          2   -1    0    0  502    0  0.00000000000E+00  0.00000000000E+00  0.24117057257E+03  0.24117057257E+03  0.00000000000E+00 0. -1.
          1   -1    0    0  501    0 -0.00000000000E+00 -0.00000000000E+00 -0.95388590883E+03  0.95388590883E+03  0.00000000000E+00 0. -1.
         25    2    1    2    0    0 -0.12608132162E+03  0.92959678787E+02 -0.14226700881E+02  0.20091459604E+03  0.12500509725E+03 0.  0.
          2    1    1    2  501    0  0.74018204543E+02 -0.60505557629E+01 -0.82709618830E+03  0.83042363197E+03  0.00000000000E+00 0. -1.
          1    1    1    2  502    0  0.52063117082E+02 -0.86909123024E+02  0.12860755292E+03  0.16371825339E+03  0.00000000000E+00 0. -1.
         22    1    3    3    0    0 -0.11499865003E+02  0.78564469446E+02  0.17177664733E+02  0.81238506388E+02  0.00000000000E+00 0. -1.
         22    1    3    3    0    0 -0.11458145662E+03  0.14395209341E+02 -0.31404365614E+02  0.11967608965E+03  0.00000000000E+00 0. -1.
</event>
<event>
 7    1  0.5127424E-006  0.7880120E+02  0.7818608E-02  0.1401776E+00
          2   -1    0    0  502    0  0.00000000000E+00  0.00000000000E+00  0.98280901569E+02  0.98280901569E+02  0.00000000000E+00 0. -1.
          1   -1    0    0  501    0 -0.00000000000E+00 -0.00000000000E+00 -0.45267772132E+03  0.45267772132E+03  0.00000000000E+00 0. -1.
         25    2    1    2    0    0 -0.68176675614E+01 -0.39047433442E+02 -0.16255464742E+03  0.20885603692E+03  0.12500259241E+03 0.  0.
          2    1    1    2  501    0 -0.48913087110E+01 -0.44008349741E+02 -0.24089785960E+03  0.24493353896E+03  0.00000000000E+00 0. -1.
          1    1    1    2  502    0  0.11708976272E+02  0.83055783184E+02  0.49055687265E+02  0.97169047019E+02  0.00000000000E+00 0. -1.
         22    1    3    3    0    0  0.24111215010E+02 -0.74783261750E+02 -0.71358814474E+02  0.10614126121E+03  0.00000000000E+00 0.  1.
         22    1    3    3    0    0 -0.30928882572E+02  0.35735828308E+02 -0.91195832949E+02  0.10271477571E+03  0.00000000000E+00 0.  1.
</event>
<event>
 7    1  0.5127424E-006  0.5462518E+02  0.7818608E-02  0.1422457E+00
          2   -1    0    0  502    0  0.00000000000E+00  0.00000000000E+00  0.24335790655E+04  0.24335790655E+04  0.00000000000E+00 0. -1.
          1   -1    0    0  501    0 -0.00000000000E+00 -0.00000000000E+00 -0.19454985857E+03  0.19454985857E+03  0.00000000000E+00 0. -1.
         25    2    1    2    0    0 -0.50822409806E+02 -0.36044986339E+02  0.19738025545E+04  0.19787379130E+04  0.12500018360E+03 0.  0.
          2    1    1    2  501    0  0.49326597660E+02 -0.23469059452E+02 -0.18620434762E+03  0.19405145983E+03  0.00000000000E+00 0. -1.
          1    1    1    2  502    0  0.14958121453E+01  0.59514045790E+02  0.45143100001E+03  0.45533955119E+03  0.00000000000E+00 0. -1.
         22    1    3    3    0    0 -0.42260601065E+02  0.19626396763E+02  0.16034258340E+04  0.16041027270E+04  0.00000000000E+00 0.  1.
         22    1    3    3    0    0 -0.85618087407E+01 -0.55671383102E+02  0.37037672052E+03  0.37463518597E+03  0.00000000000E+00 0.  1.
</event>
<event>
 7    1  0.5127424E-006  0.2181239E+03  0.7818608E-02  0.1353414E+00
          2   -1    0    0  502    0  0.00000000000E+00  0.00000000000E+00  0.14771489336E+04  0.14771489336E+04  0.00000000000E+00 0. -1.
          1   -1    0    0  501    0 -0.00000000000E+00 -0.00000000000E+00 -0.21873170691E+03  0.21873170691E+03  0.00000000000E+00 0. -1.
         25    2    1    2    0    0 -0.36148658062E+02 -0.22432550459E+03  0.65141943428E+02  0.26739078920E+03  0.12500281542E+03 0.  0.
          2    1    1    2  501    0  0.22603467635E+02  0.73475521719E+01 -0.10728416232E+03  0.10988537099E+03  0.00000000000E+00 0. -1.
          1    1    1    2  502    0  0.13545190427E+02  0.21697795242E+03  0.13005594456E+04  0.13186044804E+04  0.00000000000E+00 0. -1.
         22    1    3    3    0    0 -0.56147275041E+02 -0.10968380492E+03 -0.17781407135E+02  0.12449591157E+03  0.00000000000E+00 0. -1.
         22    1    3    3    0    0  0.19998616978E+02 -0.11464169967E+03  0.82923350564E+02  0.14289487763E+03  0.00000000000E+00 0. -1.
</event>
<event>
 7    1  0.5127424E-006  0.4320077E+02  0.7818608E-02  0.1515231E+00
          2   -1    0    0  502    0  0.00000000000E+00  0.00000000000E+00  0.38678020000E+03  0.38678020000E+03  0.00000000000E+00 0. -1.
          1   -1    0    0  501    0 -0.00000000000E+00 -0.00000000000E+00 -0.21150059492E+04  0.21150059492E+04  0.00000000000E+00 0. -1.
         25    2    1    2    0    0  0.23512617586E+02 -0.38030413851E+02  0.27304871086E+03  0.30361214070E+03  0.12500231163E+03 0.  0.
          2    1    1    2  501    0 -0.34627860005E+02 -0.69551939952E+01 -0.20941143973E+04  0.20944122260E+04  0.00000000000E+00 0. -1.
          1    1    1    2  502    0  0.11115242420E+02  0.44985607846E+02  0.92839937335E+02  0.10376178242E+03  0.00000000000E+00 0. -1.
         22    1    3    3    0    0 -0.24489368921E+02  0.27806943122E+02  0.16016226405E+03  0.16439253663E+03  0.00000000000E+00 0. -1.
         22    1    3    3    0    0  0.48001986507E+02 -0.65837356972E+02  0.11288644681E+03  0.13921960406E+03  0.00000000000E+00 0. -1.
</event>
<event>
 7    1  0.5127424E-006  0.5369017E+02  0.7818608E-02  0.1453690E+00
          2   -1    0    0  502    0  0.00000000000E+00  0.00000000000E+00  0.11205064141E+03  0.11205064141E+03  0.00000000000E+00 0. -1.
          1   -1    0    0  501    0 -0.00000000000E+00 -0.00000000000E+00 -0.14731092096E+04  0.14731092096E+04  0.00000000000E+00 0. -1.
         25    2    1    2    0    0 -0.64046438628E+02  0.57996705803E+02 -0.78209516401E+02  0.17090299494E+03  0.12500216413E+03 0.  0.
          2    1    1    2  501    0  0.42301143292E+02 -0.11298562174E+02 -0.13380428250E+04  0.13387589946E+04  0.00000000000E+00 0. -1.
          1    1    1    2  502    0  0.21745295336E+02 -0.46698143629E+02  0.55193773169E+02  0.75497861455E+02  0.00000000000E+00 0. -1.
         22    1    3    3    0    0  0.34336725980E+02  0.95983279962E+01  0.95755415601E+00  0.35665887923E+02  0.00000000000E+00 0. -1.
         22    1    3    3    0    0 -0.98383164608E+02  0.48398377807E+02 -0.79167070557E+02  0.13523710701E+03  0.00000000000E+00 0. -1.
</event>
<event>
 7    1  0.5127424E-006  0.9610262E+02  0.7818608E-02  0.1304542E+00
          2   -1    0    0  502    0  0.00000000000E+00  0.00000000000E+00  0.15029320316E+04  0.15029320316E+04  0.00000000000E+00 0. -1.
          1   -1    0    0  501    0 -0.00000000000E+00 -0.00000000000E+00 -0.20961209836E+03  0.20961209836E+03  0.00000000000E+00 0. -1.
         25    2    1    2    0    0  0.40041875485E+02 -0.51999080977E+02  0.54818795533E+02  0.15148639610E+03  0.12504307916E+03 0.  0.
          2    1    1    2  501    0  0.57919910243E+02  0.59434860877E+02 -0.14874886373E+03  0.17033332954E+03  0.00000000000E+00 0. -1.
          1    1    1    2  502    0 -0.97961785729E+02 -0.74357798994E+01  0.13872500014E+04  0.13907244043E+04  0.00000000000E+00 0. -1.
         22    1    3    3    0    0 -0.16904836729E+02 -0.69377762678E+02  0.12855194654E+01  0.71419185232E+02  0.00000000000E+00 0. -1.
         22    1    3    3    0    0  0.56946712214E+02  0.17378681700E+02  0.53533276067E+02  0.80067210868E+02  0.00000000000E+00 0. -1.
</event>
<event>
 7    1  0.5127424E-006  0.2009359E+03  0.7818608E-02  0.1237219E+00
          2   -1    0    0  502    0  0.00000000000E+00  0.00000000000E+00  0.69686116922E+03  0.69686116922E+03  0.00000000000E+00 0. -1.
          1   -1    0    0  501    0 -0.00000000000E+00 -0.00000000000E+00 -0.31566779041E+03  0.31566779041E+03  0.00000000000E+00 0. -1.
         25    2    1    2    0    0 -0.14308377615E+03  0.65976767037E+02  0.20180040646E+03  0.28489725284E+03  0.12496855540E+03 0.  0.
          2    1    1    2  501    0 -0.73955464822E+02  0.17815926057E+02 -0.23795423155E+03  0.24981800237E+03  0.00000000000E+00 0. -1.
          1    1    1    2  502    0  0.21703924098E+03 -0.83792693094E+02  0.41734720389E+03  0.47781370442E+03  0.00000000000E+00 0. -1.
         22    1    3    3    0    0  0.11697805855E+02 -0.12691337489E+01  0.69425098629E+02  0.70415152360E+02  0.00000000000E+00 0.  1.
         22    1    3    3    0    0 -0.15478158201E+03  0.67245900786E+02  0.13237530784E+03  0.21448210048E+03  0.00000000000E+00 0.  1.
</event>
<event>
 7    1  0.5127424E-006  0.3500890E+02  0.7818608E-02  0.1576299E+00
          2   -1    0    0  502    0  0.00000000000E+00  0.00000000000E+00  0.50356741581E+02  0.50356741581E+02  0.00000000000E+00 0. -1.
          1   -1    0    0  501    0 -0.00000000000E+00 -0.00000000000E+00 -0.10435288178E+04  0.10435288178E+04  0.00000000000E+00 0. -1.
         25    2    1    2    0    0  0.14009794303E-01  0.13412256404E+02 -0.60227861279E+03  0.61525863362E+03  0.12499507991E+03 0.  0.
          2    1    1    2  501    0 -0.24881037392E+02 -0.29046160339E+02 -0.42889489074E+03  0.43059676352E+03  0.00000000000E+00 0. -1.
          1    1    1    2  502    0  0.24867027598E+02  0.15633903936E+02  0.38001427271E+02  0.48030162278E+02  0.00000000000E+00 0. -1.
         22    1    3    3    0    0 -0.40369476754E+02 -0.38458969107E+02 -0.35680512878E+03  0.36113527505E+03  0.00000000000E+00 0.  1.
         22    1    3    3    0    0  0.40383486548E+02  0.51871225511E+02 -0.24547348401E+03  0.25412335857E+03  0.00000000000E+00 0.  1.
</event>
<event>
 7    1  0.5127424E-006  0.7586296E+02  0.7818608E-02  0.1351958E+00
          2   -1    0    0  502    0  0.00000000000E+00  0.00000000000E+00  0.14656971571E+04  0.14656971571E+04  0.00000000000E+00 0. -1.
          1   -1    0    0  501    0 -0.00000000000E+00 -0.00000000000E+00 -0.42085077237E+03  0.42085077237E+03  0.00000000000E+00 0. -1.
         25    2    1    2    0    0 -0.71148392045E+02 -0.38071488830E+02 -0.29233668059E+02  0.15162944839E+03  0.12500140126E+03 0.  0.
          2    1    1    2  501    0  0.13590097667E+02  0.76465392647E+02 -0.32498886736E+03  0.33413980747E+03  0.00000000000E+00 0. -1.
          1    1    1    2  502    0  0.57558294378E+02 -0.38393903816E+02  0.13990689202E+04  0.14007786736E+04  0.00000000000E+00 0. -1.
         22    1    3    3    0    0  0.23332613082E+02 -0.21895251238E+02 -0.44247978862E+02  0.54604912722E+02  0.00000000000E+00 0. -1.
         22    1    3    3    0    0 -0.94481005126E+02 -0.16176237592E+02  0.15014310803E+02  0.97024535666E+02  0.00000000000E+00 0. -1.
</event>
<event>
 7    1  0.5127424E-006  0.9493108E+02  0.7818608E-02  0.1475994E+00
          2   -1    0    0  502    0  0.00000000000E+00  0.00000000000E+00  0.52898568415E+03  0.52898568415E+03  0.00000000000E+00 0. -1.
          1   -1    0    0  501    0 -0.00000000000E+00 -0.00000000000E+00 -0.58829443178E+03  0.58829443178E+03  0.00000000000E+00 0. -1.
         25    2    1    2    0    0 -0.29996493732E+02 -0.78932620520E+02  0.13807038130E+03  0.20449709230E+03  0.12500192938E+03 0.  0.
          2    1    1    2  501    0  0.12747844507E+02 -0.16791196396E+02 -0.54826269582E+03  0.54866787353E+03  0.00000000000E+00 0. -1.
          1    1    1    2  502    0  0.17248649225E+02  0.95723816917E+02  0.35088356688E+03  0.36411515010E+03  0.00000000000E+00 0. -1.
         22    1    3    3    0    0 -0.33690851635E+02 -0.11138937186E+03  0.12002209120E+03  0.16717645774E+03  0.00000000000E+00 0. -1.
         22    1    3    3    0    0  0.36943579030E+01  0.32456751343E+02  0.18048290104E+02  0.37320634557E+02  0.00000000000E+00 0. -1.
</event>
<event>
 7    1  0.5127424E-006  0.1420259E+03  0.7818608E-02  0.1242414E+00
          2   -1    0    0  502    0  0.00000000000E+00  0.00000000000E+00  0.13189643152E+04  0.13189643152E+04  0.00000000000E+00 0. -1.
          1   -1    0    0  501    0 -0.00000000000E+00 -0.00000000000E+00 -0.58428879942E+03  0.58428879942E+03  0.00000000000E+00 0. -1.
         25    2    1    2    0    0  0.50413977113E+02  0.29459119504E+02  0.28655204358E+03  0.31803509244E+03  0.12499935013E+03 0.  0.
          2    1    1    2  501    0 -0.62202694548E+02 -0.13086901420E+03 -0.55668623074E+03  0.57523511157E+03  0.00000000000E+00 0. -1.
          1    1    1    2  502    0  0.11788717435E+02  0.10140989470E+03  0.10048097030E+04  0.10099829106E+04  0.00000000000E+00 0. -1.
         22    1    3    3    0    0 -0.60313655371E+01 -0.71834123362E+01 -0.10136321019E+02  0.13810278304E+02  0.00000000000E+00 0. -1.
         22    1    3    3    0    0  0.56445342650E+02  0.36642531840E+02  0.29668836460E+03  0.30422481413E+03  0.00000000000E+00 0. -1.
</event>
<event>
 7    1  0.5127424E-006  0.1505319E+03  0.7818608E-02  0.1224189E+00
          2   -1    0    0  502    0  0.00000000000E+00  0.00000000000E+00  0.13844778589E+04  0.13844778589E+04  0.00000000000E+00 0. -1.
          1   -1    0    0  501    0 -0.00000000000E+00 -0.00000000000E+00 -0.76451392586E+03  0.76451392586E+03  0.00000000000E+00 0. -1.
         25    2    1    2    0    0  0.12677088589E+03 -0.17422217739E+03 -0.39772041789E+03  0.46928719060E+03  0.12499884740E+03 0.  0.
          2    1    1    2  501    0 -0.11350876298E+03  0.24613186526E+02 -0.31647636966E+03  0.33711621257E+03  0.00000000000E+00 0. -1.
          1    1    1    2  502    0 -0.13262122913E+02  0.14960899086E+03  0.13341607206E+04  0.13425883816E+04  0.00000000000E+00 0. -1.
         22    1    3    3    0    0  0.59460578997E+02 -0.16448474397E+03 -0.23514778364E+03  0.29306189040E+03  0.00000000000E+00 0.  1.
         22    1    3    3    0    0  0.67310306892E+02 -0.97374334151E+01 -0.16257263425E+03  0.17622530020E+03  0.00000000000E+00 0.  1.
</event>
<event>
 7    1  0.5127424E-006  0.5396448E+02  0.7818608E-02  0.1453678E+00
          2   -1    0    0  502    0  0.00000000000E+00  0.00000000000E+00  0.16255179451E+04  0.16255179451E+04  0.00000000000E+00 0. -1.
          1   -1    0    0  501    0 -0.00000000000E+00 -0.00000000000E+00 -0.23449719828E+03  0.23449719828E+03  0.00000000000E+00 0. -1.
         25    2    1    2    0    0 -0.38507123284E+02  0.73880557806E+02  0.71647318526E+02  0.16643061263E+03  0.12499870080E+03 0.  0.
          2    1    1    2  501    0  0.38641651747E+02 -0.20118592476E+02 -0.18408264070E+03  0.18916752792E+03  0.00000000000E+00 0. -1.
          1    1    1    2  502    0 -0.13452846271E+00 -0.53761965331E+02  0.15034560690E+04  0.15044170028E+04  0.00000000000E+00 0. -1.
         22    1    3    3    0    0 -0.68212517074E+02  0.89195149611E+02  0.71290906719E+02  0.13300795307E+03  0.00000000000E+00 0.  1.
         22    1    3    3    0    0  0.29705393790E+02 -0.15314591804E+02  0.35641180690E+00  0.33422659555E+02  0.00000000000E+00 0.  1.
</event>
<event>
 7    1  0.5127424E-006  0.9279840E+02  0.7818608E-02  0.1314752E+00
          2   -1    0    0  502    0  0.00000000000E+00  0.00000000000E+00  0.67957811845E+03  0.67957811845E+03  0.00000000000E+00 0. -1.
          1   -1    0    0  501    0 -0.00000000000E+00 -0.00000000000E+00 -0.55679852226E+03  0.55679852226E+03  0.00000000000E+00 0. -1.
         25    2    1    2    0    0 -0.49450307271E+02 -0.24491655520E+02 -0.83846590334E+01  0.13689699077E+03  0.12500123797E+03 0.  0.
          2    1    1    2  501    0  0.86569536204E+02 -0.44491248556E+02 -0.47672701261E+03  0.48656181555E+03  0.00000000000E+00 0. -1.
          1    1    1    2  502    0 -0.37119228933E+02  0.68982904075E+02  0.60789126783E+03  0.61291783440E+03  0.00000000000E+00 0. -1.
         22    1    3    3    0    0 -0.30123582506E+02 -0.63960578397E+02  0.31639273192E+02  0.77455983759E+02  0.00000000000E+00 0.  1.
         22    1    3    3    0    0 -0.19326724765E+02  0.39468922878E+02 -0.40023932225E+02  0.59441007007E+02  0.00000000000E+00 0.  1.
</event>
<event>
 7    1  0.5127424E-006  0.2628552E+03  0.7818608E-02  0.1174321E+00
          2   -1    0    0  502    0  0.00000000000E+00  0.00000000000E+00  0.18696947794E+04  0.18696947794E+04  0.00000000000E+00 0. -1.
          1   -1    0    0  501    0 -0.00000000000E+00 -0.00000000000E+00 -0.18970918111E+03  0.18970918111E+03  0.00000000000E+00 0. -1.
         25    2    1    2    0    0  0.26934979582E+03  0.19111412483E+03  0.41441148593E+03  0.54445990170E+03  0.12500313464E+03 0.  0.
          2    1    1    2  501    0 -0.23354068942E+03 -0.82438301420E+02  0.34947994832E+01  0.24768839452E+03  0.00000000000E+00 0. -1.
          1    1    1    2  502    0 -0.35809106395E+02 -0.10867582341E+03  0.12620793128E+04  0.12672556643E+04  0.00000000000E+00 0. -1.
         22    1    3    3    0    0  0.11064897398E+03  0.10716575739E+03  0.28217146390E+03  0.32147850634E+03  0.00000000000E+00 0.  1.
         22    1    3    3    0    0  0.15870082184E+03  0.83948367442E+02  0.13224002203E+03  0.22298139535E+03  0.00000000000E+00 0.  1.
</event>
<event>
 7    1  0.5127424E-006  0.5248228E+02  0.7818608E-02  0.1466722E+00
          2   -1    0    0  502    0  0.00000000000E+00  0.00000000000E+00  0.15015466519E+03  0.15015466519E+03  0.00000000000E+00 0. -1.
          1   -1    0    0  501    0 -0.00000000000E+00 -0.00000000000E+00 -0.62272081498E+03  0.62272081498E+03  0.00000000000E+00 0. -1.
         25    2    1    2    0    0  0.17698391599E+02  0.44242021363E+01 -0.37999756362E+03  0.40044435496E+03  0.12499890574E+03 0.  0.
          2    1    1    2  501    0  0.13378620645E+02  0.38488367706E+02 -0.22559292000E+03  0.22924333686E+03  0.00000000000E+00 0. -1.
          1    1    1    2  502    0 -0.31077012245E+02 -0.42912569842E+02  0.13302433383E+03  0.14318778835E+03  0.00000000000E+00 0. -1.
         22    1    3    3    0    0 -0.43014310286E+02  0.37389276043E+02 -0.15943218592E+03  0.16931276018E+03  0.00000000000E+00 0.  1.
         22    1    3    3    0    0  0.60712701885E+02 -0.32965073907E+02 -0.22056537770E+03  0.23113159479E+03  0.00000000000E+00 0.  1.
</event>
<event>
 7    1  0.5127424E-006  0.4814473E+02  0.7818608E-02  0.1474855E+00
          2   -1    0    0  502    0  0.00000000000E+00  0.00000000000E+00  0.31627274416E+03  0.31627274416E+03  0.00000000000E+00 0. -1.
          1   -1    0    0  501    0 -0.00000000000E+00 -0.00000000000E+00 -0.76849462792E+02  0.76849462792E+02  0.00000000000E+00 0. -1.
         25    2    1    2    0    0 -0.33358897588E+02 -0.20301328820E+02  0.11457517242E+03  0.17400135527E+03  0.12499616595E+03 0.  0.
          2    1    1    2  501    0  0.46679454829E+02 -0.19432600016E+02 -0.29938525911E+02  0.58761490623E+02  0.00000000000E+00 0. -1.
          1    1    1    2  502    0 -0.13320557242E+02  0.39733928836E+02  0.15478663486E+03  0.16035936106E+03  0.00000000000E+00 0. -1.
         22    1    3    3    0    0 -0.42322075240E+02 -0.46916779303E+02  0.78829900098E+01  0.63674828341E+02  0.00000000000E+00 0.  1.
         22    1    3    3    0    0  0.89631776521E+01  0.26615450483E+02  0.10669218241E+03  0.11032652693E+03  0.00000000000E+00 0.  1.
</event>
<event>
 7    1  0.5127424E-006  0.1314769E+03  0.7818608E-02  0.1362546E+00
          2   -1    0    0  502    0  0.00000000000E+00  0.00000000000E+00  0.28909567384E+03  0.28909567384E+03  0.00000000000E+00 0. -1.
          1   -1    0    0  501    0 -0.00000000000E+00 -0.00000000000E+00 -0.10205388275E+04  0.10205388275E+04  0.00000000000E+00 0. -1.
         25    2    1    2    0    0 -0.14290662492E+03  0.43890752532E+02 -0.38962455785E+03  0.43564134195E+03  0.12500952419E+03 0.  0.
          2    1    1    2  501    0  0.12647313543E+03 -0.11288260070E+02 -0.59997687190E+03  0.61326595015E+03  0.00000000000E+00 0. -1.
          1    1    1    2  502    0  0.16433489489E+02 -0.32602492462E+02  0.25815827612E+03  0.26072720921E+03  0.00000000000E+00 0. -1.
         22    1    3    3    0    0  0.22842274312E+02  0.75145397485E+01 -0.34467538555E+02  0.42026765488E+02  0.00000000000E+00 0. -1.
         22    1    3    3    0    0 -0.16574889923E+03  0.36376212784E+02 -0.35515701929E+03  0.39361457646E+03  0.00000000000E+00 0. -1.
</event>
<event>
 7    1  0.5127424E-006  0.7921384E+02  0.7818608E-02  0.1456016E+00
          2   -1    0    0  502    0  0.00000000000E+00  0.00000000000E+00  0.10717419235E+04  0.10717419235E+04  0.00000000000E+00 0. -1.
          1   -1    0    0  501    0 -0.00000000000E+00 -0.00000000000E+00 -0.23230738577E+03  0.23230738577E+03  0.00000000000E+00 0. -1.
         25    2    1    2    0    0 -0.95586731696E+01  0.51687657365E+02 -0.90223282553E+02  0.16286697777E+03  0.12498971788E+03 0.  0.
          2    1    1    2  501    0 -0.18070928021E+02  0.22905192591E+02 -0.10218985374E+03  0.10627310335E+03  0.00000000000E+00 0. -1.
          1    1    1    2  502    0  0.27629601190E+02 -0.74592849956E+02  0.10318476740E+04  0.10349092281E+04  0.00000000000E+00 0. -1.
         22    1    3    3    0    0 -0.19831685544E+02 -0.32008215054E+02 -0.64535463428E+02  0.74717117332E+02  0.00000000000E+00 0.  1.
         22    1    3    3    0    0  0.10273012374E+02  0.83695872419E+02 -0.25687819124E+02  0.88149860434E+02  0.00000000000E+00 0.  1.
</event>
<event>
 7    1  0.5127424E-006  0.5984656E+02  0.7818608E-02  0.1440883E+00
          2   -1    0    0  502    0  0.00000000000E+00  0.00000000000E+00  0.11470863513E+03  0.11470863513E+03  0.00000000000E+00 0. -1.
          1   -1    0    0  501    0 -0.00000000000E+00 -0.00000000000E+00 -0.35531353389E+03  0.35531353389E+03  0.00000000000E+00 0. -1.
         25    2    1    2    0    0 -0.96039948472E+02 -0.27547122746E+02 -0.26966281301E+01  0.16004779066E+03  0.12500203126E+03 0.  0.
          2    1    1    2  501    0  0.57724656997E+02  0.76307871770E+01 -0.25645174190E+03  0.26297882208E+03  0.00000000000E+00 0. -1.
          1    1    1    2  502    0  0.38315291475E+02  0.19916335569E+02  0.18543471268E+02  0.46995556279E+02  0.00000000000E+00 0. -1.
         22    1    3    3    0    0 -0.69515045804E+02 -0.43257242540E+02 -0.55493621345E+02  0.98909416312E+02  0.00000000000E+00 0. -1.
         22    1    3    3    0    0 -0.26524902668E+02  0.15710119794E+02  0.52796993215E+02  0.61138374348E+02  0.00000000000E+00 0. -1.
</event>
<event>
 7    1  0.5127424E-006  0.6204125E+02  0.7818608E-02  0.1464998E+00
          2   -1    0    0  502    0  0.00000000000E+00  0.00000000000E+00  0.13411452078E+03  0.13411452078E+03  0.00000000000E+00 0. -1.
          1   -1    0    0  501    0 -0.00000000000E+00 -0.00000000000E+00 -0.26161109359E+03  0.26161109359E+03  0.00000000000E+00 0. -1.
         25    2    1    2    0    0  0.54335821261E+02 -0.46253250907E+02  0.13984069426E+02  0.14461379614E+03  0.12500340454E+03 0.  0.
          2    1    1    2  501    0  0.59220321677E+01  0.34393608622E+02 -0.17683680438E+03  0.18024773552E+03  0.00000000000E+00 0. -1.
          1    1    1    2  502    0 -0.60257853429E+02  0.11859642285E+02  0.35356162140E+02  0.70864082696E+02  0.00000000000E+00 0. -1.
         22    1    3    3    0    0  0.31708253174E+02 -0.57091920293E+02  0.62246571030E+02  0.90219378667E+02  0.00000000000E+00 0.  1.
         22    1    3    3    0    0  0.22627568087E+02  0.10838669386E+02 -0.48262501604E+02  0.54394417477E+02  0.00000000000E+00 0.  1.
</event>
<event>
 7    1  0.5127424E-006  0.8691742E+02  0.7818608E-02  0.1318561E+00
          2   -1    0    0  502    0  0.00000000000E+00  0.00000000000E+00  0.34104294564E+03  0.34104294564E+03  0.00000000000E+00 0. -1.
          1   -1    0    0  501    0 -0.00000000000E+00 -0.00000000000E+00 -0.40929855390E+03  0.40929855390E+03  0.00000000000E+00 0. -1.
         25    2    1    2    0    0 -0.74360286780E+00 -0.48671666301E+02  0.79608651023E+02  0.15598679590E+03  0.12499943652E+03 0.  0.
          2    1    1    2  501    0 -0.86625321670E+02  0.71198319025E+01 -0.35513508259E+03  0.36561669170E+03  0.00000000000E+00 0. -1.
          1    1    1    2  502    0  0.87368924538E+02  0.41551834398E+02  0.20727082330E+03  0.22873801195E+03  0.00000000000E+00 0. -1.
         22    1    3    3    0    0  0.30784846976E+02 -0.52381019267E+02  0.10088688892E+03  0.11776944569E+03  0.00000000000E+00 0. -1.
         22    1    3    3    0    0 -0.31528449844E+02  0.37093529664E+01 -0.21278237895E+02  0.38217350207E+02  0.00000000000E+00 0. -1.
</event>
<event>
 7    1  0.5127424E-006  0.9459917E+02  0.7818608E-02  0.1300042E+00
          2   -1    0    0  502    0  0.00000000000E+00  0.00000000000E+00  0.10099831472E+04  0.10099831472E+04  0.00000000000E+00 0. -1.
          1   -1    0    0  501    0 -0.00000000000E+00 -0.00000000000E+00 -0.82890705037E+02  0.82890705037E+02  0.00000000000E+00 0. -1.
         25    2    1    2    0    0  0.39309805856E+01 -0.35749422743E+01  0.26226463392E+03  0.29057913315E+03  0.12500104640E+03 0.  0.
          2    1    1    2  501    0 -0.96865802173E+02  0.21241910567E+02 -0.27995054132E+02  0.10304331832E+03  0.00000000000E+00 0. -1.
          1    1    1    2  502    0  0.92934821587E+02 -0.17666968292E+02  0.69282286238E+03  0.69925140076E+03  0.00000000000E+00 0. -1.
         22    1    3    3    0    0 -0.49705062384E+02 -0.10214276178E+02  0.48881020063E+02  0.70457638244E+02  0.00000000000E+00 0.  1.
         22    1    3    3    0    0  0.53636042969E+02  0.66393339041E+01  0.21338361385E+03  0.22012149491E+03  0.00000000000E+00 0.  1.
</event>
<event>
 7    1  0.5127424E-006  0.8698678E+02  0.7818608E-02  0.1490580E+00
          2   -1    0    0  502    0  0.00000000000E+00  0.00000000000E+00  0.96496685404E+03  0.96496685404E+03  0.00000000000E+00 0. -1.
          1   -1    0    0  501    0 -0.00000000000E+00 -0.00000000000E+00 -0.27782850210E+04  0.27782850210E+04  0.00000000000E+00 0. -1.
         25    2    1    2    0    0  0.10085666489E+03  0.22413836271E+02  0.98903265943E+02  0.18994990615E+03  0.12499865568E+03 0.  0.
          2    1    1    2  501    0 -0.86604939315E+02 -0.73121562573E+01 -0.27319391400E+04  0.27333213034E+04  0.00000000000E+00 0. -1.
          1    1    1    2  502    0 -0.14251725570E+02 -0.15101680014E+02  0.81971770710E+03  0.81998066547E+03  0.00000000000E+00 0. -1.
         22    1    3    3    0    0  0.11348767182E+03  0.10073819066E+02  0.28607987511E+02  0.11747063648E+03  0.00000000000E+00 0.  1.
         22    1    3    3    0    0 -0.12631006937E+02  0.12340017205E+02  0.70295278432E+02  0.72479269662E+02  0.00000000000E+00 0.  1.
</event>
<event>
 7    1  0.5127424E-006  0.9028080E+02  0.7818608E-02  0.1450563E+00
          2   -1    0    0  502    0  0.00000000000E+00  0.00000000000E+00  0.21633137402E+02  0.21633137402E+02  0.00000000000E+00 0. -1.
          1   -1    0    0  501    0 -0.00000000000E+00 -0.00000000000E+00 -0.18252947281E+04  0.18252947281E+04  0.00000000000E+00 0. -1.
         25    2    1    2    0    0 -0.18265206609E+02  0.64486845896E+02 -0.95661910782E+03  0.96707652108E+03  0.12499883648E+03 0.  0.
          2    1    1    2  501    0 -0.99460631180E+01  0.24717367436E+02 -0.72779310366E+03  0.72828062872E+03  0.00000000000E+00 0. -1.
          1    1    1    2  502    0  0.28211269727E+02 -0.89204213332E+02 -0.11924937923E+03  0.15157071572E+03  0.00000000000E+00 0. -1.
         22    1    3    3    0    0 -0.49481089725E+02  0.58070736438E+02 -0.88960876915E+03  0.89287420772E+03  0.00000000000E+00 0.  1.
         22    1    3    3    0    0  0.31215883116E+02  0.64161094583E+01 -0.67010338670E+02  0.74202313360E+02  0.00000000000E+00 0.  1.
</event>
<event>
 7    1  0.5127424E-006  0.6718099E+02  0.7818608E-02  0.1380879E+00
          2   -1    0    0  502    0  0.00000000000E+00  0.00000000000E+00  0.74588758625E+03  0.74588758625E+03  0.00000000000E+00 0. -1.
          1   -1    0    0  501    0 -0.00000000000E+00 -0.00000000000E+00 -0.33176584516E+02  0.33176584516E+02  0.00000000000E+00 0. -1.
         25    2    1    2    0    0  0.25891494591E+02 -0.67874271532E+02  0.41089805531E+03  0.43559057101E+03  0.12499858986E+03 0.  0.
          2    1    1    2  501    0 -0.61264985311E+02  0.42904599377E+01  0.43895318626E+02  0.75489108280E+02  0.00000000000E+00 0. -1.
          1    1    1    2  502    0  0.35373490720E+02  0.63583811594E+02  0.25791762780E+03  0.26798449148E+03  0.00000000000E+00 0. -1.
         22    1    3    3    0    0 -0.44487915964E+02 -0.45550097584E+02  0.25881452801E+03  0.26653132268E+03  0.00000000000E+00 0. -1.
         22    1    3    3    0    0  0.70379410555E+02 -0.22324173948E+02  0.15208352729E+03  0.16905924833E+03  0.00000000000E+00 0. -1.
</event>
<event>
 7    1  0.5127424E-006  0.1287527E+03  0.7818608E-02  0.1262413E+00
          2   -1    0    0  502    0  0.00000000000E+00  0.00000000000E+00  0.43637036415E+03  0.43637036415E+03  0.00000000000E+00 0. -1.
          1   -1    0    0  501    0 -0.00000000000E+00 -0.00000000000E+00 -0.14630010330E+04  0.14630010330E+04  0.00000000000E+00 0. -1.
         25    2    1    2    0    0 -0.75303263583E+01 -0.12998922805E+03 -0.18547666223E+03  0.25880565205E+03  0.12499947231E+03 0.  0.
          2    1    1    2  501    0 -0.84260060532E+02  0.37667242648E+02 -0.12284818354E+04  0.12319440729E+04  0.00000000000E+00 0. -1.
          1    1    1    2  502    0  0.91790386891E+02  0.92321985397E+02  0.38732782872E+03  0.40862167222E+03  0.00000000000E+00 0. -1.
         22    1    3    3    0    0  0.29500656675E+02 -0.72584784455E+02 -0.17223930775E+03  0.18922266992E+03  0.00000000000E+00 0. -1.
         22    1    3    3    0    0 -0.37030983033E+02 -0.57404443591E+02 -0.13237354485E+02  0.69582982130E+02  0.00000000000E+00 0. -1.
</event>
<event>
 7    1  0.5127424E-006  0.7836020E+02  0.7818608E-02  0.1467457E+00
          2   -1    0    0  502    0  0.00000000000E+00  0.00000000000E+00  0.18332573252E+04  0.18332573252E+04  0.00000000000E+00 0. -1.
          1   -1    0    0  501    0 -0.00000000000E+00 -0.00000000000E+00 -0.53601519356E+03  0.53601519356E+03  0.00000000000E+00 0. -1.
         25    2    1    2    0    0  0.59721901973E+02  0.30224743441E+02 -0.54758511854E+02  0.15199841336E+03  0.12499912941E+03 0.  0.
          2    1    1    2  501    0 -0.55526692476E+01  0.26572957296E+02 -0.43134686252E+03  0.43220026608E+03  0.00000000000E+00 0. -1.
          1    1    1    2  502    0 -0.54169232725E+02 -0.56797700737E+02  0.17833475060E+04  0.17850738393E+04  0.00000000000E+00 0. -1.
         22    1    3    3    0    0  0.54613765190E+02 -0.40254518784E+02 -0.43101399508E+02  0.80379227853E+02  0.00000000000E+00 0.  1.
         22    1    3    3    0    0  0.51081367835E+01  0.70479262225E+02 -0.11657112346E+02  0.71619185512E+02  0.00000000000E+00 0.  1.
</event>
<event>
 7    1  0.5127424E-006  0.2806484E+02  0.7818608E-02  0.1652045E+00
          2   -1    0    0  502    0  0.00000000000E+00  0.00000000000E+00  0.21916324065E+04  0.21916324065E+04  0.00000000000E+00 0. -1.
          1   -1    0    0  501    0 -0.00000000000E+00 -0.00000000000E+00 -0.16676931257E+02  0.16676931257E+02  0.00000000000E+00 0. -1.
         25    2    1    2    0    0  0.38118147020E+02  0.11418780900E+02  0.13695580457E+04  0.13758262895E+04  0.12500142629E+03 0.  0.
          2    1    1    2  501    0 -0.11866286584E+02 -0.20186057683E+02 -0.30044967050E+01  0.23607470905E+02  0.00000000000E+00 0. -1.
          1    1    1    2  502    0 -0.26251860436E+02  0.87672767830E+01  0.80840192632E+03  0.80887557745E+03  0.00000000000E+00 0. -1.
         22    1    3    3    0    0  0.68561502347E+02  0.53761920949E+01  0.12621911298E+04  0.12640633019E+04  0.00000000000E+00 0.  1.
         22    1    3    3    0    0 -0.30443355327E+02  0.60425888051E+01  0.10736691589E+03  0.11176298758E+03  0.00000000000E+00 0.  1.
</event>
<event>
 7    1  0.5127424E-006  0.8840725E+02  0.7818608E-02  0.1374859E+00
          2   -1    0    0  502    0  0.00000000000E+00  0.00000000000E+00  0.47810408474E+03  0.47810408474E+03  0.00000000000E+00 0. -1.
          1   -1    0    0  501    0 -0.00000000000E+00 -0.00000000000E+00 -0.10728177008E+04  0.10728177008E+04  0.00000000000E+00 0. -1.
         25    2    1    2    0    0  0.12171379849E+03 -0.52466718368E+02  0.21903594170E+03  0.28490089785E+03  0.12499909023E+03 0.  0.
          2    1    1    2  501    0 -0.86065735126E+02  0.18810876619E+02 -0.10353352251E+04  0.10390766036E+04  0.00000000000E+00 0. -1.
          1    1    1    2  502    0 -0.35648063367E+02  0.33655841749E+02  0.22158566734E+03  0.22694428408E+03  0.00000000000E+00 0. -1.
         22    1    3    3    0    0  0.32256105970E+02 -0.68137805270E+02  0.15918377603E+03  0.17613259616E+03  0.00000000000E+00 0.  1.
         22    1    3    3    0    0  0.89457692524E+02  0.15671086902E+02  0.59852165670E+02  0.10876830169E+03  0.00000000000E+00 0.  1.
</event>
<event>
 7    1  0.5127424E-006  0.2022446E+03  0.7818608E-02  0.1247961E+00
          2   -1    0    0  502    0  0.00000000000E+00  0.00000000000E+00  0.25898709515E+04  0.25898709515E+04  0.00000000000E+00 0. -1.
          1   -1    0    0  501    0 -0.00000000000E+00 -0.00000000000E+00 -0.50552196396E+02  0.50552196396E+02  0.00000000000E+00 0. -1.
         25    2    1    2    0    0  0.23879703976E+02  0.21944930530E+03  0.59665907371E+03  0.64834811037E+03  0.12499993646E+03 0.  0.
          2    1    1    2  501    0 -0.77601433915E+02 -0.17808717689E+03  0.36948518194E+03  0.41744020505E+03  0.00000000000E+00 0. -1.
          1    1    1    2  502    0  0.53721729939E+02 -0.41362128416E+02  0.15731744995E+04  0.15746348325E+04  0.00000000000E+00 0. -1.
         22    1    3    3    0    0  0.62506934250E+02  0.62597495400E+02  0.26631580972E+03  0.28062372274E+03  0.00000000000E+00 0.  1.
         22    1    3    3    0    0 -0.38627230274E+02  0.15685180990E+03  0.33034326399E+03  0.36772438763E+03  0.00000000000E+00 0.  1.
</event>
<event>
 7    1  0.5127424E-006  0.1936464E+03  0.7818608E-02  0.1330026E+00
          2   -1    0    0  502    0  0.00000000000E+00  0.00000000000E+00  0.47404983365E+03  0.47404983365E+03  0.00000000000E+00 0. -1.
          1   -1    0    0  501    0 -0.00000000000E+00 -0.00000000000E+00 -0.23277781933E+04  0.23277781933E+04  0.00000000000E+00 0. -1.
         25    2    1    2    0    0 -0.77530599343E+02  0.16910069119E+03 -0.17543491502E+03  0.28461948898E+03  0.12499922602E+03 0.  0.
          2    1    1    2  501    0  0.10925147495E+03 -0.16088465656E+03 -0.20925955248E+04  0.21016126636E+04  0.00000000000E+00 0. -1.
          1    1    1    2  502    0 -0.31720875606E+02 -0.82160346298E+01  0.41430208015E+03  0.41559587436E+03  0.00000000000E+00 0. -1.
         22    1    3    3    0    0  0.19574686332E+02  0.38391590091E+02  0.28225382897E+01  0.43186216055E+02  0.00000000000E+00 0. -1.
         22    1    3    3    0    0 -0.97105285675E+02  0.13070910110E+03 -0.17825745331E+03  0.24143327293E+03  0.00000000000E+00 0. -1.
</event>
<event>
 7    1  0.5127424E-006  0.7128966E+02  0.7818608E-02  0.1391171E+00
          2   -1    0    0  502    0  0.00000000000E+00  0.00000000000E+00  0.10484230725E+04  0.10484230725E+04  0.00000000000E+00 0. -1.
          1   -1    0    0  501    0 -0.00000000000E+00 -0.00000000000E+00 -0.36913229365E+02  0.36913229365E+02  0.00000000000E+00 0. -1.
         25    2    1    2    0    0 -0.35180454758E+02 -0.48458589704E+02  0.35147526449E+03  0.37781808960E+03  0.12500299182E+03 0.  0.
          2    1    1    2  501    0 -0.39499203252E+02  0.35721113359E+02  0.11384494360E+02  0.54459082888E+02  0.00000000000E+00 0. -1.
          1    1    1    2  502    0  0.74679658010E+02  0.12737476344E+02  0.64865008426E+03  0.65305912936E+03  0.00000000000E+00 0. -1.
         22    1    3    3    0    0 -0.10939782637E+02 -0.87689197276E+02  0.27126567990E+03  0.28529658822E+03  0.00000000000E+00 0. -1.
         22    1    3    3    0    0 -0.24240672121E+02  0.39230607572E+02  0.80209584594E+02  0.92521501372E+02  0.00000000000E+00 0. -1.
</event>
<event>
 7    1  0.5127424E-006  0.2768972E+03  0.7818608E-02  0.1121834E+00
          2   -1    0    0  502    0  0.00000000000E+00  0.00000000000E+00  0.19055109385E+04  0.19055109385E+04  0.00000000000E+00 0. -1.
          1   -1    0    0  501    0 -0.00000000000E+00 -0.00000000000E+00 -0.21249962585E+04  0.21249962585E+04  0.00000000000E+00 0. -1.
         25    2    1    2    0    0  0.10125284006E+03  0.19852745428E+03  0.17289826408E+03  0.30851904600E+03  0.12499961720E+03 0.  0.
          2    1    1    2  501    0  0.89603390425E+02 -0.26705223662E+03 -0.20413029110E+04  0.20606463159E+04  0.00000000000E+00 0. -1.
          1    1    1    2  502    0 -0.19085623048E+03  0.68524782348E+02  0.16489193269E+04  0.16613418351E+04  0.00000000000E+00 0. -1.
         22    1    3    3    0    0  0.12825142473E+03  0.16554676502E+03  0.16134069608E+03  0.26435767355E+03  0.00000000000E+00 0.  1.
         22    1    3    3    0    0 -0.26998584677E+02  0.32980689257E+02  0.11557568007E+02  0.44161372450E+02  0.00000000000E+00 0.  1.
</event>
<event>
 7    1  0.5127424E-006  0.6022856E+02  0.7818608E-02  0.1440547E+00
          2   -1    0    0  502    0  0.00000000000E+00  0.00000000000E+00  0.10584290781E+04  0.10584290781E+04  0.00000000000E+00 0. -1.
          1   -1    0    0  501    0 -0.00000000000E+00 -0.00000000000E+00 -0.10863378859E+03  0.10863378859E+03  0.00000000000E+00 0. -1.
         25    2    1    2    0    0 -0.23189662892E+02  0.90681374774E+02  0.52214336997E+02  0.16466807087E+03  0.12501345680E+03 0.  0.
          2    1    1    2  501    0 -0.22269516888E+01 -0.55976875461E+02 -0.36798226995E+02  0.67025960718E+02  0.00000000000E+00 0. -1.
          1    1    1    2  502    0  0.25416614581E+02 -0.34704499313E+02  0.93437917954E+03  0.93536883512E+03  0.00000000000E+00 0. -1.
         22    1    3    3    0    0  0.33380548514E+02  0.77272678245E+01  0.54338047023E+02  0.64238579074E+02  0.00000000000E+00 0.  1.
         22    1    3    3    0    0 -0.56570211406E+02  0.82954106949E+02 -0.21237100265E+01  0.10042949180E+03  0.00000000000E+00 0.  1.
</event>
<event>
 7    1  0.5127424E-006  0.7024652E+02  0.7818608E-02  0.1385052E+00
          2   -1    0    0  502    0  0.00000000000E+00  0.00000000000E+00  0.13906591864E+03  0.13906591864E+03  0.00000000000E+00 0. -1.
          1   -1    0    0  501    0 -0.00000000000E+00 -0.00000000000E+00 -0.21337869824E+04  0.21337869824E+04  0.00000000000E+00 0. -1.
         25    2    1    2    0    0 -0.96160680115E+02  0.56385659316E+02 -0.69221695222E+03  0.71219085012E+03  0.12500111630E+03 0.  0.
          2    1    1    2  501    0  0.26608194542E+02 -0.50157537930E+02 -0.14215302174E+04  0.14226636755E+04  0.00000000000E+00 0. -1.
          1    1    1    2  502    0  0.69552485573E+02 -0.62281213856E+01  0.11902610585E+03  0.13799837542E+03  0.00000000000E+00 0. -1.
         22    1    3    3    0    0 -0.24087375290E+02 -0.27318246823E+01 -0.14826050939E+02  0.28416127479E+02  0.00000000000E+00 0. -1.
         22    1    3    3    0    0 -0.72073304825E+02  0.59117483998E+02 -0.67739090128E+03  0.68377472264E+03  0.00000000000E+00 0. -1.
</event>
<event>
 7    1  0.5127424E-006  0.1052295E+03  0.7818608E-02  0.1297119E+00
          2   -1    0    0  502    0  0.00000000000E+00  0.00000000000E+00  0.28279417991E+04  0.28279417991E+04  0.00000000000E+00 0. -1.
          1   -1    0    0  501    0 -0.00000000000E+00 -0.00000000000E+00 -0.98823022381E+03  0.98823022381E+03  0.00000000000E+00 0. -1.
         25    2    1    2    0    0 -0.12092031144E+03  0.88952427299E+02  0.15863385595E+04  0.15983206993E+04  0.12499910536E+03 0.  0.
          2    1    1    2  501    0  0.81119763907E+02 -0.22765786363E+01 -0.97871678568E+03  0.98207542759E+03  0.00000000000E+00 0. -1.
          1    1    1    2  502    0  0.39800547537E+02 -0.86675848663E+02  0.12320898015E+04  0.12357758960E+04  0.00000000000E+00 0. -1.
         22    1    3    3    0    0 -0.24640996267E+02  0.56076646181E+02  0.22507530736E+03  0.23326093314E+03  0.00000000000E+00 0. -1.
         22    1    3    3    0    0 -0.96279315177E+02  0.32875781118E+02  0.13612632522E+04  0.13650597662E+04  0.00000000000E+00 0. -1.
</event>
<event>
 7    1  0.5127424E-006  0.5052998E+02  0.7818608E-02  0.1478727E+00
          2   -1    0    0  502    0  0.00000000000E+00  0.00000000000E+00  0.18144913491E+04  0.18144913491E+04  0.00000000000E+00 0. -1.
          1   -1    0    0  501    0 -0.00000000000E+00 -0.00000000000E+00 -0.26468093345E+03  0.26468093345E+03  0.00000000000E+00 0. -1.
         25    2    1    2    0    0 -0.30421709783E+02 -0.33014404863E+02 -0.66752895132E+02  0.14864834921E+03  0.12499980544E+03 0.  0.
          2    1    1    2  501    0 -0.32364803261E+01  0.52410916810E+02 -0.15236980382E+03  0.16116431404E+03  0.00000000000E+00 0. -1.
          1    1    1    2  502    0  0.33658190109E+02 -0.19396511947E+02  0.17689331146E+04  0.17693596193E+04  0.00000000000E+00 0. -1.
         22    1    3    3    0    0 -0.15531573482E+02  0.46269650675E+02 -0.41650290319E+02  0.64162738658E+02  0.00000000000E+00 0. -1.
         22    1    3    3    0    0 -0.14890136300E+02 -0.79284055538E+02 -0.25102604812E+02  0.84485610550E+02  0.00000000000E+00 0. -1.
</event>
<event>
 7    1  0.5127424E-006  0.7735950E+02  0.7818608E-02  0.1396380E+00
          2   -1    0    0  502    0  0.00000000000E+00  0.00000000000E+00  0.79130910777E+03  0.79130910777E+03  0.00000000000E+00 0. -1.
          1   -1    0    0  501    0 -0.00000000000E+00 -0.00000000000E+00 -0.35166267055E+03  0.35166267055E+03  0.00000000000E+00 0. -1.
         25    2    1    2    0    0 -0.10526418529E+03  0.62147345623E+02  0.42907151135E+02  0.18002199511E+03  0.12499621527E+03 0.  0.
          2    1    1    2  501    0  0.36610061158E+02 -0.29595130089E+02 -0.27900430100E+03  0.28294799572E+03  0.00000000000E+00 0. -1.
          1    1    1    2  502    0  0.68654124134E+02 -0.32552215534E+02  0.67574358709E+03  0.68000178749E+03  0.00000000000E+00 0. -1.
         22    1    3    3    0    0 -0.66815296837E+02  0.72593847361E+02  0.78898991658E+02  0.12632973304E+03  0.00000000000E+00 0. -1.
         22    1    3    3    0    0 -0.38448888454E+02 -0.10446501738E+02 -0.35991840523E+02  0.53692262070E+02  0.00000000000E+00 0. -1.
</event>
<event>
 7    1  0.5127424E-006  0.8431129E+02  0.7818608E-02  0.1369609E+00
          2   -1    0    0  502    0  0.00000000000E+00  0.00000000000E+00  0.28252758938E+04  0.28252758938E+04  0.00000000000E+00 0. -1.
          1   -1    0    0  501    0 -0.00000000000E+00 -0.00000000000E+00 -0.61664114556E+02  0.61664114556E+02  0.00000000000E+00 0. -1.
         25    2    1    2    0    0  0.44810305171E+02  0.18061284409E+02  0.39902246490E+02  0.13981544542E+03  0.12498798366E+03 0.  0.
          2    1    1    2  501    0 -0.99830013774E+01 -0.94843132254E+02  0.19560740084E+03  0.21761694630E+03  0.00000000000E+00 0. -1.
          1    1    1    2  502    0 -0.34827303794E+02  0.76781847846E+02  0.25281021319E+04  0.25295076166E+04  0.00000000000E+00 0. -1.
         22    1    3    3    0    0 -0.33697258579E+02 -0.92315019367E+01  0.44493847469E+02  0.56572328274E+02  0.00000000000E+00 0. -1.
         22    1    3    3    0    0  0.78507563750E+02  0.27292786346E+02 -0.45916009790E+01  0.83243117145E+02  0.00000000000E+00 0. -1.
</event>
<event>
 7    1  0.5127424E-006  0.6744009E+02  0.7818608E-02  0.1387528E+00
          2   -1    0    0  502    0  0.00000000000E+00  0.00000000000E+00  0.30638718106E+03  0.30638718106E+03  0.00000000000E+00 0. -1.
          1   -1    0    0  501    0 -0.00000000000E+00 -0.00000000000E+00 -0.14804393344E+03  0.14804393344E+03  0.00000000000E+00 0. -1.
         25    2    1    2    0    0 -0.24849800089E+02 -0.30754551707E+01  0.15348413832E+03  0.19952339667E+03  0.12500093644E+03 0.  0.
          2    1    1    2  501    0  0.51048986554E+02 -0.48635938553E+02 -0.10745110269E+03  0.12851923209E+03  0.00000000000E+00 0. -1.
          1    1    1    2  502    0 -0.26199186465E+02  0.51711393723E+02  0.11231021199E+03  0.12638848575E+03  0.00000000000E+00 0. -1.
         22    1    3    3    0    0 -0.22388636486E+02  0.59337522800E+02  0.93077001565E+02  0.11263001765E+03  0.00000000000E+00 0.  1.
         22    1    3    3    0    0 -0.24611636031E+01 -0.62412977971E+02  0.60407136757E+02  0.86893379015E+02  0.00000000000E+00 0.  1.
</event>
<event>
 7    1  0.5127424E-006  0.7389899E+02  0.7818608E-02  0.1518409E+00
          2   -1    0    0  502    0  0.00000000000E+00  0.00000000000E+00  0.28332287610E+04  0.28332287610E+04  0.00000000000E+00 0. -1.
          1   -1    0    0  501    0 -0.00000000000E+00 -0.00000000000E+00 -0.19621010924E+02  0.19621010924E+02  0.00000000000E+00 0. -1.
         25    2    1    2    0    0 -0.60041291508E+02  0.31696429263E+00  0.20516986622E+04  0.20563797756E+04  0.12500129531E+03 0.  0.
          2    1    1    2  501    0  0.72916081799E+02  0.15263262085E+02  0.63840213954E+02  0.98108588167E+02  0.00000000000E+00 0. -1.
          1    1    1    2  502    0 -0.12874790291E+02 -0.15580226378E+02  0.69806887388E+03  0.69836140812E+03  0.00000000000E+00 0. -1.
         22    1    3    3    0    0 -0.50628597401E+02 -0.10099150173E+01  0.27306231668E+03  0.27771802893E+03  0.00000000000E+00 0. -1.
         22    1    3    3    0    0 -0.94126941074E+01  0.13268793099E+01  0.17786363456E+04  0.17786617467E+04  0.00000000000E+00 0. -1.
</event>
<event>
 7    1  0.5127424E-006  0.1329476E+03  0.7818608E-02  0.1329254E+00
          2   -1    0    0  502    0  0.00000000000E+00  0.00000000000E+00  0.19521771602E+04  0.19521771602E+04  0.00000000000E+00 0. -1.
          1   -1    0    0  501    0 -0.00000000000E+00 -0.00000000000E+00 -0.24497669824E+04  0.24497669824E+04  0.00000000000E+00 0. -1.
         25    2    1    2    0    0  0.11126104632E+03  0.77495789572E+02  0.32203447607E+03  0.37109907009E+03  0.12499479274E+03 0.  0.
          2    1    1    2  501    0 -0.35459867736E+02  0.32430126740E+02 -0.24222198415E+04  0.24226964473E+04  0.00000000000E+00 0. -1.
          1    1    1    2  502    0 -0.75801178580E+02 -0.10992591631E+03  0.16025955432E+04  0.16081486252E+04  0.00000000000E+00 0. -1.
         22    1    3    3    0    0  0.17625607191E+01  0.69594925027E+02  0.16883806868E+03  0.18262763658E+03  0.00000000000E+00 0. -1.
         22    1    3    3    0    0  0.10949848560E+03  0.79008645459E+01  0.15319640739E+03  0.18847143350E+03  0.00000000000E+00 0. -1.
</event>
<event>
 7    1  0.5127424E-006  0.9287001E+02  0.7818608E-02  0.1354385E+00
          2   -1    0    0  502    0  0.00000000000E+00  0.00000000000E+00  0.89536975420E+02  0.89536975420E+02  0.00000000000E+00 0. -1.
          1   -1    0    0  501    0 -0.00000000000E+00 -0.00000000000E+00 -0.29255731978E+04  0.29255731978E+04  0.00000000000E+00 0. -1.
         25    2    1    2    0    0  0.64144024763E+02  0.29151840015E+02 -0.14368552431E+04  0.14440034292E+04  0.12501451142E+03 0.  0.
          2    1    1    2  501    0 -0.18200387065E+02  0.52288518967E+02 -0.14590348642E+04  0.14600849559E+04  0.00000000000E+00 0. -1.
          1    1    1    2  502    0 -0.45943637698E+02 -0.81440358983E+02  0.59853884943E+02  0.11102178822E+03  0.00000000000E+00 0. -1.
         22    1    3    3    0    0 -0.37113096589E+02  0.16086691966E+02 -0.33671305627E+03  0.33913396448E+03  0.00000000000E+00 0.  1.
         22    1    3    3    0    0  0.10125712135E+03  0.13065148050E+02 -0.11001421869E+04  0.11048694647E+04  0.00000000000E+00 0.  1.
</event>
<event>
 7    1  0.5127424E-006  0.5176972E+02  0.7818608E-02  0.1479696E+00
          2   -1    0    0  502    0  0.00000000000E+00  0.00000000000E+00  0.14942490295E+04  0.14942490295E+04  0.00000000000E+00 0. -1.
          1   -1    0    0  501    0 -0.00000000000E+00 -0.00000000000E+00 -0.46602505063E+02  0.46602505063E+02  0.00000000000E+00 0. -1.
         25    2    1    2    0    0  0.28728135335E+01  0.42233166081E+02  0.28268940633E+03  0.31197751018E+03  0.12499909214E+03 0.  0.
          2    1    1    2  501    0 -0.39908359466E+02 -0.35415854036E+02 -0.91734235234E+01  0.54139741148E+02  0.00000000000E+00 0. -1.
          1    1    1    2  502    0  0.37035545933E+02 -0.68173120446E+01  0.11741305416E+04  0.11747342832E+04  0.00000000000E+00 0. -1.
         22    1    3    3    0    0 -0.18577304075E+02  0.82989939712E+02  0.19992503708E+03  0.21726128687E+03  0.00000000000E+00 0. -1.
         22    1    3    3    0    0  0.21450117608E+02 -0.40756773631E+02  0.82764369246E+02  0.94716223314E+02  0.00000000000E+00 0. -1.
</event>
<event>
 7    1  0.5127424E-006  0.5218051E+02  0.7818608E-02  0.1560597E+00
          2   -1    0    0  502    0  0.00000000000E+00  0.00000000000E+00  0.67969914353E+03  0.67969914353E+03  0.00000000000E+00 0. -1.
          1   -1    0    0  501    0 -0.00000000000E+00 -0.00000000000E+00 -0.26635259295E+03  0.26635259295E+03  0.00000000000E+00 0. -1.
         25    2    1    2    0    0  0.47542637021E+02 -0.54806851832E+02 -0.47945663344E+01  0.14461581288E+03  0.12500660833E+03 0.  0.
          2    1    1    2  501    0 -0.30895913362E+02  0.40815770856E+02 -0.18803059757E+03  0.19487429342E+03  0.00000000000E+00 0. -1.
          1    1    1    2  502    0 -0.16646723658E+02  0.13991080977E+02  0.60617171448E+03  0.60656163017E+03  0.00000000000E+00 0. -1.
         22    1    3    3    0    0 -0.21934082621E+02 -0.36855303324E+02  0.41127497346E+02  0.59421279029E+02  0.00000000000E+00 0. -1.
         22    1    3    3    0    0  0.69476719641E+02 -0.17951548508E+02 -0.45922063681E+02  0.85194533854E+02  0.00000000000E+00 0. -1.
</event>
<event>
 7    1  0.5127424E-006  0.1076430E+03  0.7818608E-02  0.1321705E+00
          2   -1    0    0  502    0  0.00000000000E+00  0.00000000000E+00  0.39416059948E+03  0.39416059948E+03  0.00000000000E+00 0. -1.
          1   -1    0    0  501    0 -0.00000000000E+00 -0.00000000000E+00 -0.70153115302E+03  0.70153115302E+03  0.00000000000E+00 0. -1.
         25    2    1    2    0    0  0.25926824413E+02  0.13912668236E+03  0.19459485980E+03  0.27114698474E+03  0.12500037562E+03 0.  0.
          2    1    1    2  501    0  0.26842411522E+02 -0.57497097094E+02 -0.64691606488E+03  0.65002063523E+03  0.00000000000E+00 0. -1.
          1    1    1    2  502    0 -0.52769235934E+02 -0.81629585263E+02  0.14495065154E+03  0.17452413252E+03  0.00000000000E+00 0. -1.
         22    1    3    3    0    0 -0.66050059912E+01 -0.22759303566E+02  0.24669518278E+02  0.34208144279E+02  0.00000000000E+00 0. -1.
         22    1    3    3    0    0  0.32531830404E+02  0.16188598592E+03  0.16992534152E+03  0.23693884046E+03  0.00000000000E+00 0. -1.
</event>
<event>
 7    1  0.5127424E-006  0.6605056E+02  0.7818608E-02  0.1407402E+00
          2   -1    0    0  502    0  0.00000000000E+00  0.00000000000E+00  0.17139547529E+03  0.17139547529E+03  0.00000000000E+00 0. -1.
          1   -1    0    0  501    0 -0.00000000000E+00 -0.00000000000E+00 -0.10917414191E+03  0.10917414191E+03  0.00000000000E+00 0. -1.
         25    2    1    2    0    0 -0.15008718804E+02  0.28361113649E+02  0.12784078878E+02  0.12968524532E+03  0.12500086309E+03 0.  0.
          2    1    1    2  501    0  0.10605350478E+02  0.49415815345E+02 -0.11675638858E+02  0.51872119754E+02  0.00000000000E+00 0. -1.
          1    1    1    2  502    0  0.44033683265E+01 -0.77776928994E+02  0.61112893358E+02  0.99012252125E+02  0.00000000000E+00 0. -1.
         22    1    3    3    0    0 -0.25933083481E+02 -0.43850684982E+02  0.23080471197E+02  0.55929558758E+02  0.00000000000E+00 0.  1.
         22    1    3    3    0    0  0.10924364677E+02  0.72211798631E+02 -0.10296392319E+02  0.73755686560E+02  0.00000000000E+00 0.  1.
</event>
<event>
 7    1  0.5127424E-006  0.5462513E+02  0.7818608E-02  0.1452872E+00
          2   -1    0    0  502    0  0.00000000000E+00  0.00000000000E+00  0.77658432508E+03  0.77658432508E+03  0.00000000000E+00 0. -1.
          1   -1    0    0  501    0 -0.00000000000E+00 -0.00000000000E+00 -0.64936682360E+02  0.64936682360E+02  0.00000000000E+00 0. -1.
         25    2    1    2    0    0  0.59205702742E+02  0.45136785809E+02  0.41211408949E+03  0.43704157725E+03  0.12499869128E+03 0.  0.
          2    1    1    2  501    0 -0.54350528393E+02 -0.21163261947E+01 -0.36606445238E+02  0.65562875213E+02  0.00000000000E+00 0. -1.
          1    1    1    2  502    0 -0.48551743488E+01 -0.43020459614E+02  0.33613999847E+03  0.33891655497E+03  0.00000000000E+00 0. -1.
         22    1    3    3    0    0  0.86070741056E+02  0.65709515727E+02  0.34921174231E+03  0.36561558212E+03  0.00000000000E+00 0. -1.
         22    1    3    3    0    0 -0.26865038314E+02 -0.20572729918E+02  0.62902347173E+02  0.71425995126E+02  0.00000000000E+00 0. -1.
</event>
<event>
 7    1  0.5127424E-006  0.2758298E+03  0.7818608E-02  0.1178369E+00
          2   -1    0    0  502    0  0.00000000000E+00  0.00000000000E+00  0.15442567109E+04  0.15442567109E+04  0.00000000000E+00 0. -1.
          1   -1    0    0  501    0 -0.00000000000E+00 -0.00000000000E+00 -0.21687742844E+04  0.21687742844E+04  0.00000000000E+00 0. -1.
         25    2    1    2    0    0  0.98720913529E+02  0.28499311009E+03 -0.24489202474E+03  0.40812148533E+03  0.12499660571E+03 0.  0.
          2    1    1    2  501    0 -0.10372436498E+03 -0.95297624520E+01 -0.18277976305E+04  0.18307631574E+04  0.00000000000E+00 0. -1.
          1    1    1    2  502    0  0.50034514493E+01 -0.27546334764E+03  0.14481720818E+04  0.14741463526E+04  0.00000000000E+00 0. -1.
         22    1    3    3    0    0  0.12235669215E+03  0.24802089579E+03 -0.18068682722E+03  0.33035322670E+03  0.00000000000E+00 0. -1.
         22    1    3    3    0    0 -0.23635778619E+02  0.36972214299E+02 -0.64205197521E+02  0.77768258627E+02  0.00000000000E+00 0. -1.
</event>
<event>
 7    1  0.5127424E-006  0.1111420E+03  0.7818608E-02  0.1326583E+00
          2   -1    0    0  502    0  0.00000000000E+00  0.00000000000E+00  0.67353408001E+03  0.67353408001E+03  0.00000000000E+00 0. -1.
          1   -1    0    0  501    0 -0.00000000000E+00 -0.00000000000E+00 -0.66462054546E+03  0.66462054546E+03  0.00000000000E+00 0. -1.
         25    2    1    2    0    0 -0.55762510858E+02  0.68021914017E+02  0.60503448877E+02  0.16438448303E+03  0.12500061012E+03 0.  0.
          2    1    1    2  501    0  0.37306771710E+02  0.45517049150E+02 -0.60534239376E+03  0.60819652306E+03  0.00000000000E+00 0. -1.
          1    1    1    2  502    0  0.18455739148E+02 -0.11353896317E+03  0.55375247944E+03  0.56557361939E+03  0.00000000000E+00 0. -1.
         22    1    3    3    0    0 -0.53612409160E+02  0.10380771146E+03  0.49452634733E+02  0.12686959626E+03  0.00000000000E+00 0.  1.
         22    1    3    3    0    0 -0.21501016976E+01 -0.35785797439E+02  0.11050814144E+02  0.37514886764E+02  0.00000000000E+00 0.  1.
</event>
<event>
 7    1  0.5127424E-006  0.1319334E+03  0.7818608E-02  0.1320692E+00
          2   -1    0    0  502    0  0.00000000000E+00  0.00000000000E+00  0.11900226002E+04  0.11900226002E+04  0.00000000000E+00 0. -1.
          1   -1    0    0  501    0 -0.00000000000E+00 -0.00000000000E+00 -0.18893835158E+03  0.18893835158E+03  0.00000000000E+00 0. -1.
         25    2    1    2    0    0  0.84976799699E+02 -0.55060801877E+02 -0.17942470062E+02  0.16183453516E+03  0.12496293909E+03 0.  0.
          2    1    1    2  501    0 -0.50885898731E+01 -0.51993207211E+02 -0.87855004149E+02  0.10221393788E+03  0.00000000000E+00 0. -1.
          1    1    1    2  502    0 -0.79888209826E+02  0.10705400909E+03  0.11068817228E+04  0.11149124787E+04  0.00000000000E+00 0. -1.
         22    1    3    3    0    0  0.87075439401E+02 -0.72946004763E+02 -0.50746738347E+02  0.12441255246E+03  0.00000000000E+00 0.  1.
         22    1    3    3    0    0 -0.20986397017E+01  0.17885202886E+02  0.32804268285E+02  0.37421982692E+02  0.00000000000E+00 0.  1.
</event>
<event>
 7    1  0.5127424E-006  0.5848043E+02  0.7818608E-02  0.1432969E+00
          2   -1    0    0  502    0  0.00000000000E+00  0.00000000000E+00  0.12825926193E+04  0.12825926193E+04  0.00000000000E+00 0. -1.
          1   -1    0    0  501    0 -0.00000000000E+00 -0.00000000000E+00 -0.46596003354E+03  0.46596003354E+03  0.00000000000E+00 0. -1.
         25    2    1    2    0    0 -0.36708780802E+02 -0.53873835086E+01  0.47086508362E+02  0.13863451205E+03  0.12500332065E+03 0.  0.
          2    1    1    2  501    0  0.29083746177E+02  0.51658921982E+02 -0.41762974758E+03  0.42181644655E+03  0.00000000000E+00 0. -1.
          1    1    1    2  502    0  0.76250346246E+01 -0.46271538473E+02  0.11871758250E+04  0.11881016942E+04  0.00000000000E+00 0. -1.
         22    1    3    3    0    0 -0.53497724874E+02  0.48028356172E+02  0.39786200571E+02  0.82168554321E+02  0.00000000000E+00 0.  1.
         22    1    3    3    0    0  0.16788944072E+02 -0.53415739681E+02  0.73003077909E+01  0.56465957731E+02  0.00000000000E+00 0.  1.
</event>
<event>
 7    1  0.5127424E-006  0.8712630E+02  0.7818608E-02  0.1390129E+00
          2   -1    0    0  502    0  0.00000000000E+00  0.00000000000E+00  0.24222735590E+04  0.24222735590E+04  0.00000000000E+00 0. -1.
          1   -1    0    0  501    0 -0.00000000000E+00 -0.00000000000E+00 -0.14116776977E+03  0.14116776977E+03  0.00000000000E+00 0. -1.
         25    2    1    2    0    0  0.14969470975E+02 -0.52418677716E+02  0.30546576679E+03  0.33452370463E+03  0.12499988576E+03 0.  0.
          2    1    1    2  501    0 -0.24297929038E+02 -0.36612531034E+02 -0.12184337930E+03  0.12952480791E+03  0.00000000000E+00 0. -1.
          1    1    1    2  502    0  0.93284580628E+01  0.89031208749E+02  0.20974834017E+04  0.20993928162E+04  0.00000000000E+00 0. -1.
         22    1    3    3    0    0 -0.49463195126E+02 -0.51183242053E+02  0.17769852913E+03  0.19142387310E+03  0.00000000000E+00 0. -1.
         22    1    3    3    0    0  0.64432666102E+02 -0.12354356630E+01  0.12776723766E+03  0.14309983153E+03  0.00000000000E+00 0. -1.
</event>
<event>
 7    1  0.5127424E-006  0.8829047E+02  0.7818608E-02  0.1408472E+00
          2   -1    0    0  502    0  0.00000000000E+00  0.00000000000E+00  0.27353757527E+04  0.27353757527E+04  0.00000000000E+00 0. -1.
          1   -1    0    0  501    0 -0.00000000000E+00 -0.00000000000E+00 -0.13641316516E+02  0.13641316516E+02  0.00000000000E+00 0. -1.
         25    2    1    2    0    0  0.11134292259E+03  0.96904320139E+01  0.12136761476E+04  0.12252048857E+04  0.12500427957E+03 0.  0.
          2    1    1    2  501    0 -0.28610087698E+02 -0.24234479427E+02  0.46010716248E+02  0.59353459215E+02  0.00000000000E+00 0. -1.
          1    1    1    2  502    0 -0.82732834889E+02  0.14544047414E+02  0.14620475723E+04  0.14644587242E+04  0.00000000000E+00 0. -1.
         22    1    3    3    0    0  0.10753376891E+03  0.41564024635E+02  0.61780043020E+03  0.62846515508E+03  0.00000000000E+00 0.  1.
         22    1    3    3    0    0  0.38091536759E+01 -0.31873592621E+02  0.59587571738E+03  0.59673973064E+03  0.00000000000E+00 0.  1.
</event>
<event>
 7    1  0.5127424E-006  0.5182295E+02  0.7818608E-02  0.1530616E+00
          2   -1    0    0  502    0  0.00000000000E+00  0.00000000000E+00  0.15260185779E+03  0.15260185779E+03  0.00000000000E+00 0. -1.
          1   -1    0    0  501    0 -0.00000000000E+00 -0.00000000000E+00 -0.60140875053E+03  0.60140875053E+03  0.00000000000E+00 0. -1.
         25    2    1    2    0    0 -0.47258852621E+02  0.21790450424E+02 -0.35531101460E+03  0.38023782525E+03  0.12500665493E+03 0.  0.
          2    1    1    2  501    0  0.17026177722E+02  0.20405135702E+02 -0.22802919541E+03  0.22957259037E+03  0.00000000000E+00 0. -1.
          1    1    1    2  502    0  0.30232674900E+02 -0.42195586126E+02  0.13453331727E+03  0.14420019270E+03  0.00000000000E+00 0. -1.
         22    1    3    3    0    0  0.13110004744E+02  0.61655519189E+02 -0.16934648689E+03  0.18069728247E+03  0.00000000000E+00 0.  1.
         22    1    3    3    0    0 -0.60368857366E+02 -0.39865068765E+02 -0.18596452770E+03  0.19954054278E+03  0.00000000000E+00 0.  1.
</event>
<event>
 7    1  0.5127424E-006  0.6966112E+02  0.7818608E-02  0.1391518E+00
          2   -1    0    0  502    0  0.00000000000E+00  0.00000000000E+00  0.34128964315E+04  0.34128964315E+04  0.00000000000E+00 0. -1.
          1   -1    0    0  501    0 -0.00000000000E+00 -0.00000000000E+00 -0.17487824198E+03  0.17487824198E+03  0.00000000000E+00 0. -1.
         25    2    1    2    0    0 -0.53910431161E+00 -0.63075825648E+02  0.40443402483E+03  0.42797269894E+03  0.12495959418E+03 0.  0.
          2    1    1    2  501    0  0.52239469592E+02  0.14996548789E+02 -0.15815341431E+03  0.16723145971E+03  0.00000000000E+00 0. -1.
          1    1    1    2  502    0 -0.51700365281E+02  0.48079276859E+02  0.29917375790E+04  0.29925705148E+04  0.00000000000E+00 0. -1.
         22    1    3    3    0    0  0.27590248716E+02  0.23711592163E+02  0.49070141859E+02  0.61084697340E+02  0.00000000000E+00 0. -1.
         22    1    3    3    0    0 -0.28129353027E+02 -0.86787417811E+02  0.35536388297E+03  0.36688800160E+03  0.00000000000E+00 0. -1.
</event>
<event>
 7    1  0.5127424E-006  0.3878571E+02  0.7818608E-02  0.1534175E+00
          2   -1    0    0  502    0  0.00000000000E+00  0.00000000000E+00  0.16240551919E+04  0.16240551919E+04  0.00000000000E+00 0. -1.
          1   -1    0    0  501    0 -0.00000000000E+00 -0.00000000000E+00 -0.17650849714E+03  0.17650849714E+03  0.00000000000E+00 0. -1.
         25    2    1    2    0    0  0.16772362516E+02  0.19422678487E+02  0.90778828464E+03  0.91671296050E+03  0.12499811854E+03 0.  0.
          2    1    1    2  501    0 -0.27388315133E+02  0.21285772601E+02 -0.16966827768E+03  0.17317773636E+03  0.00000000000E+00 0. -1.
          1    1    1    2  502    0  0.10615952618E+02 -0.40708451088E+02  0.70942668783E+03  0.71067299220E+03  0.00000000000E+00 0. -1.
         22    1    3    3    0    0  0.63864812404E+02  0.30759904247E+02  0.36866817741E+03  0.37542124475E+03  0.00000000000E+00 0. -1.
         22    1    3    3    0    0 -0.47092449888E+02 -0.11337225761E+02  0.53912010723E+03  0.54129171576E+03  0.00000000000E+00 0. -1.
</event>
<event>
 7    1  0.5127424E-006  0.4926301E+02  0.7818608E-02  0.1535204E+00
          2   -1    0    0  502    0  0.00000000000E+00  0.00000000000E+00  0.72858417794E+02  0.72858417794E+02  0.00000000000E+00 0. -1.
          1   -1    0    0  501    0 -0.00000000000E+00 -0.00000000000E+00 -0.30923647101E+03  0.30923647101E+03  0.00000000000E+00 0. -1.
         25    2    1    2    0    0  0.23514837124E+02 -0.28193290415E+00 -0.21483968862E+03  0.24966178178E+03  0.12498754507E+03 0.  0.
          2    1    1    2  501    0  0.27038583116E+02 -0.21794915891E+01 -0.61974089630E+02  0.67650742391E+02  0.00000000000E+00 0. -1.
          1    1    1    2  502    0 -0.50553420240E+02  0.24614244933E+01  0.40435725038E+02  0.64782364636E+02  0.00000000000E+00 0. -1.
         22    1    3    3    0    0  0.58630070701E+02  0.31075921180E+02 -0.66147751098E+02  0.93694840002E+02  0.00000000000E+00 0.  1.
         22    1    3    3    0    0 -0.35115233578E+02 -0.31357854085E+02 -0.14869193752E+03  0.15596694177E+03  0.00000000000E+00 0.  1.
</event>
<event>
 7    1  0.5127424E-006  0.2032434E+03  0.7818608E-02  0.1243141E+00
          2   -1    0    0  502    0  0.00000000000E+00  0.00000000000E+00  0.41540867646E+03  0.41540867646E+03  0.00000000000E+00 0. -1.
          1   -1    0    0  501    0 -0.00000000000E+00 -0.00000000000E+00 -0.14395197693E+04  0.14395197693E+04  0.00000000000E+00 0. -1.
         25    2    1    2    0    0 -0.10453653627E+03  0.16680040372E+03 -0.97677230386E+03  0.10042200644E+04  0.12499416777E+03 0.  0.
          2    1    1    2  501    0  0.54251261317E+02 -0.21666831055E+03 -0.41768320339E+03  0.47365347518E+03  0.00000000000E+00 0. -1.
          1    1    1    2  502    0  0.50285274951E+02  0.49867906828E+02  0.37034441442E+03  0.37705490622E+03  0.00000000000E+00 0. -1.
         22    1    3    3    0    0 -0.77675058525E+02  0.18071561056E+03 -0.74696330664E+03  0.77242846147E+03  0.00000000000E+00 0.  1.
         22    1    3    3    0    0 -0.26861477744E+02 -0.13915206842E+02 -0.22980899721E+03  0.23179160289E+03  0.00000000000E+00 0.  1.
</event>
<event>
 7    1  0.5127424E-006  0.1140867E+03  0.7818608E-02  0.1328979E+00
          2   -1    0    0  502    0  0.00000000000E+00  0.00000000000E+00  0.76180528230E+03  0.76180528230E+03  0.00000000000E+00 0. -1.
          1   -1    0    0  501    0 -0.00000000000E+00 -0.00000000000E+00 -0.33057042066E+03  0.33057042066E+03  0.00000000000E+00 0. -1.
         25    2    1    2    0    0  0.13986318509E+02 -0.15499823434E+03 -0.11105665224E+03  0.22842735370E+03  0.12500162462E+03 0.  0.
          2    1    1    2  501    0 -0.35039103257E+02  0.43854623624E+02 -0.15120411061E+03  0.16128747576E+03  0.00000000000E+00 0. -1.
          1    1    1    2  502    0  0.21052784748E+02  0.11114361072E+03  0.69349562450E+03  0.70266087350E+03  0.00000000000E+00 0. -1.
         22    1    3    3    0    0 -0.53991756300E+02 -0.45495927889E+02 -0.35503776687E+02  0.79028522458E+02  0.00000000000E+00 0.  1.
         22    1    3    3    0    0  0.67978074809E+02 -0.10950230645E+03 -0.75552875555E+02  0.14939883124E+03  0.00000000000E+00 0.  1.
</event>
<event>
 7    1  0.5127424E-006  0.6447313E+02  0.7818608E-02  0.1433063E+00
          2   -1    0    0  502    0  0.00000000000E+00  0.00000000000E+00  0.12934414835E+02  0.12934414835E+02  0.00000000000E+00 0. -1.
          1   -1    0    0  501    0 -0.00000000000E+00 -0.00000000000E+00 -0.14253298239E+04  0.14253298239E+04  0.00000000000E+00 0. -1.
         25    2    1    2    0    0  0.82857058457E+02  0.50062424671E+01 -0.79906031875E+03  0.81303051657E+03  0.12502349086E+03 0.  0.
          2    1    1    2  501    0 -0.51602319256E+02 -0.33814864898E+02 -0.50665073260E+03  0.51039319087E+03  0.00000000000E+00 0. -1.
          1    1    1    2  502    0 -0.31254739201E+02  0.28808622431E+02 -0.10668435773E+03  0.11484053132E+03  0.00000000000E+00 0. -1.
         22    1    3    3    0    0 -0.17297660233E+02 -0.37286424201E+02 -0.24072650342E+03  0.24421043370E+03  0.00000000000E+00 0. -1.
         22    1    3    3    0    0  0.10015471869E+03  0.42292666668E+02 -0.55833381533E+03  0.56882008287E+03  0.00000000000E+00 0. -1.
</event>
<event>
 7    1  0.5127424E-006  0.6910282E+02  0.7818608E-02  0.1438636E+00
          2   -1    0    0  502    0  0.00000000000E+00  0.00000000000E+00  0.12801687668E+04  0.12801687668E+04  0.00000000000E+00 0. -1.
          1   -1    0    0  501    0 -0.00000000000E+00 -0.00000000000E+00 -0.41459251744E+02  0.41459251744E+02  0.00000000000E+00 0. -1.
         25    2    1    2    0    0 -0.44158010477E+02 -0.74091604566E+02  0.21183035306E+03  0.26064620101E+03  0.12499939146E+03 0.  0.
          2    1    1    2  501    0 -0.12835713610E+02  0.35800130419E+02  0.68491477567E+01  0.38643443259E+02  0.00000000000E+00 0. -1.
          1    1    1    2  502    0  0.56993724087E+02  0.38291474146E+02  0.10200300142E+04  0.10223383743E+04  0.00000000000E+00 0. -1.
         22    1    3    3    0    0 -0.38914788273E+02 -0.56864925515E+02  0.25538384108E+02  0.73485982086E+02  0.00000000000E+00 0. -1.
         22    1    3    3    0    0 -0.52432222040E+01 -0.17226679050E+02  0.18629196896E+03  0.18716021892E+03  0.00000000000E+00 0. -1.
</event>
<event>
 7    1  0.5127424E-006  0.3796869E+02  0.7818608E-02  0.1533244E+00
          2   -1    0    0  502    0  0.00000000000E+00  0.00000000000E+00  0.32363235406E+03  0.32363235406E+03  0.00000000000E+00 0. -1.
          1   -1    0    0  501    0 -0.00000000000E+00 -0.00000000000E+00 -0.25833584549E+03  0.25833584549E+03  0.00000000000E+00 0. -1.
         25    2    1    2    0    0 -0.67513292402E+01  0.44220481487E+02 -0.46173559088E+02  0.14056370036E+03  0.12500049948E+03 0.  0.
          2    1    1    2  501    0 -0.25383489872E+02 -0.28782575193E+02 -0.16156068382E+03  0.16605605304E+03  0.00000000000E+00 0. -1.
          1    1    1    2  502    0  0.32134819112E+02 -0.15437906294E+02  0.27303075148E+03  0.27534844616E+03  0.00000000000E+00 0. -1.
         22    1    3    3    0    0 -0.59975885919E+01 -0.39457455353E+02 -0.40234845738E+02  0.56671903651E+02  0.00000000000E+00 0. -1.
         22    1    3    3    0    0 -0.75374064833E+00  0.83677936840E+02 -0.59387133501E+01  0.83891796709E+02  0.00000000000E+00 0. -1.
</event>
<event>
 7    1  0.5127424E-006  0.9013426E+02  0.7818608E-02  0.1362198E+00
          2   -1    0    0  502    0  0.00000000000E+00  0.00000000000E+00  0.12937928779E+04  0.12937928779E+04  0.00000000000E+00 0. -1.
          1   -1    0    0  501    0 -0.00000000000E+00 -0.00000000000E+00 -0.57227901838E+02  0.57227901838E+02  0.00000000000E+00 0. -1.
         25    2    1    2    0    0  0.13396369165E+03 -0.53455746989E+01  0.28746208455E+03  0.34093187211E+03  0.12500098207E+03 0.  0.
          2    1    1    2  501    0 -0.82010179279E+02 -0.70493056651E+01  0.27273355285E+02  0.86713309960E+02  0.00000000000E+00 0. -1.
          1    1    1    2  502    0 -0.51953512369E+02  0.12394880364E+02  0.92182953622E+03  0.92337559766E+03  0.00000000000E+00 0. -1.
         22    1    3    3    0    0  0.14890241564E+03 -0.25502405846E+02  0.27289662089E+03  0.31192125253E+03  0.00000000000E+00 0. -1.
         22    1    3    3    0    0 -0.14938723997E+02  0.20156831147E+02  0.14565463658E+02  0.29010619575E+02  0.00000000000E+00 0. -1.
</event>
<event>
 7    1  0.5127424E-006  0.1724331E+03  0.7818608E-02  0.1203071E+00
          2   -1    0    0  502    0  0.00000000000E+00  0.00000000000E+00  0.19153588908E+04  0.19153588908E+04  0.00000000000E+00 0. -1.
          1   -1    0    0  501    0 -0.00000000000E+00 -0.00000000000E+00 -0.53838932716E+03  0.53838932716E+03  0.00000000000E+00 0. -1.
         25    2    1    2    0    0 -0.98242010075E-01  0.66753402818E+02 -0.68070238749E+01  0.14187002778E+03  0.12499897107E+03 0.  0.
          2    1    1    2  501    0 -0.92858680792E+02  0.86442650175E+02 -0.45093253338E+03  0.46843912734E+03  0.00000000000E+00 0. -1.
          1    1    1    2  502    0  0.92956922802E+02 -0.15319605299E+03  0.18347091209E+04  0.18434390628E+04  0.00000000000E+00 0. -1.
         22    1    3    3    0    0  0.23898685894E+02  0.60943931273E+02 -0.56440886717E+02  0.86434273526E+02  0.00000000000E+00 0. -1.
         22    1    3    3    0    0 -0.23996927904E+02  0.58094715448E+01  0.49633862843E+02  0.55435754249E+02  0.00000000000E+00 0. -1.
</event>
<event>
 7    1  0.5127424E-006  0.8396321E+02  0.7818608E-02  0.1347761E+00
          2   -1    0    0  502    0  0.00000000000E+00  0.00000000000E+00  0.19080352089E+03  0.19080352089E+03  0.00000000000E+00 0. -1.
          1   -1    0    0  501    0 -0.00000000000E+00 -0.00000000000E+00 -0.32293915246E+03  0.32293915246E+03  0.00000000000E+00 0. -1.
         25    2    1    2    0    0  0.41796601962E+02 -0.68865980094E+02 -0.23675236598E+02  0.15058298901E+03  0.12500096240E+03 0.  0.
          2    1    1    2  501    0 -0.62527063204E+02 -0.16986089165E+02 -0.21512819540E+03  0.22467376641E+03  0.00000000000E+00 0. -1.
          1    1    1    2  502    0  0.20730461242E+02  0.85852069260E+02  0.10666780042E+03  0.13848591794E+03  0.00000000000E+00 0. -1.
         22    1    3    3    0    0  0.34615607283E+02 -0.18081388503E+02  0.48356119307E+02  0.62156987959E+02  0.00000000000E+00 0. -1.
         22    1    3    3    0    0  0.71809946791E+01 -0.50784591592E+02 -0.72031355905E+02  0.88426001048E+02  0.00000000000E+00 0. -1.
</event>
<event>
 7    1  0.5127424E-006  0.7052515E+02  0.7818608E-02  0.1409644E+00
          2   -1    0    0  502    0  0.00000000000E+00  0.00000000000E+00  0.17139757423E+04  0.17139757423E+04  0.00000000000E+00 0. -1.
          1   -1    0    0  501    0 -0.00000000000E+00 -0.00000000000E+00 -0.35432293564E+03  0.35432293564E+03  0.00000000000E+00 0. -1.
         25    2    1    2    0    0 -0.46421703551E+02 -0.70198726075E+02 -0.16819123338E+03  0.22581386308E+03  0.12498309513E+03 0.  0.
          2    1    1    2  501    0 -0.18509949019E+02  0.42669634466E+02 -0.15312697677E+03  0.16003495535E+03  0.00000000000E+00 0. -1.
          1    1    1    2  502    0  0.64931652571E+02  0.27529091609E+02  0.16809710168E+04  0.16824498595E+04  0.00000000000E+00 0. -1.
         22    1    3    3    0    0 -0.35285445300E+02  0.78912315423E+01  0.40367523712E+01  0.36381720066E+02  0.00000000000E+00 0.  1.
         22    1    3    3    0    0 -0.11136258252E+02 -0.78089957617E+02 -0.17222798576E+03  0.18943214301E+03  0.00000000000E+00 0.  1.
</event>
<event>
 7    1  0.5127424E-006  0.9573765E+02  0.7818608E-02  0.1316979E+00
          2   -1    0    0  502    0  0.00000000000E+00  0.00000000000E+00  0.24018947190E+03  0.24018947190E+03  0.00000000000E+00 0. -1.
          1   -1    0    0  501    0 -0.00000000000E+00 -0.00000000000E+00 -0.38312171592E+03  0.38312171592E+03  0.00000000000E+00 0. -1.
         25    2    1    2    0    0 -0.54173634680E+02 -0.46450718839E+02 -0.30757407741E+03  0.33958739305E+03  0.12500132977E+03 0.  0.
          2    1    1    2  501    0  0.12578641470E+03 -0.17089085255E+02  0.55505259815E+02  0.13854635623E+03  0.00000000000E+00 0. -1.
          1    1    1    2  502    0 -0.71612780023E+02  0.63539804095E+02  0.10913657358E+03  0.14517743853E+03  0.00000000000E+00 0. -1.
         22    1    3    3    0    0 -0.48149635161E+02 -0.63260323067E+02 -0.85323185401E+02  0.11662033188E+03  0.00000000000E+00 0.  1.
         22    1    3    3    0    0 -0.60239995183E+01  0.16809604227E+02 -0.22225089201E+03  0.22296706117E+03  0.00000000000E+00 0.  1.
</event>
<event>
 7    1  0.5127424E-006  0.2941314E+03  0.7818608E-02  0.1259121E+00
          2   -1    0    0  502    0  0.00000000000E+00  0.00000000000E+00  0.66391707722E+03  0.66391707722E+03  0.00000000000E+00 0. -1.
          1   -1    0    0  501    0 -0.00000000000E+00 -0.00000000000E+00 -0.26178661060E+03  0.26178661060E+03  0.00000000000E+00 0. -1.
         25    2    1    2    0    0 -0.46593942302E+01  0.26262797212E+03  0.33476963754E+03  0.44349912970E+03  0.12500242450E+03 0.  0.
          2    1    1    2  501    0  0.15833352773E+02 -0.30283227399E+03 -0.92458223252E+02  0.31702776579E+03  0.00000000000E+00 0. -1.
          1    1    1    2  502    0 -0.11173958543E+02  0.40204301875E+02  0.15981905233E+03  0.16517679234E+03  0.00000000000E+00 0. -1.
         22    1    3    3    0    0  0.38829073098E+01  0.22691404725E+03  0.33746518922E+03  0.40667900825E+03  0.00000000000E+00 0.  1.
         22    1    3    3    0    0 -0.85423015400E+01  0.35713924863E+02 -0.26955516834E+01  0.36820121450E+02  0.00000000000E+00 0.  1.
</event>
<event>
 7    1  0.5127424E-006  0.1150726E+03  0.7818608E-02  0.1306112E+00
          2   -1    0    0  502    0  0.00000000000E+00  0.00000000000E+00  0.24778221549E+04  0.24778221549E+04  0.00000000000E+00 0. -1.
          1   -1    0    0  501    0 -0.00000000000E+00 -0.00000000000E+00 -0.29299125096E+03  0.29299125096E+03  0.00000000000E+00 0. -1.
         25    2    1    2    0    0  0.35766308866E+01  0.17837382249E+03  0.19167476793E+03  0.29016754490E+03  0.12501189789E+03 0.  0.
          2    1    1    2  501    0  0.95953098830E+01 -0.11133466361E+03 -0.23038460704E+03  0.25605574482E+03  0.00000000000E+00 0. -1.
          1    1    1    2  502    0 -0.13171940770E+02 -0.67039158872E+02  0.22235407430E+04  0.22245901161E+04  0.00000000000E+00 0. -1.
         22    1    3    3    0    0 -0.39640039418E+02  0.61742082506E+02  0.13463827908E+03  0.15333259167E+03  0.00000000000E+00 0. -1.
         22    1    3    3    0    0  0.43216670305E+02  0.11663173998E+03  0.57036488851E+02  0.13683495322E+03  0.00000000000E+00 0. -1.
</event>
<event>
 7    1  0.5127424E-006  0.4392537E+02  0.7818608E-02  0.1503819E+00
          2   -1    0    0  502    0  0.00000000000E+00  0.00000000000E+00  0.52576459144E+03  0.52576459144E+03  0.00000000000E+00 0. -1.
          1   -1    0    0  501    0 -0.00000000000E+00 -0.00000000000E+00 -0.82557114253E+03  0.82557114253E+03  0.00000000000E+00 0. -1.
         25    2    1    2    0    0  0.19535641653E+02 -0.44509790805E+02 -0.28995959840E+03  0.31947606981E+03  0.12500251078E+03 0.  0.
          2    1    1    2  501    0 -0.42136146007E+02  0.14544997074E+02 -0.51920785761E+03  0.52111784765E+03  0.00000000000E+00 0. -1.
          1    1    1    2  502    0  0.22600504354E+02  0.29964793731E+02  0.50936090493E+03  0.51074181651E+03  0.00000000000E+00 0. -1.
         22    1    3    3    0    0 -0.52298882799E+02 -0.61499292048E+01 -0.11078137109E+03  0.12266012780E+03  0.00000000000E+00 0.  1.
         22    1    3    3    0    0  0.71834524452E+02 -0.38359861600E+02 -0.17917822732E+03  0.19681594201E+03  0.00000000000E+00 0.  1.
</event>
<event>
 7    1  0.5127424E-006  0.6071250E+02  0.7818608E-02  0.1537276E+00
          2   -1    0    0  502    0  0.00000000000E+00  0.00000000000E+00  0.11147199688E+04  0.11147199688E+04  0.00000000000E+00 0. -1.
          1   -1    0    0  501    0 -0.00000000000E+00 -0.00000000000E+00 -0.39728062789E+03  0.39728062789E+03  0.00000000000E+00 0. -1.
         25    2    1    2    0    0 -0.46043274646E+02  0.36800435713E+02  0.57246745530E+02  0.14958706450E+03  0.12499937913E+03 0.  0.
          2    1    1    2  501    0 -0.11861447212E+02 -0.18188427756E+02 -0.34985905300E+03  0.35053226642E+03  0.00000000000E+00 0. -1.
          1    1    1    2  502    0  0.57904721858E+02 -0.18612007957E+02  0.10100516484E+04  0.10118812658E+04  0.00000000000E+00 0. -1.
         22    1    3    3    0    0 -0.15097253211E+02  0.65817939772E+02  0.77319023298E+02  0.10265553864E+03  0.00000000000E+00 0.  1.
         22    1    3    3    0    0 -0.30946021435E+02 -0.29017504060E+02 -0.20072277768E+02  0.46931525857E+02  0.00000000000E+00 0.  1.
</event>
<event>
 7    1  0.5127424E-006  0.8000587E+02  0.7818608E-02  0.1347605E+00
          2   -1    0    0  502    0  0.00000000000E+00  0.00000000000E+00  0.10960675216E+04  0.10960675216E+04  0.00000000000E+00 0. -1.
          1   -1    0    0  501    0 -0.00000000000E+00 -0.00000000000E+00 -0.55233332436E+02  0.55233332436E+02  0.00000000000E+00 0. -1.
         25    2    1    2    0    0  0.33263536668E+02  0.37067078937E+01  0.21100374517E+03  0.24753868063E+03  0.12503045780E+03 0.  0.
          2    1    1    2  501    0  0.20010605872E+02  0.65081713453E+02 -0.12892742986E+01  0.68100778275E+02  0.00000000000E+00 0. -1.
          1    1    1    2  502    0 -0.53274142540E+02 -0.68788421347E+02  0.83111971831E+03  0.83566139514E+03  0.00000000000E+00 0. -1.
         22    1    3    3    0    0  0.78306753611E+02 -0.38202816409E+01  0.16519491271E+03  0.18285486430E+03  0.00000000000E+00 0. -1.
         22    1    3    3    0    0 -0.45043216943E+02  0.75269895346E+01  0.45808832465E+02  0.64683816336E+02  0.00000000000E+00 0. -1.
</event>
<event>
 7    1  0.5127424E-006  0.5536598E+02  0.7818608E-02  0.1506665E+00
          2   -1    0    0  502    0  0.00000000000E+00  0.00000000000E+00  0.36744202529E+03  0.36744202529E+03  0.00000000000E+00 0. -1.
          1   -1    0    0  501    0 -0.00000000000E+00 -0.00000000000E+00 -0.23048042891E+03  0.23048042891E+03  0.00000000000E+00 0. -1.
         25    2    1    2    0    0 -0.62508682072E+02 -0.42038683447E+02  0.32295048036E+02  0.14947765248E+03  0.12500404883E+03 0.  0.
          2    1    1    2  501    0  0.33328725820E+02  0.43227297293E+02 -0.16675265140E+03  0.17545896941E+03  0.00000000000E+00 0. -1.
          1    1    1    2  502    0  0.29179956251E+02 -0.11886138461E+01  0.27141919975E+03  0.27298583231E+03  0.00000000000E+00 0. -1.
         22    1    3    3    0    0 -0.24874044535E+02 -0.11861681610E+02  0.78183884804E+02  0.82898355986E+02  0.00000000000E+00 0.  1.
         22    1    3    3    0    0 -0.37634637537E+02 -0.30177001837E+02 -0.45888836767E+02  0.66579296499E+02  0.00000000000E+00 0.  1.
</event>
<event>
 7    1  0.5127424E-006  0.1259235E+03  0.7818608E-02  0.1240329E+00
          2   -1    0    0  502    0  0.00000000000E+00  0.00000000000E+00  0.28798404732E+04  0.28798404732E+04  0.00000000000E+00 0. -1.
          1   -1    0    0  501    0 -0.00000000000E+00 -0.00000000000E+00 -0.38700465789E+02  0.38700465789E+02  0.00000000000E+00 0. -1.
         25    2    1    2    0    0 -0.77548773124E+01 -0.12406137745E+03  0.99106480591E+03  0.10066204738E+04  0.12499586134E+03 0.  0.
          2    1    1    2  501    0  0.11560301105E+03  0.49926564291E+02  0.11080433609E+03  0.16773287955E+03  0.00000000000E+00 0. -1.
          1    1    1    2  502    0 -0.10784813374E+03  0.74134813162E+02  0.17392708654E+04  0.17441875856E+04  0.00000000000E+00 0. -1.
         22    1    3    3    0    0 -0.62984236137E+02 -0.40341658740E+02  0.48210189198E+03  0.48786954986E+03  0.00000000000E+00 0. -1.
         22    1    3    3    0    0  0.55229358824E+02 -0.83719718713E+02  0.50896291394E+03  0.51875092399E+03  0.00000000000E+00 0. -1.
</event>
<event>
 7    1  0.5127424E-006  0.3157191E+02  0.7818608E-02  0.1621199E+00
          2   -1    0    0  502    0  0.00000000000E+00  0.00000000000E+00  0.81112545813E+03  0.81112545813E+03  0.00000000000E+00 0. -1.
          1   -1    0    0  501    0 -0.00000000000E+00 -0.00000000000E+00 -0.42571885350E+03  0.42571885350E+03  0.00000000000E+00 0. -1.
         25    2    1    2    0    0  0.54431889921E+02 -0.77668586211E+01 -0.16600709684E+03  0.21495682994E+03  0.12499971122E+03 0.  0.
          2    1    1    2  501    0 -0.29584143381E+02  0.79449789318E+01 -0.23404234887E+03  0.23603848266E+03  0.00000000000E+00 0. -1.
          1    1    1    2  502    0 -0.24847746541E+02 -0.17812031072E+00  0.78545605035E+03  0.78584899902E+03  0.00000000000E+00 0. -1.
         22    1    3    3    0    0 -0.33306662521E+00  0.41081010355E+02 -0.12349192161E+03  0.13014612959E+03  0.00000000000E+00 0.  1.
         22    1    3    3    0    0  0.54764956547E+02 -0.48847868976E+02 -0.42515175235E+02  0.84810700353E+02  0.00000000000E+00 0.  1.
</event>
<event>
 7    1  0.5127424E-006  0.8459578E+02  0.7818608E-02  0.1487122E+00
          2   -1    0    0  502    0  0.00000000000E+00  0.00000000000E+00  0.28253023910E+04  0.28253023910E+04  0.00000000000E+00 0. -1.
          1   -1    0    0  501    0 -0.00000000000E+00 -0.00000000000E+00 -0.46601300320E+02  0.46601300320E+02  0.00000000000E+00 0. -1.
         25    2    1    2    0    0 -0.50072004930E+02 -0.48105244426E+02  0.11596378439E+04  0.11684202256E+04  0.12499829737E+03 0.  0.
          2    1    1    2  501    0 -0.55488841823E+01 -0.21157548094E+02 -0.38104717917E+02  0.43936334446E+02  0.00000000000E+00 0. -1.
          1    1    1    2  502    0  0.55620889113E+02  0.69262792520E+02  0.16571679648E+04  0.16595471314E+04  0.00000000000E+00 0. -1.
         22    1    3    3    0    0 -0.91026700497E+02 -0.45856675214E+02  0.84038796975E+03  0.84654629795E+03  0.00000000000E+00 0.  1.
         22    1    3    3    0    0  0.40954695567E+02 -0.22485692123E+01  0.31924987411E+03  0.32187392760E+03  0.00000000000E+00 0.  1.
</event>
<event>
 7    1  0.5127424E-006  0.5786675E+02  0.7818608E-02  0.1508076E+00
          2   -1    0    0  502    0  0.00000000000E+00  0.00000000000E+00  0.69025001846E+02  0.69025001846E+02  0.00000000000E+00 0. -1.
          1   -1    0    0  501    0 -0.00000000000E+00 -0.00000000000E+00 -0.12636432325E+04  0.12636432325E+04  0.00000000000E+00 0. -1.
         25    2    1    2    0    0 -0.50182221533E+02  0.15768202111E+02 -0.10446500735E+04  0.10534161091E+04  0.12499932540E+03 0.  0.
          2    1    1    2  501    0 -0.67644035148E+01 -0.26835811928E+02 -0.20044953841E+03  0.20235102028E+03  0.00000000000E+00 0. -1.
          1    1    1    2  502    0  0.56946625048E+02  0.11067609818E+02  0.50481381243E+02  0.76901104957E+02  0.00000000000E+00 0. -1.
         22    1    3    3    0    0  0.52698516289E+01 -0.49481708662E+02 -0.41363038714E+03  0.41661289945E+03  0.00000000000E+00 0.  1.
         22    1    3    3    0    0 -0.55452073162E+02  0.65249910773E+02 -0.63101968636E+03  0.63680320967E+03  0.00000000000E+00 0.  1.
</event>
<event>
 7    1  0.5127424E-006  0.7322129E+02  0.7818608E-02  0.1451739E+00
          2   -1    0    0  502    0  0.00000000000E+00  0.00000000000E+00  0.74033626746E+03  0.74033626746E+03  0.00000000000E+00 0. -1.
          1   -1    0    0  501    0 -0.00000000000E+00 -0.00000000000E+00 -0.44573134835E+03  0.44573134835E+03  0.00000000000E+00 0. -1.
         25    2    1    2    0    0 -0.42927348400E+02  0.40649470800E+02 -0.15469491274E+03  0.20748593309E+03  0.12499903874E+03 0.  0.
          2    1    1    2  501    0 -0.26992855937E+02 -0.18222539355E+02 -0.26174100527E+03  0.26375941510E+03  0.00000000000E+00 0. -1.
          1    1    1    2  502    0  0.69920204336E+02 -0.22426931446E+02  0.71104083712E+03  0.71482226762E+03  0.00000000000E+00 0. -1.
         22    1    3    3    0    0  0.12473104368E+00  0.55881239586E+02 -0.11323419757E+02  0.57017088057E+02  0.00000000000E+00 0. -1.
         22    1    3    3    0    0 -0.43052079443E+02 -0.15231768785E+02 -0.14337149299E+03  0.15046884503E+03  0.00000000000E+00 0. -1.
</event>
<event>
 7    1  0.5127424E-006  0.3913491E+02  0.7818608E-02  0.1598798E+00
          2   -1    0    0  502    0  0.00000000000E+00  0.00000000000E+00  0.56912203141E+03  0.56912203141E+03  0.00000000000E+00 0. -1.
          1   -1    0    0  501    0 -0.00000000000E+00 -0.00000000000E+00 -0.53504271222E+03  0.53504271222E+03  0.00000000000E+00 0. -1.
         25    2    1    2    0    0  0.16153133840E+02 -0.55089104910E+02 -0.93911267638E+02  0.16655119133E+03  0.12499695968E+03 0.  0.
          2    1    1    2  501    0  0.50906921225E+01  0.22326166127E+02 -0.40377121491E+03  0.40442003763E+03  0.00000000000E+00 0. -1.
          1    1    1    2  502    0 -0.21243825963E+02  0.32762938782E+02  0.53176180174E+03  0.53319351467E+03  0.00000000000E+00 0. -1.
         22    1    3    3    0    0  0.99081904433E+01 -0.95611633582E+02 -0.59719440847E+02  0.11316434213E+03  0.00000000000E+00 0. -1.
         22    1    3    3    0    0  0.62449433969E+01  0.40522528672E+02 -0.34191826791E+02  0.53386849198E+02  0.00000000000E+00 0. -1.
</event>
<event>
 7    1  0.5127424E-006  0.7965212E+02  0.7818608E-02  0.1423517E+00
          2   -1    0    0  502    0  0.00000000000E+00  0.00000000000E+00  0.15054877184E+04  0.15054877184E+04  0.00000000000E+00 0. -1.
          1   -1    0    0  501    0 -0.00000000000E+00 -0.00000000000E+00 -0.39010383738E+02  0.39010383738E+02  0.00000000000E+00 0. -1.
         25    2    1    2    0    0  0.97486255064E+02 -0.48412584305E+02  0.37579956447E+03  0.41072764930E+03  0.12499816401E+03 0.  0.
          2    1    1    2  501    0 -0.71659150865E+02  0.21925116097E+02  0.44944071714E+02  0.87382573782E+02  0.00000000000E+00 0. -1.
          1    1    1    2  502    0 -0.25827104198E+02  0.26487468208E+02  0.10457336985E+04  0.10463878790E+04  0.00000000000E+00 0. -1.
         22    1    3    3    0    0  0.12027497951E+03 -0.65093248850E+02  0.29566283869E+03  0.32576021231E+03  0.00000000000E+00 0.  1.
         22    1    3    3    0    0 -0.22788724444E+02  0.16680664545E+02  0.80136725780E+02  0.84967436999E+02  0.00000000000E+00 0.  1.
</event>
<event>
 7    1  0.5127424E-006  0.5630016E+02  0.7818608E-02  0.1430644E+00
          2   -1    0    0  502    0  0.00000000000E+00  0.00000000000E+00  0.35310554104E+04  0.35310554104E+04  0.00000000000E+00 0. -1.
          1   -1    0    0  501    0 -0.00000000000E+00 -0.00000000000E+00 -0.75149952022E+02  0.75149952022E+02  0.00000000000E+00 0. -1.
         25    2    1    2    0    0 -0.33024224608E+02  0.20522967548E+02  0.27430566609E+03  0.30394098333E+03  0.12499892517E+03 0.  0.
          2    1    1    2  501    0 -0.17709465646E+02 -0.46304676212E+02 -0.49855077709E+02  0.70308441783E+02  0.00000000000E+00 0. -1.
          1    1    1    2  502    0  0.50733690254E+02  0.25781708664E+02  0.32314548701E+04  0.32319559374E+04  0.00000000000E+00 0. -1.
         22    1    3    3    0    0  0.41023394211E+01  0.39231898009E+02  0.25512351437E+03  0.25815495075E+03  0.00000000000E+00 0. -1.
         22    1    3    3    0    0 -0.37126564029E+02 -0.18708930461E+02  0.19182151715E+02  0.45786032586E+02  0.00000000000E+00 0. -1.
</event>
<event>
 7    1  0.5127424E-006  0.9495553E+02  0.7818608E-02  0.1390296E+00
          2   -1    0    0  502    0  0.00000000000E+00  0.00000000000E+00  0.20463223431E+03  0.20463223431E+03  0.00000000000E+00 0. -1.
          1   -1    0    0  501    0 -0.00000000000E+00 -0.00000000000E+00 -0.14608040248E+04  0.14608040248E+04  0.00000000000E+00 0. -1.
         25    2    1    2    0    0 -0.19658196339E+02 -0.55471380883E+02 -0.93104867714E+03  0.94124352053E+03  0.12499682777E+03 0.  0.
          2    1    1    2  501    0  0.87025292753E+01 -0.39312849794E+02 -0.51241621377E+03  0.51399572985E+03  0.00000000000E+00 0. -1.
          1    1    1    2  502    0  0.10955667064E+02  0.94784230676E+02  0.18729310041E+03  0.21019700875E+03  0.00000000000E+00 0. -1.
         22    1    3    3    0    0  0.33404285211E+02 -0.56237282949E+01 -0.77302431690E+02  0.84398687997E+02  0.00000000000E+00 0. -1.
         22    1    3    3    0    0 -0.53062481551E+02 -0.49847652588E+02 -0.85374624545E+03  0.85684483253E+03  0.00000000000E+00 0. -1.
</event>
<event>
 7    1  0.5127424E-006  0.7288515E+02  0.7818608E-02  0.1359426E+00
          2   -1    0    0  502    0  0.00000000000E+00  0.00000000000E+00  0.41810844466E+03  0.41810844466E+03  0.00000000000E+00 0. -1.
          1   -1    0    0  501    0 -0.00000000000E+00 -0.00000000000E+00 -0.25081866061E+03  0.25081866061E+03  0.00000000000E+00 0. -1.
         25    2    1    2    0    0  0.31935882801E+02 -0.33968698452E+02  0.10559644417E+02  0.13382633162E+03  0.12499683140E+03 0.  0.
          2    1    1    2  501    0 -0.76532006134E+02 -0.16843649328E+02 -0.17753846532E+03  0.19406381207E+03  0.00000000000E+00 0. -1.
          1    1    1    2  502    0  0.44596123334E+02  0.50812347779E+02  0.33426860496E+03  0.34103696158E+03  0.00000000000E+00 0. -1.
         22    1    3    3    0    0 -0.44978918155E+02  0.36542509785E+01  0.16373576381E+02  0.48005735408E+02  0.00000000000E+00 0.  1.
         22    1    3    3    0    0  0.76914800955E+02 -0.37622949430E+02 -0.58139319633E+01  0.85820596215E+02  0.00000000000E+00 0.  1.
</event>
<event>
 7    1  0.5127424E-006  0.7918401E+02  0.7818608E-02  0.1370117E+00
          2   -1    0    0  502    0  0.00000000000E+00  0.00000000000E+00  0.93301163884E+03  0.93301163884E+03  0.00000000000E+00 0. -1.
          1   -1    0    0  501    0 -0.00000000000E+00 -0.00000000000E+00 -0.20970040454E+03  0.20970040454E+03  0.00000000000E+00 0. -1.
         25    2    1    2    0    0  0.64329338385E+02 -0.11249006759E+03  0.98870754526E+02  0.20540750141E+03  0.12499814580E+03 0.  0.
          2    1    1    2  501    0 -0.23956243683E+02  0.72368110291E+02 -0.14603264119E+03  0.16473183448E+03  0.00000000000E+00 0. -1.
          1    1    1    2  502    0 -0.40373094702E+02  0.40121957295E+02  0.77047312096E+03  0.77257270749E+03  0.00000000000E+00 0. -1.
         22    1    3    3    0    0 -0.18845876282E+02 -0.64317590606E+02  0.85076089445E+02  0.10830448056E+03  0.00000000000E+00 0.  1.
         22    1    3    3    0    0  0.83175214668E+02 -0.48172476980E+02  0.13794665081E+02  0.97103020850E+02  0.00000000000E+00 0.  1.
</event>
<event>
 7    1  0.5127424E-006  0.9707294E+02  0.7818608E-02  0.1474562E+00
          2   -1    0    0  502    0  0.00000000000E+00  0.00000000000E+00  0.11508146568E+04  0.11508146568E+04  0.00000000000E+00 0. -1.
          1   -1    0    0  501    0 -0.00000000000E+00 -0.00000000000E+00 -0.11068762176E+03  0.11068762176E+03  0.00000000000E+00 0. -1.
         25    2    1    2    0    0  0.57768696048E+02  0.52978141516E+02  0.25721669344E+03  0.29653089708E+03  0.12500495916E+03 0.  0.
          2    1    1    2  501    0 -0.75569695130E+02 -0.63791509329E+02 -0.64005157995E+02  0.11779981212E+03  0.00000000000E+00 0. -1.
          1    1    1    2  502    0  0.17800999083E+02  0.10813367813E+02  0.84691549963E+03  0.84717156941E+03  0.00000000000E+00 0. -1.
         22    1    3    3    0    0  0.24527665933E+02  0.56880525317E+02  0.33690321835E+02  0.70512682135E+02  0.00000000000E+00 0. -1.
         22    1    3    3    0    0  0.33241030114E+02 -0.39023838009E+01  0.22352637160E+03  0.22601821494E+03  0.00000000000E+00 0. -1.
</event>
<event>
 7    1  0.5127424E-006  0.6704114E+02  0.7818608E-02  0.1490816E+00
          2   -1    0    0  502    0  0.00000000000E+00  0.00000000000E+00  0.17823377182E+02  0.17823377182E+02  0.00000000000E+00 0. -1.
          1   -1    0    0  501    0 -0.00000000000E+00 -0.00000000000E+00 -0.28864491830E+04  0.28864491830E+04  0.00000000000E+00 0. -1.
         25    2    1    2    0    0  0.11493112357E+02  0.78227965143E+02 -0.13480603739E+04  0.13561504312E+04  0.12500205639E+03 0.  0.
          2    1    1    2  501    0 -0.23662169980E+02 -0.12791265150E+02 -0.14531059775E+04  0.14533549107E+04  0.00000000000E+00 0. -1.
          1    1    1    2  502    0  0.12169057623E+02 -0.65436699993E+02 -0.67459454440E+02  0.94767218292E+02  0.00000000000E+00 0. -1.
         22    1    3    3    0    0  0.48520331290E+02  0.69650865785E+02 -0.12094013128E+04  0.12123765921E+04  0.00000000000E+00 0. -1.
         22    1    3    3    0    0 -0.37027218933E+02  0.85770993583E+01 -0.13865906107E+03  0.14377383903E+03  0.00000000000E+00 0. -1.
</event>
<event>
 7    1  0.5127424E-006  0.6662532E+02  0.7818608E-02  0.1430038E+00
          2   -1    0    0  502    0  0.00000000000E+00  0.00000000000E+00  0.27566900078E+04  0.27566900078E+04  0.00000000000E+00 0. -1.
          1   -1    0    0  501    0 -0.00000000000E+00 -0.00000000000E+00 -0.32294823743E+02  0.32294823743E+02  0.00000000000E+00 0. -1.
         25    2    1    2    0    0 -0.61219618321E+02 -0.11929747179E+02  0.88480597685E+03  0.89576480506E+03  0.12499123484E+03 0.  0.
          2    1    1    2  501    0  0.44581203435E+02  0.50586677498E+02  0.16201688292E+02  0.69346884166E+02  0.00000000000E+00 0. -1.
          1    1    1    2  502    0  0.16638414886E+02 -0.38656930319E+02  0.18233875189E+04  0.18238731423E+04  0.00000000000E+00 0. -1.
         22    1    3    3    0    0 -0.69206080435E+02  0.31396818757E+02  0.75225700240E+03  0.75608586778E+03  0.00000000000E+00 0.  1.
         22    1    3    3    0    0  0.79864621144E+01 -0.43326565936E+02  0.13254897445E+03  0.13967893728E+03  0.00000000000E+00 0.  1.
</event>
<event>
 7    1  0.5127424E-006  0.9362866E+02  0.7818608E-02  0.1431750E+00
          2   -1    0    0  502    0  0.00000000000E+00  0.00000000000E+00  0.25948943487E+04  0.25948943487E+04  0.00000000000E+00 0. -1.
          1   -1    0    0  501    0 -0.00000000000E+00 -0.00000000000E+00 -0.81064744174E+02  0.81064744174E+02  0.00000000000E+00 0. -1.
         25    2    1    2    0    0 -0.18037113127E+02 -0.63220261411E+02  0.87883337115E+03  0.89010978573E+03  0.12500078999E+03 0.  0.
          2    1    1    2  501    0  0.33393962758E+02  0.88480323203E+02 -0.45600882688E+02  0.10499221326E+03  0.00000000000E+00 0. -1.
          1    1    1    2  502    0 -0.15356849630E+02 -0.25260061793E+02  0.16805971161E+04  0.16808570939E+04  0.00000000000E+00 0. -1.
         22    1    3    3    0    0  0.71575618718E+00  0.37994572732E+02  0.26339602020E+03  0.26612321079E+03  0.00000000000E+00 0.  1.
         22    1    3    3    0    0 -0.18752869315E+02 -0.10121483414E+03  0.61543735095E+03  0.62398657493E+03  0.00000000000E+00 0.  1.
</event>
<event>
 7    1  0.5127424E-006  0.6523462E+02  0.7818608E-02  0.1432508E+00
          2   -1    0    0  502    0  0.00000000000E+00  0.00000000000E+00  0.36056162665E+03  0.36056162665E+03  0.00000000000E+00 0. -1.
          1   -1    0    0  501    0 -0.00000000000E+00 -0.00000000000E+00 -0.38021325360E+03  0.38021325360E+03  0.00000000000E+00 0. -1.
         25    2    1    2    0    0  0.81745738710E+02  0.19501912995E+02  0.49932897732E+02  0.15868433952E+03  0.12499893970E+03 0.  0.
          2    1    1    2  501    0 -0.62431267280E+02  0.18003658544E+02 -0.32082212851E+03  0.32733565800E+03  0.00000000000E+00 0. -1.
          1    1    1    2  502    0 -0.19314471430E+02 -0.37505571539E+02  0.25123760382E+03  0.25475488273E+03  0.00000000000E+00 0. -1.
         22    1    3    3    0    0  0.74038758316E+02  0.48555357417E+02 -0.12475270594E+02  0.89414723862E+02  0.00000000000E+00 0. -1.
         22    1    3    3    0    0  0.77069803933E+01 -0.29053444423E+02  0.62408168327E+02  0.69269615659E+02  0.00000000000E+00 0. -1.
</event>
<event>
 7    1  0.5127424E-006  0.6156131E+02  0.7818608E-02  0.1412300E+00
          2   -1    0    0  502    0  0.00000000000E+00  0.00000000000E+00  0.43075789872E+03  0.43075789872E+03  0.00000000000E+00 0. -1.
          1   -1    0    0  501    0 -0.00000000000E+00 -0.00000000000E+00 -0.19874210163E+04  0.19874210163E+04  0.00000000000E+00 0. -1.
         25    2    1    2    0    0 -0.68297519759E+02  0.83216416719E+02 -0.29112568432E+03  0.33461577770E+03  0.12499612554E+03 0.  0.
          2    1    1    2  501    0  0.49748826781E+02 -0.34430853339E+02 -0.16723359949E+04  0.16734300431E+04  0.00000000000E+00 0. -1.
          1    1    1    2  502    0  0.18548692978E+02 -0.48785563379E+02  0.40679856163E+03  0.41013309419E+03  0.00000000000E+00 0. -1.
         22    1    3    3    0    0  0.31330513265E+02  0.29204253851E+02 -0.13544192259E+03  0.14205282080E+03  0.00000000000E+00 0.  1.
         22    1    3    3    0    0 -0.99628033024E+02  0.54012162868E+02 -0.15568376173E+03  0.19256295690E+03  0.00000000000E+00 0.  1.
</event>
<event>
 7    1  0.5127424E-006  0.1656519E+03  0.7818608E-02  0.1302543E+00
          2   -1    0    0  502    0  0.00000000000E+00  0.00000000000E+00  0.62736255921E+03  0.62736255921E+03  0.00000000000E+00 0. -1.
          1   -1    0    0  501    0 -0.00000000000E+00 -0.00000000000E+00 -0.27738699937E+03  0.27738699937E+03  0.00000000000E+00 0. -1.
         25    2    1    2    0    0 -0.14428365191E+03  0.13517537107E+03  0.23964503072E+03  0.33488041735E+03  0.12500000011E+03 0.  0.
          2    1    1    2  501    0  0.19071075729E+02 -0.45176059365E+02 -0.20931004108E+03  0.21497738385E+03  0.00000000000E+00 0. -1.
          1    1    1    2  502    0  0.12521257618E+03 -0.89999311701E+02  0.31964057020E+03  0.35489175738E+03  0.00000000000E+00 0. -1.
         22    1    3    3    0    0 -0.15651043009E+03  0.11885266231E+03  0.16225800166E+03  0.25485119024E+03  0.00000000000E+00 0.  1.
         22    1    3    3    0    0  0.12226778180E+02  0.16322708761E+02  0.77387029064E+02  0.80029227119E+02  0.00000000000E+00 0.  1.
</event>
<event>
 7    1  0.5127424E-006  0.7898138E+02  0.7818608E-02  0.1352572E+00
          2   -1    0    0  502    0  0.00000000000E+00  0.00000000000E+00  0.18715214804E+03  0.18715214804E+03  0.00000000000E+00 0. -1.
          1   -1    0    0  501    0 -0.00000000000E+00 -0.00000000000E+00 -0.42190966909E+03  0.42190966909E+03  0.00000000000E+00 0. -1.
         25    2    1    2    0    0 -0.39091115101E+02  0.45673739423E+02 -0.10894871454E+03  0.17637969788E+03  0.12500307865E+03 0.  0.
          2    1    1    2  501    0  0.56215670426E+02  0.34791666672E+02 -0.26383874133E+03  0.27199548360E+03  0.00000000000E+00 0. -1.
          1    1    1    2  502    0 -0.17124555325E+02 -0.80465406095E+02  0.13802993482E+03  0.16068663566E+03  0.00000000000E+00 0. -1.
         22    1    3    3    0    0 -0.68879146243E+02  0.19339345305E+02 -0.11571814647E+03  0.13604791981E+03  0.00000000000E+00 0.  1.
         22    1    3    3    0    0  0.29788031142E+02  0.26334394119E+02  0.67694319316E+01  0.40331778061E+02  0.00000000000E+00 0.  1.
</event>
<event>
 7    1  0.5127424E-006  0.2459483E+03  0.7818608E-02  0.1199687E+00
          2   -1    0    0  502    0  0.00000000000E+00  0.00000000000E+00  0.42933855942E+03  0.42933855942E+03  0.00000000000E+00 0. -1.
          1   -1    0    0  501    0 -0.00000000000E+00 -0.00000000000E+00 -0.21193455750E+04  0.21193455750E+04  0.00000000000E+00 0. -1.
         25    2    1    2    0    0 -0.19510097134E+03  0.71816321915E+02 -0.57377170143E+03  0.62294547627E+03  0.12500051173E+03 0.  0.
          2    1    1    2  501    0 -0.54113747454E+02 -0.74731868120E+02 -0.14810477648E+04  0.14839190110E+04  0.00000000000E+00 0. -1.
          1    1    1    2  502    0  0.24921471880E+03  0.29155462049E+01  0.36481245060E+03  0.44181964713E+03  0.00000000000E+00 0. -1.
         22    1    3    3    0    0 -0.12298866679E+03  0.27104493928E+02 -0.17718092057E+03  0.21737972390E+03  0.00000000000E+00 0. -1.
         22    1    3    3    0    0 -0.72112304551E+02  0.44711827987E+02 -0.39659078086E+03  0.40556575237E+03  0.00000000000E+00 0. -1.
</event>
<event>
 7    1  0.5127424E-006  0.5380563E+02  0.7818608E-02  0.1438785E+00
          2   -1    0    0  502    0  0.00000000000E+00  0.00000000000E+00  0.45051548695E+03  0.45051548695E+03  0.00000000000E+00 0. -1.
          1   -1    0    0  501    0 -0.00000000000E+00 -0.00000000000E+00 -0.69030847118E+02  0.69030847118E+02  0.00000000000E+00 0. -1.
         25    2    1    2    0    0 -0.27694484055E+02  0.13899923169E+02  0.20515120189E+03  0.24222369173E+03  0.12500043555E+03 0.  0.
          2    1    1    2  501    0  0.33752774730E+02  0.41902220301E+02 -0.31292309795E+02  0.62243509866E+02  0.00000000000E+00 0. -1.
          1    1    1    2  502    0 -0.60582906755E+01 -0.55802143470E+02  0.20762574773E+03  0.21507913247E+03  0.00000000000E+00 0. -1.
         22    1    3    3    0    0 -0.73280184844E+02 -0.12403015450E+02  0.13967083334E+03  0.15821429129E+03  0.00000000000E+00 0. -1.
         22    1    3    3    0    0  0.45585700789E+02  0.26302938619E+02  0.65480368552E+02  0.84009400439E+02  0.00000000000E+00 0. -1.
</event>
<event>
 7    1  0.5127424E-006  0.6224814E+02  0.7818608E-02  0.1409596E+00
          2   -1    0    0  502    0  0.00000000000E+00  0.00000000000E+00  0.27963054711E+03  0.27963054711E+03  0.00000000000E+00 0. -1.
          1   -1    0    0  501    0 -0.00000000000E+00 -0.00000000000E+00 -0.11647577899E+04  0.11647577899E+04  0.00000000000E+00 0. -1.
         25    2    1    2    0    0  0.93693786055E+02 -0.59510691901E+02 -0.83682388594E+03  0.85335801694E+03  0.12500256396E+03 0.  0.
          2    1    1    2  501    0 -0.50569338493E+02  0.14889149387E+02 -0.31389232489E+03  0.31828813422E+03  0.00000000000E+00 0. -1.
          1    1    1    2  502    0 -0.43124447562E+02  0.44621542515E+02  0.26558896801E+03  0.27274218589E+03  0.00000000000E+00 0. -1.
         22    1    3    3    0    0  0.95793553645E+01 -0.65026140158E+02 -0.56377458899E+03  0.56759312024E+03  0.00000000000E+00 0.  1.
         22    1    3    3    0    0  0.84114430690E+02  0.55154482565E+01 -0.27304929695E+03  0.28576489670E+03  0.00000000000E+00 0.  1.
</event>
<event>
 7    1  0.5127424E-006  0.7266641E+02  0.7818608E-02  0.1376218E+00
          2   -1    0    0  502    0  0.00000000000E+00  0.00000000000E+00  0.21078025017E+04  0.21078025017E+04  0.00000000000E+00 0. -1.
          1   -1    0    0  501    0 -0.00000000000E+00 -0.00000000000E+00 -0.10251979736E+03  0.10251979736E+03  0.00000000000E+00 0. -1.
         25    2    1    2    0    0 -0.90015472141E+02  0.13647951279E+02  0.17411650499E+04  0.17480222337E+04  0.12504777843E+03 0.  0.
          2    1    1    2  501    0  0.47758866604E+02 -0.54799389284E+02 -0.82928612731E+02  0.11027709288E+03  0.00000000000E+00 0. -1.
          1    1    1    2  502    0  0.42256605537E+02  0.41151438005E+02  0.34704626718E+03  0.35202297244E+03  0.00000000000E+00 0. -1.
         22    1    3    3    0    0 -0.22929993722E+02  0.58629096795E+02  0.10983537188E+04  0.11001563740E+04  0.00000000000E+00 0. -1.
         22    1    3    3    0    0 -0.67085478419E+02 -0.44981145517E+02  0.64281133110E+03  0.64786585977E+03  0.00000000000E+00 0. -1.
</event>
<event>
 7    1  0.5127424E-006  0.1281341E+03  0.7818608E-02  0.1301985E+00
          2   -1    0    0  502    0  0.00000000000E+00  0.00000000000E+00  0.25340254210E+03  0.25340254210E+03  0.00000000000E+00 0. -1.
          1   -1    0    0  501    0 -0.00000000000E+00 -0.00000000000E+00 -0.34796231683E+03  0.34796231683E+03  0.00000000000E+00 0. -1.
         25    2    1    2    0    0  0.11260472396E+03 -0.13698194796E+03 -0.10849040799E+03  0.24256601878E+03  0.12499690762E+03 0.  0.
          2    1    1    2  501    0 -0.57574282808E+02  0.27303305915E+02 -0.14478048666E+03  0.15818235638E+03  0.00000000000E+00 0. -1.
          1    1    1    2  502    0 -0.55030441156E+02  0.10967864204E+03  0.15871111992E+03  0.20061648377E+03  0.00000000000E+00 0. -1.
         22    1    3    3    0    0  0.28465387443E+02 -0.87643315474E+02 -0.11191073166E+03  0.14496772361E+03  0.00000000000E+00 0.  1.
         22    1    3    3    0    0  0.84139336522E+02 -0.49338632483E+02  0.34203236647E+01  0.97598295167E+02  0.00000000000E+00 0.  1.
</event>
<event>
 7    1  0.5127424E-006  0.3410145E+03  0.7818608E-02  0.1217752E+00
          2   -1    0    0  502    0  0.00000000000E+00  0.00000000000E+00  0.91691061519E+03  0.91691061519E+03  0.00000000000E+00 0. -1.
          1   -1    0    0  501    0 -0.00000000000E+00 -0.00000000000E+00 -0.13148137638E+04  0.13148137638E+04  0.00000000000E+00 0. -1.
         25    2    1    2    0    0  0.32710042642E+03 -0.12514126434E+02 -0.49867514802E+03  0.60946893944E+03  0.12499677025E+03 0.  0.
          2    1    1    2  501    0  0.84218252396E+01 -0.54197841790E+02 -0.72570669147E+03  0.72777643218E+03  0.00000000000E+00 0. -1.
          1    1    1    2  502    0 -0.33552225166E+03  0.66711968223E+02  0.82647869090E+03  0.89447900734E+03  0.00000000000E+00 0. -1.
         22    1    3    3    0    0  0.30957451207E+03 -0.17705200012E+02 -0.38504431886E+03  0.49437736611E+03  0.00000000000E+00 0. -1.
         22    1    3    3    0    0  0.17525914349E+02  0.51910735782E+01 -0.11363082916E+03  0.11509157334E+03  0.00000000000E+00 0. -1.
</event>
<event>
 7    1  0.5127424E-006  0.4544050E+02  0.7818608E-02  0.1585646E+00
          2   -1    0    0  502    0  0.00000000000E+00  0.00000000000E+00  0.71919499839E+03  0.71919499839E+03  0.00000000000E+00 0. -1.
          1   -1    0    0  501    0 -0.00000000000E+00 -0.00000000000E+00 -0.21955959857E+02  0.21955959857E+02  0.00000000000E+00 0. -1.
         25    2    1    2    0    0  0.24491249676E+02 -0.14914330372E+02  0.35808193498E+03  0.38035421339E+03  0.12499758767E+03 0.  0.
          2    1    1    2  501    0 -0.45848613312E+02  0.14443414388E+02  0.44939957545E+02  0.65805070823E+02  0.00000000000E+00 0. -1.
          1    1    1    2  502    0  0.21357363636E+02  0.47091598451E+00  0.29421714601E+03  0.29499167403E+03  0.00000000000E+00 0. -1.
         22    1    3    3    0    0  0.20854637690E+02 -0.14948448910E+02  0.36656606936E+01  0.25919280590E+02  0.00000000000E+00 0. -1.
         22    1    3    3    0    0  0.36366119868E+01  0.34118537866E-01  0.35441627428E+03  0.35443493280E+03  0.00000000000E+00 0. -1.
</event>
<event>
 7    1  0.5127424E-006  0.1635412E+03  0.7818608E-02  0.1391960E+00
          2   -1    0    0  502    0  0.00000000000E+00  0.00000000000E+00  0.93140122742E+03  0.93140122742E+03  0.00000000000E+00 0. -1.
          1   -1    0    0  501    0 -0.00000000000E+00 -0.00000000000E+00 -0.97177070872E+02  0.97177070872E+02  0.00000000000E+00 0. -1.
         25    2    1    2    0    0 -0.33499766165E+02  0.14371137095E+03  0.37544973849E+03  0.42232988697E+03  0.12499933927E+03 0.  0.
          2    1    1    2  501    0  0.25777876571E+02 -0.16544912899E+03  0.22021988422E+02  0.16888718477E+03  0.00000000000E+00 0. -1.
          1    1    1    2  502    0  0.77218895939E+01  0.21737758038E+02  0.43675242964E+03  0.43736122656E+03  0.00000000000E+00 0. -1.
         22    1    3    3    0    0 -0.72838686742E+02  0.56076372103E+02  0.13424928963E+03  0.16270496477E+03  0.00000000000E+00 0. -1.
         22    1    3    3    0    0  0.39338920577E+02  0.87634998849E+02  0.24120044886E+03  0.25962492219E+03  0.00000000000E+00 0. -1.
</event>
<event>
 7    1  0.5127424E-006  0.8642074E+02  0.7818608E-02  0.1379581E+00
          2   -1    0    0  502    0  0.00000000000E+00  0.00000000000E+00  0.95758080981E+03  0.95758080981E+03  0.00000000000E+00 0. -1.
          1   -1    0    0  501    0 -0.00000000000E+00 -0.00000000000E+00 -0.55137654752E+03  0.55137654752E+03  0.00000000000E+00 0. -1.
         25    2    1    2    0    0 -0.85606624478E+01  0.23404786966E+02 -0.36066242071E+03  0.38252309969E+03  0.12500188437E+03 0.  0.
          2    1    1    2  501    0  0.87263899697E+02  0.12293177002E+02 -0.16686796860E+03  0.18870884806E+03  0.00000000000E+00 0. -1.
          1    1    1    2  502    0 -0.78703237249E+02 -0.35697963968E+02  0.93373465159E+03  0.93772540958E+03  0.00000000000E+00 0. -1.
         22    1    3    3    0    0  0.16890522693E-01  0.64926190058E+02 -0.10561437000E+03  0.12397502003E+03  0.00000000000E+00 0.  1.
         22    1    3    3    0    0 -0.85775529705E+01 -0.41521403093E+02 -0.25504805070E+03  0.25854807966E+03  0.00000000000E+00 0.  1.
</event>
<event>
 7    1  0.5127424E-006  0.1004665E+03  0.7818608E-02  0.1307072E+00
          2   -1    0    0  502    0  0.00000000000E+00  0.00000000000E+00  0.11748706315E+04  0.11748706315E+04  0.00000000000E+00 0. -1.
          1   -1    0    0  501    0 -0.00000000000E+00 -0.00000000000E+00 -0.40627909869E+03  0.40627909869E+03  0.00000000000E+00 0. -1.
         25    2    1    2    0    0  0.38287216307E+02 -0.14836432557E+03  0.98072723513E+02  0.22072987950E+03  0.12500214627E+03 0.  0.
          2    1    1    2  501    0  0.19653104198E+02  0.96786991442E+02 -0.33635887063E+03  0.35055849165E+03  0.00000000000E+00 0. -1.
          1    1    1    2  502    0 -0.57940320505E+02  0.51577334132E+02  0.10068776800E+04  0.10098613591E+04  0.00000000000E+00 0. -1.
         22    1    3    3    0    0 -0.32196181693E+02 -0.10418386227E+03  0.29609102806E+02  0.11299367346E+03  0.00000000000E+00 0. -1.
         22    1    3    3    0    0  0.70483397999E+02 -0.44180463301E+02  0.68463620707E+02  0.10773620604E+03  0.00000000000E+00 0. -1.
</event>
<event>
 7    1  0.5127424E-006  0.5199924E+02  0.7818608E-02  0.1454794E+00
          2   -1    0    0  502    0  0.00000000000E+00  0.00000000000E+00  0.26643670882E+03  0.26643670882E+03  0.00000000000E+00 0. -1.
          1   -1    0    0  501    0 -0.00000000000E+00 -0.00000000000E+00 -0.23191430554E+04  0.23191430554E+04  0.00000000000E+00 0. -1.
         25    2    1    2    0    0  0.15611599659E+02 -0.86155141654E+01 -0.86776428776E+02  0.15320994217E+03  0.12500075464E+03 0.  0.
          2    1    1    2  501    0 -0.49080651012E+01  0.52163248151E+02 -0.21966789501E+04  0.21973036894E+04  0.00000000000E+00 0. -1.
          1    1    1    2  502    0 -0.10703534558E+02 -0.43547733986E+02  0.23074903233E+03  0.23506613263E+03  0.00000000000E+00 0. -1.
         22    1    3    3    0    0  0.36704680299E+02 -0.58825834408E+02 -0.33434812808E+02  0.76977912788E+02  0.00000000000E+00 0.  1.
         22    1    3    3    0    0 -0.21093080640E+02  0.50210320243E+02 -0.53341615968E+02  0.76232029383E+02  0.00000000000E+00 0.  1.
</event>
<event>
 7    1  0.5127424E-006  0.7019079E+02  0.7818608E-02  0.1439245E+00
          2   -1    0    0  502    0  0.00000000000E+00  0.00000000000E+00  0.28107389259E+02  0.28107389259E+02  0.00000000000E+00 0. -1.
          1   -1    0    0  501    0 -0.00000000000E+00 -0.00000000000E+00 -0.13110280491E+04  0.13110280491E+04  0.00000000000E+00 0. -1.
         25    2    1    2    0    0 -0.66480429757E+02 -0.81326882898E+02 -0.32425450994E+03  0.36304270063E+03  0.12500122337E+03 0.  0.
          2    1    1    2  501    0  0.40719284935E+02  0.54390739006E+02 -0.91957113348E+03  0.92207780702E+03  0.00000000000E+00 0. -1.
          1    1    1    2  502    0  0.25761144822E+02  0.26936143892E+02 -0.39095016390E+02  0.54014930685E+02  0.00000000000E+00 0. -1.
         22    1    3    3    0    0 -0.22097658597E+02  0.32293925315E+02 -0.55569670879E+02  0.67964641170E+02  0.00000000000E+00 0. -1.
         22    1    3    3    0    0 -0.44382771159E+02 -0.11362080821E+03 -0.26868483906E+03  0.29507805946E+03  0.00000000000E+00 0. -1.
</event>
<event>
 7    1  0.5127424E-006  0.2838139E+02  0.7818608E-02  0.1676363E+00
          2   -1    0    0  502    0  0.00000000000E+00  0.00000000000E+00  0.77181225456E+03  0.77181225456E+03  0.00000000000E+00 0. -1.
          1   -1    0    0  501    0 -0.00000000000E+00 -0.00000000000E+00 -0.21928034584E+02  0.21928034584E+02  0.00000000000E+00 0. -1.
         25    2    1    2    0    0 -0.21590482939E+02  0.22187073123E+02  0.26011309489E+03  0.29025502193E+03  0.12502295971E+03 0.  0.
          2    1    1    2  501    0 -0.67414672814E+01 -0.19075917557E+02  0.94692044784E+01  0.22338393971E+02  0.00000000000E+00 0. -1.
          1    1    1    2  502    0  0.28331950220E+02 -0.31111555663E+01  0.48030192060E+03  0.48114687324E+03  0.00000000000E+00 0. -1.
         22    1    3    3    0    0 -0.51405310013E+02 -0.24173940893E+02  0.20334013773E+03  0.21112578461E+03  0.00000000000E+00 0. -1.
         22    1    3    3    0    0  0.29814827074E+02  0.46361014016E+02  0.56772957164E+02  0.79129237322E+02  0.00000000000E+00 0. -1.
</event>
<event>
 7    1  0.5127424E-006  0.5832062E+02  0.7818608E-02  0.1503604E+00
          2   -1    0    0  502    0  0.00000000000E+00  0.00000000000E+00  0.93832945353E+03  0.93832945353E+03  0.00000000000E+00 0. -1.
          1   -1    0    0  501    0 -0.00000000000E+00 -0.00000000000E+00 -0.50958922211E+02  0.50958922211E+02  0.00000000000E+00 0. -1.
         25    2    1    2    0    0 -0.53989602323E+02 -0.55462517515E+02  0.40116718231E+03  0.42726096705E+03  0.12500343114E+03 0.  0.
          2    1    1    2  501    0  0.47788122921E+01  0.27903552670E+02 -0.30870816556E+02  0.41886186427E+02  0.00000000000E+00 0. -1.
          1    1    1    2  502    0  0.49210790031E+02  0.27558964845E+02  0.51707416556E+03  0.52014122226E+03  0.00000000000E+00 0. -1.
         22    1    3    3    0    0 -0.87479717334E+02 -0.36901467328E+02  0.18726277239E+03  0.20995657922E+03  0.00000000000E+00 0. -1.
         22    1    3    3    0    0  0.33490115011E+02 -0.18561050187E+02  0.21390440992E+03  0.21730438783E+03  0.00000000000E+00 0. -1.
</event>
<event>
 7    1  0.5127424E-006  0.1492388E+03  0.7818608E-02  0.1221118E+00
          2   -1    0    0  502    0  0.00000000000E+00  0.00000000000E+00  0.12069858305E+04  0.12069858305E+04  0.00000000000E+00 0. -1.
          1   -1    0    0  501    0 -0.00000000000E+00 -0.00000000000E+00 -0.36126977262E+03  0.36126977262E+03  0.00000000000E+00 0. -1.
         25    2    1    2    0    0  0.36920398471E+02  0.52997961244E+02  0.43367765914E+02  0.14723311052E+03  0.12499970397E+03 0.  0.
          2    1    1    2  501    0 -0.16069124567E+02 -0.17216181243E+03 -0.28154339869E+03  0.33040065340E+03  0.00000000000E+00 0. -1.
          1    1    1    2  502    0 -0.20851273905E+02  0.11916385119E+03  0.10838916906E+04  0.10906218392E+04  0.00000000000E+00 0. -1.
         22    1    3    3    0    0  0.37159115795E+02  0.59468932999E+02  0.82095531636E+02  0.10796772755E+03  0.00000000000E+00 0. -1.
         22    1    3    3    0    0 -0.23871732359E+00 -0.64709717544E+01 -0.38727765721E+02  0.39265382962E+02  0.00000000000E+00 0. -1.
</event>
<event>
 7    1  0.5127424E-006  0.5137679E+02  0.7818608E-02  0.1489154E+00
          2   -1    0    0  502    0  0.00000000000E+00  0.00000000000E+00  0.48445293963E+03  0.48445293963E+03  0.00000000000E+00 0. -1.
          1   -1    0    0  501    0 -0.00000000000E+00 -0.00000000000E+00 -0.34950439136E+03  0.34950439136E+03  0.00000000000E+00 0. -1.
         25    2    1    2    0    0  0.83781153304E+02  0.19820193585E+02 -0.62054310910E+02  0.16397677215E+03  0.12500209030E+03 0.  0.
          2    1    1    2  501    0 -0.35222302370E+02 -0.44974502143E+01 -0.23364755885E+03  0.23633031841E+03  0.00000000000E+00 0. -1.
          1    1    1    2  502    0 -0.48558850934E+02 -0.15322743371E+02  0.43065041804E+03  0.43365024043E+03  0.00000000000E+00 0. -1.
         22    1    3    3    0    0 -0.51272428455E+01  0.45992138428E+02  0.90614503577E+01  0.47155861766E+02  0.00000000000E+00 0.  1.
         22    1    3    3    0    0  0.88908396150E+02 -0.26171944842E+02 -0.71115761267E+02  0.11682091039E+03  0.00000000000E+00 0.  1.
</event>
<event>
 7    1  0.5127424E-006  0.1669622E+03  0.7818608E-02  0.1248235E+00
          2   -1    0    0  502    0  0.00000000000E+00  0.00000000000E+00  0.46398025526E+04  0.46398025526E+04  0.00000000000E+00 0. -1.
          1   -1    0    0  501    0 -0.00000000000E+00 -0.00000000000E+00 -0.74436278620E+02  0.74436278620E+02  0.00000000000E+00 0. -1.
         25    2    1    2    0    0  0.14563412365E+02  0.24158000248E+03  0.15140867510E+04  0.15383941745E+04  0.12499982477E+03 0.  0.
          2    1    1    2  501    0 -0.23177751634E+02 -0.16013223774E+03  0.44308055205E+02  0.16775799680E+03  0.00000000000E+00 0. -1.
          1    1    1    2  502    0  0.86143392695E+01 -0.81447764747E+02  0.30069714678E+04  0.30080866599E+04  0.00000000000E+00 0. -1.
         22    1    3    3    0    0  0.66517034520E+02  0.16028634208E+03  0.10665763948E+04  0.10806023474E+04  0.00000000000E+00 0. -1.
         22    1    3    3    0    0 -0.51953622155E+02  0.81293660405E+02  0.44751035616E+03  0.45779182709E+03  0.00000000000E+00 0. -1.
</event>
<event>
 7    1  0.5127424E-006  0.6320181E+02  0.7818608E-02  0.1492433E+00
          2   -1    0    0  502    0  0.00000000000E+00  0.00000000000E+00  0.11800823154E+04  0.11800823154E+04  0.00000000000E+00 0. -1.
          1   -1    0    0  501    0 -0.00000000000E+00 -0.00000000000E+00 -0.10202442564E+04  0.10202442564E+04  0.00000000000E+00 0. -1.
         25    2    1    2    0    0 -0.54411856497E+02  0.24376496867E+02  0.31691660396E+03  0.34585508697E+03  0.12499897434E+03 0.  0.
          2    1    1    2  501    0  0.40241273956E+02 -0.48773021554E+02 -0.10045462292E+04  0.10065342986E+04  0.00000000000E+00 0. -1.
          1    1    1    2  502    0  0.14170582542E+02  0.24396524687E+02  0.84746768421E+03  0.84793718612E+03  0.00000000000E+00 0. -1.
         22    1    3    3    0    0  0.17959693964E+02  0.50933286159E+02  0.18842286568E+03  0.19601001647E+03  0.00000000000E+00 0.  1.
         22    1    3    3    0    0 -0.72371550461E+02 -0.26556789292E+02  0.12849373828E+03  0.14984507050E+03  0.00000000000E+00 0.  1.
</event>
<event>
 7    1  0.5127424E-006  0.9152339E+02  0.7818608E-02  0.1356176E+00
          2   -1    0    0  502    0  0.00000000000E+00  0.00000000000E+00  0.21235178255E+03  0.21235178255E+03  0.00000000000E+00 0. -1.
          1   -1    0    0  501    0 -0.00000000000E+00 -0.00000000000E+00 -0.99792234022E+03  0.99792234022E+03  0.00000000000E+00 0. -1.
         25    2    1    2    0    0  0.14852650466E+02  0.34944100110E+02  0.21578266167E+02  0.13240958116E+03  0.12499993702E+03 0.  0.
          2    1    1    2  501    0 -0.30133394803E+02 -0.88127189206E+02 -0.93443798145E+03  0.93906802956E+03  0.00000000000E+00 0. -1.
          1    1    1    2  502    0  0.15280744337E+02  0.53183089096E+02  0.12728915761E+03  0.13879651205E+03  0.00000000000E+00 0. -1.
         22    1    3    3    0    0  0.38595004715E+02  0.74446933789E+02  0.73667680730E+01  0.84179508263E+02  0.00000000000E+00 0.  1.
         22    1    3    3    0    0 -0.23742354249E+02 -0.39502833679E+02  0.14211498094E+02  0.48230072901E+02  0.00000000000E+00 0.  1.
</event>
<event>
 7    1  0.5127424E-006  0.2280373E+03  0.7818608E-02  0.1255985E+00
          2   -1    0    0  502    0  0.00000000000E+00  0.00000000000E+00  0.83048414613E+03  0.83048414613E+03  0.00000000000E+00 0. -1.
          1   -1    0    0  501    0 -0.00000000000E+00 -0.00000000000E+00 -0.31941564905E+03  0.31941564905E+03  0.00000000000E+00 0. -1.
         25    2    1    2    0    0 -0.47147754448E+02  0.26030247142E+03  0.31651793786E+03  0.43103165627E+03  0.12499758536E+03 0.  0.
          2    1    1    2  501    0 -0.74362599538E+01 -0.55013877318E+02 -0.23403495342E+03  0.24052896724E+03  0.00000000000E+00 0. -1.
          1    1    1    2  502    0  0.54584014402E+02 -0.20528859411E+03  0.42858551265E+03  0.47833917166E+03  0.00000000000E+00 0. -1.
         22    1    3    3    0    0  0.38219354326E+02  0.48828815210E+02  0.45974507648E+02  0.77192147226E+02  0.00000000000E+00 0. -1.
         22    1    3    3    0    0 -0.85367108774E+02  0.21147365621E+03  0.27054343021E+03  0.35383950905E+03  0.00000000000E+00 0. -1.
</event>
<event>
 7    1  0.5127424E-006  0.8065337E+02  0.7818608E-02  0.1390318E+00
          2   -1    0    0  502    0  0.00000000000E+00  0.00000000000E+00  0.11061702423E+04  0.11061702423E+04  0.00000000000E+00 0. -1.
          1   -1    0    0  501    0 -0.00000000000E+00 -0.00000000000E+00 -0.42007137251E+03  0.42007137251E+03  0.00000000000E+00 0. -1.
         25    2    1    2    0    0 -0.19850397774E+00  0.12415400874E+03  0.20502208083E+03  0.27032291619E+03  0.12500467232E+03 0.  0.
          2    1    1    2  501    0  0.13750255804E+02 -0.78736693459E+02 -0.38264183439E+03  0.39090063937E+03  0.00000000000E+00 0. -1.
          1    1    1    2  502    0 -0.13551751827E+02 -0.45417315278E+02  0.86371862335E+03  0.86501805925E+03  0.00000000000E+00 0. -1.
         22    1    3    3    0    0  0.52705623857E+02  0.56630363140E+02  0.14894917096E+03  0.16784140236E+03  0.00000000000E+00 0. -1.
         22    1    3    3    0    0 -0.52904127834E+02  0.67523645597E+02  0.56072909867E+02  0.10248151383E+03  0.00000000000E+00 0. -1.
</event>
<event>
 7    1  0.5127424E-006  0.9223147E+02  0.7818608E-02  0.1359491E+00
          2   -1    0    0  502    0  0.00000000000E+00  0.00000000000E+00  0.87384590089E+03  0.87384590089E+03  0.00000000000E+00 0. -1.
          1   -1    0    0  501    0 -0.00000000000E+00 -0.00000000000E+00 -0.11614963239E+04  0.11614963239E+04  0.00000000000E+00 0. -1.
         25    2    1    2    0    0 -0.29546429334E+01  0.41398083965E+02 -0.65636487782E+02  0.14715772164E+03  0.12499886096E+03 0.  0.
          2    1    1    2  501    0  0.51288339503E+01 -0.94750372572E+02 -0.10521062379E+04  0.10563765777E+04  0.00000000000E+00 0. -1.
          1    1    1    2  502    0 -0.21741910169E+01  0.53352288607E+02  0.83009230270E+03  0.83180792543E+03  0.00000000000E+00 0. -1.
         22    1    3    3    0    0 -0.38897202256E+02 -0.17161603070E+02 -0.65927152721E+02  0.78446812741E+02  0.00000000000E+00 0. -1.
         22    1    3    3    0    0  0.35942559322E+02  0.58559687035E+02  0.29066493959E+00  0.68710908904E+02  0.00000000000E+00 0. -1.
</event>
<event>
 7    1  0.5127424E-006  0.8440922E+02  0.7818608E-02  0.1445316E+00
          2   -1    0    0  502    0  0.00000000000E+00  0.00000000000E+00  0.11263008011E+04  0.11263008011E+04  0.00000000000E+00 0. -1.
          1   -1    0    0  501    0 -0.00000000000E+00 -0.00000000000E+00 -0.86216611307E+02  0.86216611307E+02  0.00000000000E+00 0. -1.
         25    2    1    2    0    0 -0.47269195442E+02 -0.10274317247E+03  0.81361683684E+03  0.83089559439E+03  0.12499838099E+03 0.  0.
          2    1    1    2  501    0  0.37215608724E+02  0.74878068267E+02 -0.54036964178E+02  0.99557622197E+02  0.00000000000E+00 0. -1.
          1    1    1    2  502    0  0.10053586717E+02  0.27865104203E+02  0.28050431712E+03  0.28206419581E+03  0.00000000000E+00 0. -1.
         22    1    3    3    0    0  0.20365429841E+02 -0.38671018177E+02  0.54172069315E+03  0.54348091757E+03  0.00000000000E+00 0. -1.
         22    1    3    3    0    0 -0.67634625282E+02 -0.64072154292E+02  0.27189614369E+03  0.28741467682E+03  0.00000000000E+00 0. -1.
</event>
<event>
 7    1  0.5127424E-006  0.6268643E+02  0.7818608E-02  0.1448788E+00
          2   -1    0    0  502    0  0.00000000000E+00  0.00000000000E+00  0.68147071115E+03  0.68147071115E+03  0.00000000000E+00 0. -1.
          1   -1    0    0  501    0 -0.00000000000E+00 -0.00000000000E+00 -0.30198561826E+03  0.30198561826E+03  0.00000000000E+00 0. -1.
         25    2    1    2    0    0  0.57414999087E+02 -0.19885856869E+02  0.21663330585E+02  0.14067226978E+03  0.12500983229E+03 0.  0.
          2    1    1    2  501    0  0.27538160807E+01  0.38779547390E+02 -0.23925140399E+03  0.24238950289E+03  0.00000000000E+00 0. -1.
          1    1    1    2  502    0 -0.60168815168E+02 -0.18893690521E+02  0.59707316629E+03  0.60039455674E+03  0.00000000000E+00 0. -1.
         22    1    3    3    0    0 -0.35410451686E+02  0.84544128499E+01 -0.11385285161E+02  0.38144487196E+02  0.00000000000E+00 0.  1.
         22    1    3    3    0    0  0.92825450773E+02 -0.28340269719E+02  0.33048615747E+02  0.10252778258E+03  0.00000000000E+00 0.  1.
</event>
<event>
 7    1  0.5127424E-006  0.1130383E+03  0.7818608E-02  0.1441139E+00
          2   -1    0    0  502    0  0.00000000000E+00  0.00000000000E+00  0.49774653150E+02  0.49774653150E+02  0.00000000000E+00 0. -1.
          1   -1    0    0  501    0 -0.00000000000E+00 -0.00000000000E+00 -0.24427696305E+04  0.24427696305E+04  0.00000000000E+00 0. -1.
         25    2    1    2    0    0  0.78558330122E+02 -0.51410986677E+02 -0.19272655562E+04  0.19335955408E+04  0.12499876227E+03 0.  0.
          2    1    1    2  501    0  0.93028038872E+01 -0.20836208274E+02 -0.44220197541E+03  0.44279033051E+03  0.00000000000E+00 0. -1.
          1    1    1    2  502    0 -0.87861134009E+02  0.72247194951E+02 -0.23527445724E+02  0.11615841231E+03  0.00000000000E+00 0. -1.
         22    1    3    3    0    0  0.54100159006E+02  0.21389694608E+02 -0.13488216175E+04  0.13500755912E+04  0.00000000000E+00 0.  1.
         22    1    3    3    0    0  0.24458171116E+02 -0.72800681285E+02 -0.57844393873E+03  0.58351994961E+03  0.00000000000E+00 0.  1.
</event>
<event>
 7    1  0.5127424E-006  0.1829869E+03  0.7818608E-02  0.1353097E+00
          2   -1    0    0  502    0  0.00000000000E+00  0.00000000000E+00  0.84599782033E+03  0.84599782033E+03  0.00000000000E+00 0. -1.
          1   -1    0    0  501    0 -0.00000000000E+00 -0.00000000000E+00 -0.85186653429E+03  0.85186653429E+03  0.00000000000E+00 0. -1.
         25    2    1    2    0    0  0.16767656775E+03  0.20410710548E+02 -0.70820027544E+03  0.73871823859E+03  0.12499990967E+03 0.  0.
          2    1    1    2  501    0  0.15498434005E+02 -0.23807897464E+02 -0.11658000773E+03  0.11999131485E+03  0.00000000000E+00 0. -1.
          1    1    1    2  502    0 -0.18317500175E+03  0.33971869162E+01  0.81891156921E+03  0.83915480117E+03  0.00000000000E+00 0. -1.
         22    1    3    3    0    0  0.83582376616E+01 -0.23514129396E+02 -0.23231992686E+02  0.34095452809E+02  0.00000000000E+00 0.  1.
         22    1    3    3    0    0  0.15931833009E+03  0.43924839944E+02 -0.68496828276E+03  0.70462278578E+03  0.00000000000E+00 0.  1.
</event>
<event>
 7    1  0.5127424E-006  0.1109325E+03  0.7818608E-02  0.1276096E+00
          2   -1    0    0  502    0  0.00000000000E+00  0.00000000000E+00  0.46444314075E+03  0.46444314075E+03  0.00000000000E+00 0. -1.
          1   -1    0    0  501    0 -0.00000000000E+00 -0.00000000000E+00 -0.14813962362E+03  0.14813962362E+03  0.00000000000E+00 0. -1.
         25    2    1    2    0    0 -0.72277474385E+02 -0.30343686841E+02  0.27642027416E+03  0.31333443171E+03  0.12500210195E+03 0.  0.
          2    1    1    2  501    0 -0.10748415641E+03  0.27444192072E+02  0.44194044456E+02  0.11941164568E+03  0.00000000000E+00 0. -1.
          1    1    1    2  502    0  0.17976163080E+03  0.28994947691E+01 -0.43108014922E+01  0.17983668699E+03  0.00000000000E+00 0. -1.
         22    1    3    3    0    0 -0.74493487555E+02 -0.30428669939E+02  0.69283035542E+02  0.10618532223E+03  0.00000000000E+00 0.  1.
         22    1    3    3    0    0  0.22160131700E+01  0.84983098158E-01  0.20713723862E+03  0.20714910948E+03  0.00000000000E+00 0.  1.
</event>
<event>
 7    1  0.5127424E-006  0.9240251E+02  0.7818608E-02  0.1395370E+00
          2   -1    0    0  502    0  0.00000000000E+00  0.00000000000E+00  0.56521879181E+03  0.56521879181E+03  0.00000000000E+00 0. -1.
          1   -1    0    0  501    0 -0.00000000000E+00 -0.00000000000E+00 -0.45508293426E+02  0.45508293426E+02  0.00000000000E+00 0. -1.
         25    2    1    2    0    0 -0.32090351680E+02  0.10243250090E+03  0.44339263468E+03  0.47301491431E+03  0.12499549096E+03 0.  0.
          2    1    1    2  501    0  0.28338086033E+02 -0.27847388262E+02  0.22479652015E+02  0.45649303475E+02  0.00000000000E+00 0. -1.
          1    1    1    2  502    0  0.37522656468E+01 -0.74585112641E+02  0.53838211691E+02  0.92062867451E+02  0.00000000000E+00 0. -1.
         22    1    3    3    0    0 -0.59974093285E+02  0.73481911167E+02  0.15415653260E+03  0.18099922563E+03  0.00000000000E+00 0.  1.
         22    1    3    3    0    0  0.27883741605E+02  0.28950589737E+02  0.28923610208E+03  0.29201568869E+03  0.00000000000E+00 0.  1.
</event>
<event>
 7    1  0.5127424E-006  0.3613324E+02  0.7818608E-02  0.1592093E+00
          2   -1    0    0  502    0  0.00000000000E+00  0.00000000000E+00  0.19041626752E+04  0.19041626752E+04  0.00000000000E+00 0. -1.
          1   -1    0    0  501    0 -0.00000000000E+00 -0.00000000000E+00 -0.22666729033E+02  0.22666729033E+02  0.00000000000E+00 0. -1.
         25    2    1    2    0    0  0.15634916296E+02 -0.34808549947E+02  0.64235767550E+03  0.65551829784E+03  0.12499907908E+03 0.  0.
          2    1    1    2  501    0  0.10193612360E+02  0.34893141449E+02  0.47592078408E+01  0.36661848186E+02  0.00000000000E+00 0. -1.
          1    1    1    2  502    0 -0.25828528656E+02 -0.84591501859E-01  0.12343790629E+04  0.12346492582E+04  0.00000000000E+00 0. -1.
         22    1    3    3    0    0  0.44272322526E+02  0.56653789447E+01  0.85419173962E+02  0.96377229369E+02  0.00000000000E+00 0.  1.
         22    1    3    3    0    0 -0.28637406230E+02 -0.40473928892E+02  0.55693850154E+03  0.55914106847E+03  0.00000000000E+00 0.  1.
</event>
<event>
 7    1  0.5127424E-006  0.6773546E+02  0.7818608E-02  0.1460998E+00
          2   -1    0    0  502    0  0.00000000000E+00  0.00000000000E+00  0.23669171998E+04  0.23669171998E+04  0.00000000000E+00 0. -1.
          1   -1    0    0  501    0 -0.00000000000E+00 -0.00000000000E+00 -0.82533027139E+02  0.82533027139E+02  0.00000000000E+00 0. -1.
         25    2    1    2    0    0  0.45745232921E+02  0.60578242511E+01  0.41960851666E+03  0.44025628876E+03  0.12499987586E+03 0.  0.
          2    1    1    2  501    0 -0.58211460740E+02 -0.36509153952E+02 -0.55689655636E+02  0.88446764942E+02  0.00000000000E+00 0. -1.
          1    1    1    2  502    0  0.12466227819E+02  0.30451329701E+02  0.19204653116E+04  0.19207471733E+04  0.00000000000E+00 0. -1.
         22    1    3    3    0    0  0.28190038981E+02 -0.51176404446E+02  0.10648200745E+03  0.12145830799E+03  0.00000000000E+00 0.  1.
         22    1    3    3    0    0  0.17555193940E+02  0.57234228697E+02  0.31312650921E+03  0.31879798076E+03  0.00000000000E+00 0.  1.
</event>
<event>
 7    1  0.5127424E-006  0.8058708E+02  0.7818608E-02  0.1357885E+00
          2   -1    0    0  502    0  0.00000000000E+00  0.00000000000E+00  0.96691208886E+03  0.96691208886E+03  0.00000000000E+00 0. -1.
          1   -1    0    0  501    0 -0.00000000000E+00 -0.00000000000E+00 -0.11833167774E+04  0.11833167774E+04  0.00000000000E+00 0. -1.
         25    2    1    2    0    0 -0.28414475841E+02  0.12935875894E+03 -0.10373384228E+03  0.20958564266E+03  0.12499744246E+03 0.  0.
          2    1    1    2  501    0 -0.75227874741E+01 -0.78904686580E+02 -0.10240743001E+04  0.10271371447E+04  0.00000000000E+00 0. -1.
          1    1    1    2  502    0  0.35937263316E+02 -0.50454072364E+02  0.91140345389E+03  0.91350607884E+03  0.00000000000E+00 0. -1.
         22    1    3    3    0    0 -0.39735451716E+02 -0.11047808953E+02 -0.22631075112E+02  0.47043870658E+02  0.00000000000E+00 0. -1.
         22    1    3    3    0    0  0.11320975875E+02  0.14040656790E+03 -0.81102767169E+02  0.16254177200E+03  0.00000000000E+00 0. -1.
</event>
<event>
 7    1  0.5127424E-006  0.7845106E+02  0.7818608E-02  0.1350156E+00
          2   -1    0    0  502    0  0.00000000000E+00  0.00000000000E+00  0.96644505153E+03  0.96644505153E+03  0.00000000000E+00 0. -1.
          1   -1    0    0  501    0 -0.00000000000E+00 -0.00000000000E+00 -0.33244700526E+03  0.33244700526E+03  0.00000000000E+00 0. -1.
         25    2    1    2    0    0  0.22977741333E+02 -0.16491267627E+02 -0.12097679161E+03  0.17623998346E+03  0.12500083663E+03 0.  0.
          2    1    1    2  501    0 -0.80264020893E+02 -0.37107715739E+02 -0.17145061253E+03  0.19291088138E+03  0.00000000000E+00 0. -1.
          1    1    1    2  502    0  0.57286279560E+02  0.53598983366E+02  0.92642545041E+03  0.92974119195E+03  0.00000000000E+00 0. -1.
         22    1    3    3    0    0 -0.45585447016E+02  0.19025754420E+02 -0.60844847902E+02  0.78371600897E+02  0.00000000000E+00 0. -1.
         22    1    3    3    0    0  0.68563188349E+02 -0.35517022047E+02 -0.60131943704E+02  0.97868382562E+02  0.00000000000E+00 0. -1.
</event>
<event>
 7    1  0.5127424E-006  0.9331338E+02  0.7818608E-02  0.1443266E+00
          2   -1    0    0  502    0  0.00000000000E+00  0.00000000000E+00  0.30524814108E+03  0.30524814108E+03  0.00000000000E+00 0. -1.
          1   -1    0    0  501    0 -0.00000000000E+00 -0.00000000000E+00 -0.56098644258E+03  0.56098644258E+03  0.00000000000E+00 0. -1.
         25    2    1    2    0    0  0.10790951459E+03 -0.34342015440E+02  0.24410006303E+02  0.17040104681E+03  0.12496731966E+03 0.  0.
          2    1    1    2  501    0 -0.18270496819E+02  0.20160401817E+02 -0.47767846674E+03  0.47845268360E+03  0.00000000000E+00 0. -1.
          1    1    1    2  502    0 -0.89639017768E+02  0.14181613623E+02  0.19753015893E+03  0.21738085325E+03  0.00000000000E+00 0. -1.
         22    1    3    3    0    0  0.23647798247E+02  0.88190134151E+01 -0.45964017397E+02  0.52437431810E+02  0.00000000000E+00 0. -1.
         22    1    3    3    0    0  0.84261716340E+02 -0.43161028855E+02  0.70374023700E+02  0.11796361500E+03  0.00000000000E+00 0. -1.
</event>
<event>
 7    1  0.5127424E-006  0.1170025E+03  0.7818608E-02  0.1405963E+00
          2   -1    0    0  502    0  0.00000000000E+00  0.00000000000E+00  0.73134131218E+03  0.73134131218E+03  0.00000000000E+00 0. -1.
          1   -1    0    0  501    0 -0.00000000000E+00 -0.00000000000E+00 -0.17118252026E+03  0.17118252026E+03  0.00000000000E+00 0. -1.
         25    2    1    2    0    0  0.58184775745E+02  0.11965503660E+03 -0.47489594840E+02  0.18863481588E+03  0.12500014494E+03 0.  0.
          2    1    1    2  501    0 -0.27927940931E+02 -0.72559198355E+01 -0.43620026861E+02  0.52300334613E+02  0.00000000000E+00 0. -1.
          1    1    1    2  502    0 -0.30256834814E+02 -0.11239911676E+03  0.65126841361E+03  0.66158868194E+03  0.00000000000E+00 0. -1.
         22    1    3    3    0    0  0.39244598927E+02  0.33001541857E+02 -0.79274678516E+02  0.94412472500E+02  0.00000000000E+00 0.  1.
         22    1    3    3    0    0  0.18940176818E+02  0.86653494740E+02  0.31785083676E+02  0.94222343384E+02  0.00000000000E+00 0.  1.
</event>
<event>
 7    1  0.5127424E-006  0.1131185E+03  0.7818608E-02  0.1349210E+00
          2   -1    0    0  502    0  0.00000000000E+00  0.00000000000E+00  0.23831705952E+03  0.23831705952E+03  0.00000000000E+00 0. -1.
          1   -1    0    0  501    0 -0.00000000000E+00 -0.00000000000E+00 -0.41005500808E+03  0.41005500808E+03  0.00000000000E+00 0. -1.
         25    2    1    2    0    0  0.81383697156E+02 -0.67537438595E+02  0.37831247974E+02  0.16804975974E+03  0.12499962660E+03 0.  0.
          2    1    1    2  501    0 -0.11061037909E+03  0.30092179648E+02 -0.33081030052E+03  0.35010805499E+03  0.00000000000E+00 0. -1.
          1    1    1    2  502    0  0.29226681936E+02  0.37445258947E+02  0.12124110399E+03  0.13021425287E+03  0.00000000000E+00 0. -1.
         22    1    3    3    0    0  0.10079186397E+03 -0.53078538971E+02 -0.10094183405E+02  0.11436006156E+03  0.00000000000E+00 0. -1.
         22    1    3    3    0    0 -0.19408166816E+02 -0.14458899624E+02  0.47925431379E+02  0.53689698177E+02  0.00000000000E+00 0. -1.
</event>
<event>
 7    1  0.8141110E-006  0.1063707E+03  0.7818608E-02  0.1297860E+00
          2   -1    0    0  502    0  0.00000000000E+00  0.00000000000E+00  0.11690316278E+04  0.11690316278E+04  0.00000000000E+00 0. -1.
          1   -1    0    0  501    0 -0.00000000000E+00 -0.00000000000E+00 -0.16877391637E+04  0.16877391637E+04  0.00000000000E+00 0. -1.
         25    2    1    2    0    0  0.13518107280E+03  0.11744375134E+02 -0.13008979010E+03  0.22573964378E+03  0.12499272176E+03 0.  0.
          2    1    1    2  501    0 -0.44032813226E+02 -0.66470697901E+02 -0.15062473965E+04  0.15083562118E+04  0.00000000000E+00 0. -1.
          1    1    1    2  502    0 -0.91148259577E+02  0.54726322767E+02  0.11176296507E+04  0.11226749359E+04  0.00000000000E+00 0. -1.
         22    1    3    3    0    0  0.65845795918E+02 -0.52537210378E+02 -0.89318251845E+02  0.12277449828E+03  0.00000000000E+00 0. -1.
         22    1    3    3    0    0  0.69335276885E+02  0.64281585512E+02 -0.40771538255E+02  0.10296514550E+03  0.00000000000E+00 0. -1.
</event>
<event>
 7    1  0.5127424E-006  0.3160437E+03  0.7818608E-02  0.1274512E+00
          2   -1    0    0  502    0  0.00000000000E+00  0.00000000000E+00  0.23406721414E+04  0.23406721414E+04  0.00000000000E+00 0. -1.
          1   -1    0    0  501    0 -0.00000000000E+00 -0.00000000000E+00 -0.36098208056E+03  0.36098208056E+03  0.00000000000E+00 0. -1.
         25    2    1    2    0    0 -0.10413745271E+03 -0.30642055106E+03  0.29430193393E+03  0.45494990749E+03  0.12501050691E+03 0.  0.
          2    1    1    2  501    0  0.13071357632E+03  0.28612555397E+03 -0.19231795065E+03  0.36870050964E+03  0.00000000000E+00 0. -1.
          1    1    1    2  502    0 -0.26576123604E+02  0.20294997091E+02  0.18777060775E+04  0.18780038048E+04  0.00000000000E+00 0. -1.
         22    1    3    3    0    0 -0.72704325052E+02 -0.17424711556E+03  0.88917324895E+02  0.20869659037E+03  0.00000000000E+00 0. -1.
         22    1    3    3    0    0 -0.31433127660E+02 -0.13217343550E+03  0.20538460903E+03  0.24625331712E+03  0.00000000000E+00 0. -1.
</event>
<event>
 7    1  0.5127424E-006  0.1037950E+03  0.7818608E-02  0.1401823E+00
          2   -1    0    0  502    0  0.00000000000E+00  0.00000000000E+00  0.29186410847E+04  0.29186410847E+04  0.00000000000E+00 0. -1.
          1   -1    0    0  501    0 -0.00000000000E+00 -0.00000000000E+00 -0.87511635150E+03  0.87511635150E+03  0.00000000000E+00 0. -1.
         25    2    1    2    0    0 -0.19818639890E+02  0.94482163084E+02  0.72485617911E+03  0.74186377367E+03  0.12500288256E+03 0.  0.
          2    1    1    2  501    0  0.53020004224E+02 -0.89292879194E+02 -0.86337165496E+03  0.86959470658E+03  0.00000000000E+00 0. -1.
          1    1    1    2  502    0 -0.33201364334E+02 -0.51892838902E+01  0.21820402090E+04  0.21822989559E+04  0.00000000000E+00 0. -1.
         22    1    3    3    0    0 -0.67997832215E+02  0.67993477819E+02  0.34891049611E+03  0.36191898611E+03  0.00000000000E+00 0. -1.
         22    1    3    3    0    0  0.48179192326E+02  0.26488685265E+02  0.37594568300E+03  0.37994478755E+03  0.00000000000E+00 0. -1.
</event>
<event>
 7    1  0.5127424E-006  0.1969744E+03  0.7818608E-02  0.1342335E+00
          2   -1    0    0  502    0  0.00000000000E+00  0.00000000000E+00  0.94902928477E+03  0.94902928477E+03  0.00000000000E+00 0. -1.
          1   -1    0    0  501    0 -0.00000000000E+00 -0.00000000000E+00 -0.33142068974E+03  0.33142068974E+03  0.00000000000E+00 0. -1.
         25    2    1    2    0    0 -0.12485209318E+03 -0.12721797108E+03  0.22781463178E+03  0.31511261629E+03  0.12499598855E+03 0.  0.
          2    1    1    2  501    0  0.15378912997E+03  0.12703632221E+03 -0.25284019994E+03  0.32205199947E+03  0.00000000000E+00 0. -1.
          1    1    1    2  502    0 -0.28937036784E+02  0.18164886893E+00  0.64263416319E+03  0.64328535876E+03  0.00000000000E+00 0. -1.
         22    1    3    3    0    0 -0.10153054581E+02 -0.69024560617E+02  0.14832583133E+03  0.16391469344E+03  0.00000000000E+00 0. -1.
         22    1    3    3    0    0 -0.11469903860E+03 -0.58193410465E+02  0.79488800456E+02  0.15119792285E+03  0.00000000000E+00 0. -1.
</event>
<event>
 7    1  0.5127424E-006  0.8393563E+02  0.7818608E-02  0.1444086E+00
          2   -1    0    0  502    0  0.00000000000E+00  0.00000000000E+00  0.17142077781E+04  0.17142077781E+04  0.00000000000E+00 0. -1.
          1   -1    0    0  501    0 -0.00000000000E+00 -0.00000000000E+00 -0.23170549087E+03  0.23170549087E+03  0.00000000000E+00 0. -1.
         25    2    1    2    0    0  0.61918510955E+02  0.16212432066E+02  0.14191477264E+02  0.14114833114E+03  0.12499883362E+03 0.  0.
          2    1    1    2  501    0 -0.87110628810E+02  0.19417721978E+00 -0.15680183840E+03  0.17937423417E+03  0.00000000000E+00 0. -1.
          1    1    1    2  502    0  0.25192117856E+02 -0.16406609286E+02  0.16251126483E+04  0.16253907036E+04  0.00000000000E+00 0. -1.
         22    1    3    3    0    0  0.43555190887E+02 -0.52314090632E+02 -0.30447816503E+01  0.68140218866E+02  0.00000000000E+00 0. -1.
         22    1    3    3    0    0  0.18363320068E+02  0.68526522698E+02  0.17236258914E+02  0.73008112278E+02  0.00000000000E+00 0. -1.
</event>
<event>
 7    1  0.5127424E-006  0.8082799E+02  0.7818608E-02  0.1360140E+00
          2   -1    0    0  502    0  0.00000000000E+00  0.00000000000E+00  0.32751998987E+03  0.32751998987E+03  0.00000000000E+00 0. -1.
          1   -1    0    0  501    0 -0.00000000000E+00 -0.00000000000E+00 -0.98687644823E+03  0.98687644823E+03  0.00000000000E+00 0. -1.
         25    2    1    2    0    0 -0.42227295704E+02 -0.55609194585E+02 -0.18177104789E+03  0.23139059504E+03  0.12500146638E+03 0.  0.
          2    1    1    2  501    0  0.55179770135E+02 -0.25048014873E+02 -0.77357768428E+03  0.77594757793E+03  0.00000000000E+00 0. -1.
          1    1    1    2  502    0 -0.12952474431E+02  0.80657209458E+02  0.29599227380E+03  0.30705826512E+03  0.00000000000E+00 0. -1.
         22    1    3    3    0    0  0.26292672863E+02 -0.32914182217E+02 -0.14377606067E+03  0.14982057155E+03  0.00000000000E+00 0. -1.
         22    1    3    3    0    0 -0.68519968567E+02 -0.22695012368E+02 -0.37994987218E+02  0.81570023492E+02  0.00000000000E+00 0. -1.
</event>
<event>
 7    1  0.5127424E-006  0.1242013E+03  0.7818608E-02  0.1345973E+00
          2   -1    0    0  502    0  0.00000000000E+00  0.00000000000E+00  0.13252696574E+04  0.13252696574E+04  0.00000000000E+00 0. -1.
          1   -1    0    0  501    0 -0.00000000000E+00 -0.00000000000E+00 -0.61425017640E+03  0.61425017640E+03  0.00000000000E+00 0. -1.
         25    2    1    2    0    0  0.33742869057E+02  0.12137176378E+03 -0.81975658355E+02  0.19548481204E+03  0.12499846766E+03 0.  0.
          2    1    1    2  501    0 -0.73356821195E+02 -0.10114668197E+03 -0.46691294027E+03  0.48334208205E+03  0.00000000000E+00 0. -1.
          1    1    1    2  502    0  0.39613952138E+02 -0.20225081810E+02  0.12599080796E+04  0.12606929397E+04  0.00000000000E+00 0. -1.
         22    1    3    3    0    0 -0.21505396098E+01  0.11992498579E+03 -0.99195496061E+02  0.15564823634E+03  0.00000000000E+00 0. -1.
         22    1    3    3    0    0  0.35893408666E+02  0.14467779900E+01  0.17219837707E+02  0.39836575692E+02  0.00000000000E+00 0. -1.
</event>
<event>
 7    1  0.5127424E-006  0.6225982E+02  0.7818608E-02  0.1406232E+00
          2   -1    0    0  502    0  0.00000000000E+00  0.00000000000E+00  0.15924497592E+04  0.15924497592E+04  0.00000000000E+00 0. -1.
          1   -1    0    0  501    0 -0.00000000000E+00 -0.00000000000E+00 -0.27675307151E+03  0.27675307151E+03  0.00000000000E+00 0. -1.
         25    2    1    2    0    0  0.21012427727E+02  0.12729212846E+02 -0.99113797423E+02  0.16140659525E+03  0.12499995668E+03 0.  0.
          2    1    1    2  501    0 -0.21240372752E+02  0.49769070576E+02 -0.14084688530E+03  0.15088392532E+03  0.00000000000E+00 0. -1.
          1    1    1    2  502    0  0.22794502467E+00 -0.62498283421E+02  0.15556573704E+04  0.15569123101E+04  0.00000000000E+00 0. -1.
         22    1    3    3    0    0  0.12203389319E+02 -0.15583806298E+02 -0.12222167729E+03  0.12381403850E+03  0.00000000000E+00 0.  1.
         22    1    3    3    0    0  0.88090384082E+01  0.28313019144E+02  0.23107879869E+02  0.37592556747E+02  0.00000000000E+00 0.  1.
</event>
<event>
 7    1  0.5127424E-006  0.6640689E+02  0.7818608E-02  0.1412177E+00
          2   -1    0    0  502    0  0.00000000000E+00  0.00000000000E+00  0.12041062653E+04  0.12041062653E+04  0.00000000000E+00 0. -1.
          1   -1    0    0  501    0 -0.00000000000E+00 -0.00000000000E+00 -0.65786787575E+03  0.65786787575E+03  0.00000000000E+00 0. -1.
         25    2    1    2    0    0  0.16350651587E+02  0.77067448234E+02  0.22019013753E+03  0.26516864672E+03  0.12499591656E+03 0.  0.
          2    1    1    2  501    0  0.28904021690E+02 -0.59818419346E+02 -0.63302930416E+03  0.63650591960E+03  0.00000000000E+00 0. -1.
          1    1    1    2  502    0 -0.45254673276E+02 -0.17249028888E+02  0.95907755618E+03  0.96029957473E+03  0.00000000000E+00 0. -1.
         22    1    3    3    0    0  0.51576913567E+02  0.87651791115E+02  0.19695470497E+03  0.22166228887E+03  0.00000000000E+00 0.  1.
         22    1    3    3    0    0 -0.35226261981E+02 -0.10584342881E+02  0.23235432555E+02  0.43506357850E+02  0.00000000000E+00 0.  1.
</event>
<event>
 7    1  0.5127424E-006  0.7516565E+02  0.7818608E-02  0.1493170E+00
          2   -1    0    0  502    0  0.00000000000E+00  0.00000000000E+00  0.97206148740E+03  0.97206148740E+03  0.00000000000E+00 0. -1.
          1   -1    0    0  501    0 -0.00000000000E+00 -0.00000000000E+00 -0.50795020128E+02  0.50795020128E+02  0.00000000000E+00 0. -1.
         25    2    1    2    0    0  0.23646379710E+02 -0.50644817232E+02  0.82944329849E+02  0.16008709229E+03  0.12499626586E+03 0.  0.
          2    1    1    2  501    0  0.20853319302E+02 -0.11053524735E+02  0.27725219389E+01  0.23764010876E+02  0.00000000000E+00 0. -1.
          1    1    1    2  502    0 -0.44499699013E+02  0.61698341967E+02  0.83554961549E+03  0.83900540437E+03  0.00000000000E+00 0. -1.
         22    1    3    3    0    0 -0.18577951202E+02  0.22046001759E+01 -0.25890689215E+02  0.31942578494E+02  0.00000000000E+00 0. -1.
         22    1    3    3    0    0  0.42224330912E+02 -0.52849417408E+02  0.10883501906E+03  0.12814451380E+03  0.00000000000E+00 0. -1.
</event>
<event>
 7    1  0.5127424E-006  0.1387801E+03  0.7818608E-02  0.1259973E+00
          2   -1    0    0  502    0  0.00000000000E+00  0.00000000000E+00  0.58646970922E+03  0.58646970922E+03  0.00000000000E+00 0. -1.
          1   -1    0    0  501    0 -0.00000000000E+00 -0.00000000000E+00 -0.43440420813E+03  0.43440420813E+03  0.00000000000E+00 0. -1.
         25    2    1    2    0    0 -0.19605322985E+03 -0.54141788869E+02  0.31021244991E+03  0.39144052261E+03  0.12500286567E+03 0.  0.
          2    1    1    2  501    0  0.84426082558E+02  0.23741162440E+02 -0.37420786694E+03  0.38434741302E+03  0.00000000000E+00 0. -1.
          1    1    1    2  502    0  0.11162714729E+03  0.30400626429E+02  0.21606091811E+03  0.24508598172E+03  0.00000000000E+00 0. -1.
         22    1    3    3    0    0 -0.19294555688E+03 -0.76957432787E+02  0.30289081478E+03  0.36727820526E+03  0.00000000000E+00 0.  1.
         22    1    3    3    0    0 -0.31076729678E+01  0.22815643918E+02  0.73216351280E+01  0.24162317348E+02  0.00000000000E+00 0.  1.
</event>
<event>
 7    1  0.5127424E-006  0.1003602E+03  0.7818608E-02  0.1305824E+00
          2   -1    0    0  502    0  0.00000000000E+00  0.00000000000E+00  0.46931229599E+03  0.46931229599E+03  0.00000000000E+00 0. -1.
          1   -1    0    0  501    0 -0.00000000000E+00 -0.00000000000E+00 -0.88656921072E+03  0.88656921072E+03  0.00000000000E+00 0. -1.
         25    2    1    2    0    0  0.14055613414E+03  0.75985294831E+02  0.16188370348E+02  0.20350986347E+03  0.12499763726E+03 0.  0.
          2    1    1    2  501    0 -0.98549498146E+02 -0.96196980736E+01 -0.78547236305E+03  0.79168893846E+03  0.00000000000E+00 0. -1.
          1    1    1    2  502    0 -0.42006635997E+02 -0.66365596758E+02  0.35202707797E+03  0.36068270478E+03  0.00000000000E+00 0. -1.
         22    1    3    3    0    0  0.63342700420E+02  0.10206187274E+03  0.20683205940E+02  0.12188813959E+03  0.00000000000E+00 0. -1.
         22    1    3    3    0    0  0.77213433723E+02 -0.26076577910E+02 -0.44948355915E+01  0.81621723884E+02  0.00000000000E+00 0. -1.
</event>
<event>
 7    1  0.5127424E-006  0.9913765E+02  0.7818608E-02  0.1385555E+00
          2   -1    0    0  502    0  0.00000000000E+00  0.00000000000E+00  0.23629152397E+04  0.23629152397E+04  0.00000000000E+00 0. -1.
          1   -1    0    0  501    0 -0.00000000000E+00 -0.00000000000E+00 -0.96816647871E+03  0.96816647871E+03  0.00000000000E+00 0. -1.
         25    2    1    2    0    0 -0.48703135392E+02 -0.47125972129E+02  0.79391573580E+02  0.16285035509E+03  0.12499745418E+03 0.  0.
          2    1    1    2  501    0  0.48752598838E+02  0.87194097145E+02 -0.92356430190E+03  0.92895136914E+03  0.00000000000E+00 0. -1.
          1    1    1    2  502    0 -0.49463446370E-01 -0.40068125017E+02  0.22389214893E+04  0.22392799942E+04  0.00000000000E+00 0. -1.
         22    1    3    3    0    0  0.50661227242E+01 -0.12980013903E+02  0.96015725042E+02  0.97021470901E+02  0.00000000000E+00 0.  1.
         22    1    3    3    0    0 -0.53769258116E+02 -0.34145958225E+02 -0.16624151462E+02  0.65828884187E+02  0.00000000000E+00 0.  1.
</event>
<event>
 7    1  0.5127424E-006  0.9183128E+02  0.7818608E-02  0.1309110E+00
          2   -1    0    0  502    0  0.00000000000E+00  0.00000000000E+00  0.10533844062E+04  0.10533844062E+04  0.00000000000E+00 0. -1.
          1   -1    0    0  501    0 -0.00000000000E+00 -0.00000000000E+00 -0.21000981424E+03  0.21000981424E+03  0.00000000000E+00 0. -1.
         25    2    1    2    0    0  0.96418466205E+02  0.12838118734E+03  0.16834440794E+02  0.20417162322E+03  0.12499761375E+03 0.  0.
          2    1    1    2  501    0 -0.19332496150E+02 -0.81031746389E+02 -0.98934697910E+02  0.12933662970E+03  0.00000000000E+00 0. -1.
          1    1    1    2  502    0 -0.77085970055E+02 -0.47349440953E+02  0.92547484902E+03  0.92988596748E+03  0.00000000000E+00 0. -1.
         22    1    3    3    0    0  0.91382845369E+02  0.33525201506E+02  0.41834067916E+02  0.10594740583E+03  0.00000000000E+00 0. -1.
         22    1    3    3    0    0  0.50356208364E+01  0.94855985836E+02 -0.24999627122E+02  0.98224217392E+02  0.00000000000E+00 0. -1.
</event>
<event>
 7    1  0.5127424E-006  0.7073959E+02  0.7818608E-02  0.1456772E+00
          2   -1    0    0  502    0  0.00000000000E+00  0.00000000000E+00  0.75422848362E+03  0.75422848362E+03  0.00000000000E+00 0. -1.
          1   -1    0    0  501    0 -0.00000000000E+00 -0.00000000000E+00 -0.30892787344E+03  0.30892787344E+03  0.00000000000E+00 0. -1.
         25    2    1    2    0    0  0.74524487863E+02 -0.15688919383E+02 -0.58416151717E+02  0.15759833714E+03  0.12499899042E+03 0.  0.
          2    1    1    2  501    0 -0.56526736592E+02  0.42739504108E+02 -0.19428230110E+03  0.20680316652E+03  0.00000000000E+00 0. -1.
          1    1    1    2  502    0 -0.17997751271E+02 -0.27050584725E+02  0.69799906301E+03  0.69875485340E+03  0.00000000000E+00 0. -1.
         22    1    3    3    0    0  0.10670171255E+03  0.89055190204E+00 -0.27998894219E+02  0.11031766233E+03  0.00000000000E+00 0.  1.
         22    1    3    3    0    0 -0.32177224691E+02 -0.16579471285E+02 -0.30417257498E+02  0.47280674812E+02  0.00000000000E+00 0.  1.
</event>
<event>
 7    1  0.5127424E-006  0.8548106E+02  0.7818608E-02  0.1414539E+00
          2   -1    0    0  502    0  0.00000000000E+00  0.00000000000E+00  0.16176187022E+03  0.16176187022E+03  0.00000000000E+00 0. -1.
          1   -1    0    0  501    0 -0.00000000000E+00 -0.00000000000E+00 -0.31044080903E+03  0.31044080903E+03  0.00000000000E+00 0. -1.
         25    2    1    2    0    0 -0.74336899521E+01 -0.54737820693E+02 -0.16531970442E+03  0.21449002853E+03  0.12499551556E+03 0.  0.
          2    1    1    2  501    0 -0.25440280675E+02 -0.26783488050E+02 -0.10290211716E+03  0.10933164605E+03  0.00000000000E+00 0. -1.
          1    1    1    2  502    0  0.32873970628E+02  0.81521308743E+02  0.11954288277E+03  0.14838100466E+03  0.00000000000E+00 0. -1.
         22    1    3    3    0    0 -0.33432300725E+02  0.31305498170E+02 -0.68265349976E+02  0.82206514065E+02  0.00000000000E+00 0.  1.
         22    1    3    3    0    0  0.25998610773E+02 -0.86043318863E+02 -0.97054354446E+02  0.13228351447E+03  0.00000000000E+00 0.  1.
</event>
<event>
 7    1  0.5127424E-006  0.1103410E+03  0.7818608E-02  0.1275127E+00
          2   -1    0    0  502    0  0.00000000000E+00  0.00000000000E+00  0.14736328823E+03  0.14736328823E+03  0.00000000000E+00 0. -1.
          1   -1    0    0  501    0 -0.00000000000E+00 -0.00000000000E+00 -0.54654395289E+03  0.54654395289E+03  0.00000000000E+00 0. -1.
         25    2    1    2    0    0 -0.15808439671E+03  0.66656922379E+02 -0.66613142323E+02  0.22247528296E+03  0.12499647601E+03 0.  0.
          2    1    1    2  501    0  0.10545743357E+03  0.12691978285E+02 -0.35755044265E+03  0.37299420323E+03  0.00000000000E+00 0. -1.
          1    1    1    2  502    0  0.52626963144E+02 -0.79348900664E+02  0.24982920316E+02  0.98437754921E+02  0.00000000000E+00 0. -1.
         22    1    3    3    0    0 -0.97996809146E+02  0.49815494557E+02 -0.10265684658E+03  0.15041072519E+03  0.00000000000E+00 0. -1.
         22    1    3    3    0    0 -0.60087587566E+02  0.16841427822E+02  0.36043704259E+02  0.72064557775E+02  0.00000000000E+00 0. -1.
</event>
<event>
 7    1  0.5127424E-006  0.2991232E+02  0.7818608E-02  0.1628225E+00
          2   -1    0    0  502    0  0.00000000000E+00  0.00000000000E+00  0.13695599235E+04  0.13695599235E+04  0.00000000000E+00 0. -1.
          1   -1    0    0  501    0 -0.00000000000E+00 -0.00000000000E+00 -0.26764890619E+03  0.26764890619E+03  0.00000000000E+00 0. -1.
         25    2    1    2    0    0  0.37812997145E+02  0.58271024027E+01  0.76809002958E+02  0.15165284216E+03  0.12504072826E+03 0.  0.
          2    1    1    2  501    0 -0.12536252682E+02 -0.21831081838E+02 -0.22935992328E+03  0.23073735755E+03  0.00000000000E+00 0. -1.
          1    1    1    2  502    0 -0.25276744462E+02  0.16003979436E+02  0.12544619376E+04  0.12548186300E+04  0.00000000000E+00 0. -1.
         22    1    3    3    0    0  0.33529192480E+02  0.56406104460E+02  0.76638337555E+02  0.10089246826E+03  0.00000000000E+00 0. -1.
         22    1    3    3    0    0  0.42838046650E+01 -0.50579002058E+02  0.17066540327E+00  0.50760373898E+02  0.00000000000E+00 0. -1.
</event>
<event>
 7    1  0.5127424E-006  0.5307925E+02  0.7818608E-02  0.1562514E+00
          2   -1    0    0  502    0  0.00000000000E+00  0.00000000000E+00  0.27717558450E+03  0.27717558450E+03  0.00000000000E+00 0. -1.
          1   -1    0    0  501    0 -0.00000000000E+00 -0.00000000000E+00 -0.52217117856E+03  0.52217117856E+03  0.00000000000E+00 0. -1.
         25    2    1    2    0    0  0.64012050421E+02 -0.24262951589E+02 -0.75350878963E+02  0.16121078016E+03  0.12499970904E+03 0.  0.
          2    1    1    2  501    0 -0.11697874959E+02  0.17583947528E+02 -0.40064024061E+03  0.40119650781E+03  0.00000000000E+00 0. -1.
          1    1    1    2  502    0 -0.52314175462E+02  0.66790040616E+01  0.23099552550E+03  0.23693947508E+03  0.00000000000E+00 0. -1.
         22    1    3    3    0    0  0.64674322095E+01  0.20128226494E+02 -0.85277304511E+02  0.87858931509E+02  0.00000000000E+00 0. -1.
         22    1    3    3    0    0  0.57544618211E+02 -0.44391178083E+02  0.99264255475E+01  0.73351848653E+02  0.00000000000E+00 0. -1.
</event>
<event>
 7    1  0.5127424E-006  0.7355357E+02  0.7818608E-02  0.1466905E+00
          2   -1    0    0  502    0  0.00000000000E+00  0.00000000000E+00  0.13074434619E+04  0.13074434619E+04  0.00000000000E+00 0. -1.
          1   -1    0    0  501    0 -0.00000000000E+00 -0.00000000000E+00 -0.21063800083E+03  0.21063800083E+03  0.00000000000E+00 0. -1.
         25    2    1    2    0    0  0.79549750697E+02  0.61309672122E+02  0.19503476555E+03  0.25248223652E+03  0.12498672431E+03 0.  0.
          2    1    1    2  501    0 -0.52837006014E+02 -0.49929412995E+02 -0.17444801363E+03  0.18898890165E+03  0.00000000000E+00 0. -1.
          1    1    1    2  502    0 -0.26712744683E+02 -0.11380259127E+02  0.10762187092E+04  0.10766103246E+04  0.00000000000E+00 0. -1.
         22    1    3    3    0    0  0.43436539747E+02  0.27883713825E+02  0.19658614366E+03  0.20324946829E+03  0.00000000000E+00 0.  1.
         22    1    3    3    0    0  0.36113210950E+02  0.33425958298E+02 -0.15513781145E+01  0.49232768227E+02  0.00000000000E+00 0.  1.
</event>
<event>
 7    1  0.5127424E-006  0.4900228E+02  0.7818608E-02  0.1471623E+00
          2   -1    0    0  502    0  0.00000000000E+00  0.00000000000E+00  0.31531980991E+04  0.31531980991E+04  0.00000000000E+00 0. -1.
          1   -1    0    0  501    0 -0.00000000000E+00 -0.00000000000E+00 -0.65656853186E+03  0.65656853186E+03  0.00000000000E+00 0. -1.
         25    2    1    2    0    0 -0.11009471974E+02 -0.26964473792E+01  0.12283349861E+03  0.17561791652E+03  0.12500041969E+03 0.  0.
          2    1    1    2  501    0  0.25057131416E+02  0.42419547897E+02 -0.62906537081E+03  0.63099169458E+03  0.00000000000E+00 0. -1.
          1    1    1    2  502    0 -0.14047659442E+02 -0.39723100518E+02  0.30028614394E+04  0.30031570198E+04  0.00000000000E+00 0. -1.
         22    1    3    3    0    0 -0.38504778794E+02 -0.33668777434E+02  0.58051467799E+01  0.51477221108E+02  0.00000000000E+00 0. -1.
         22    1    3    3    0    0  0.27495306820E+02  0.30972330055E+02  0.11702835183E+03  0.12414069542E+03  0.00000000000E+00 0. -1.
</event>
<event>
 7    1  0.5127424E-006  0.4921575E+02  0.7818608E-02  0.1458073E+00
          2   -1    0    0  502    0  0.00000000000E+00  0.00000000000E+00  0.10883268483E+04  0.10883268483E+04  0.00000000000E+00 0. -1.
          1   -1    0    0  501    0 -0.00000000000E+00 -0.00000000000E+00 -0.54904419445E+03  0.54904419445E+03  0.00000000000E+00 0. -1.
         25    2    1    2    0    0 -0.38985479700E+02  0.30787947110E+01  0.86602692363E+02  0.15701731806E+03  0.12500026097E+03 0.  0.
          2    1    1    2  501    0  0.11761479980E+02 -0.44739214480E+02 -0.51215310187E+03  0.51423800859E+03  0.00000000000E+00 0. -1.
          1    1    1    2  502    0  0.27223999721E+02  0.41660419769E+02  0.96483306337E+03  0.96611571610E+03  0.00000000000E+00 0. -1.
         22    1    3    3    0    0 -0.62523063424E+00  0.40301250336E+02 -0.14352496603E+02  0.42785229352E+02  0.00000000000E+00 0.  1.
         22    1    3    3    0    0 -0.38360249066E+02 -0.37222455625E+02  0.10095518897E+03  0.11423208871E+03  0.00000000000E+00 0.  1.
</event>
<event>
 7    1  0.5127424E-006  0.5361981E+02  0.7818608E-02  0.1500931E+00
          2   -1    0    0  502    0  0.00000000000E+00  0.00000000000E+00  0.10125737357E+03  0.10125737357E+03  0.00000000000E+00 0. -1.
          1   -1    0    0  501    0 -0.00000000000E+00 -0.00000000000E+00 -0.31382179860E+04  0.31382179860E+04  0.00000000000E+00 0. -1.
         25    2    1    2    0    0 -0.54085319423E+02 -0.60519675114E+01 -0.10789391864E+04  0.10875201115E+04  0.12501350645E+03 0.  0.
          2    1    1    2  501    0  0.41605990862E+02  0.34822797134E+02 -0.20520847233E+04  0.20528018408E+04  0.00000000000E+00 0. -1.
          1    1    1    2  502    0  0.12479328561E+02 -0.28770829622E+02  0.94063297330E+02  0.99153407320E+02  0.00000000000E+00 0. -1.
         22    1    3    3    0    0 -0.57135714969E+02 -0.47356274392E+02 -0.36980414123E+03  0.37717662908E+03  0.00000000000E+00 0. -1.
         22    1    3    3    0    0  0.30503955457E+01  0.41304306881E+02 -0.70913504521E+03  0.71034348242E+03  0.00000000000E+00 0. -1.
</event>
<event>
 7    1  0.5127424E-006  0.4747374E+02  0.7818608E-02  0.1487170E+00
          2   -1    0    0  502    0  0.00000000000E+00  0.00000000000E+00  0.25044287872E+04  0.25044287872E+04  0.00000000000E+00 0. -1.
          1   -1    0    0  501    0 -0.00000000000E+00 -0.00000000000E+00 -0.28345924635E+03  0.28345924635E+03  0.00000000000E+00 0. -1.
         25    2    1    2    0    0 -0.42304259831E+02 -0.10977951125E+02  0.44561409349E+03  0.46487450827E+03  0.12500488915E+03 0.  0.
          2    1    1    2  501    0  0.31764415959E+01  0.38833938092E+02 -0.27215992342E+03  0.27493488037E+03  0.00000000000E+00 0. -1.
          1    1    1    2  502    0  0.39127818235E+02 -0.27855986967E+02  0.20475153708E+04  0.20480786449E+04  0.00000000000E+00 0. -1.
         22    1    3    3    0    0  0.31427399990E+01  0.52043975004E+02  0.13578230727E+03  0.14544857207E+03  0.00000000000E+00 0.  1.
         22    1    3    3    0    0 -0.45446999830E+02 -0.63021926129E+02  0.30983178622E+03  0.31942593621E+03  0.00000000000E+00 0.  1.
</event>
<event>
 7    1  0.5127424E-006  0.9824179E+02  0.7818608E-02  0.1380445E+00
          2   -1    0    0  502    0  0.00000000000E+00  0.00000000000E+00  0.40024574602E+03  0.40024574602E+03  0.00000000000E+00 0. -1.
          1   -1    0    0  501    0 -0.00000000000E+00 -0.00000000000E+00 -0.42919409846E+03  0.42919409846E+03  0.00000000000E+00 0. -1.
         25    2    1    2    0    0  0.34160321790E+02  0.84774658187E+02 -0.10846548048E+03  0.18905911484E+03  0.12499967276E+03 0.  0.
          2    1    1    2  501    0  0.46214263596E+01 -0.10127593356E+03 -0.26996133164E+03  0.28837006239E+03  0.00000000000E+00 0. -1.
          1    1    1    2  502    0 -0.38781748150E+02  0.16501275371E+02  0.34947845969E+03  0.35201066726E+03  0.00000000000E+00 0. -1.
         22    1    3    3    0    0 -0.35024821428E+02  0.18759286085E+02  0.56956827409E+01  0.40138382284E+02  0.00000000000E+00 0.  1.
         22    1    3    3    0    0  0.69185143218E+02  0.66015372102E+02 -0.11416116322E+03  0.14892073255E+03  0.00000000000E+00 0.  1.
</event>
<event>
 7    1  0.5127424E-006  0.1366957E+03  0.7818608E-02  0.1316956E+00
          2   -1    0    0  502    0  0.00000000000E+00  0.00000000000E+00  0.16968537214E+03  0.16968537214E+03  0.00000000000E+00 0. -1.
          1   -1    0    0  501    0 -0.00000000000E+00 -0.00000000000E+00 -0.13706098182E+04  0.13706098182E+04  0.00000000000E+00 0. -1.
         25    2    1    2    0    0  0.27444142352E+02 -0.11637717820E+03 -0.58642404538E+03  0.61140384582E+03  0.12499869248E+03 0.  0.
          2    1    1    2  501    0  0.52013844586E+02  0.35636166348E+01 -0.74031995766E+03  0.74215347409E+03  0.00000000000E+00 0. -1.
          1    1    1    2  502    0 -0.79457986938E+02  0.11281356156E+03  0.12581955694E+03  0.18673787048E+03  0.00000000000E+00 0. -1.
         22    1    3    3    0    0  0.19732617031E+01 -0.12339818244E+03 -0.56210778942E+03  0.57549645708E+03  0.00000000000E+00 0.  1.
         22    1    3    3    0    0  0.25470880649E+02  0.70210042405E+01 -0.24316255968E+02  0.35907388736E+02  0.00000000000E+00 0.  1.
</event>
<event>
 7    1  0.5127424E-006  0.3389721E+02  0.7818608E-02  0.1578098E+00
          2   -1    0    0  502    0  0.00000000000E+00  0.00000000000E+00  0.15302209323E+03  0.15302209323E+03  0.00000000000E+00 0. -1.
          1   -1    0    0  501    0 -0.00000000000E+00 -0.00000000000E+00 -0.12784547782E+04  0.12784547782E+04  0.00000000000E+00 0. -1.
         25    2    1    2    0    0  0.32699367258E+02  0.31328476459E+02 -0.83390405460E+03  0.84443472462E+03  0.12499323902E+03 0.  0.
          2    1    1    2  501    0 -0.27851957927E+01 -0.33598767860E+02 -0.43710675023E+03  0.43840500182E+03  0.00000000000E+00 0. -1.
          1    1    1    2  502    0 -0.29914171465E+02  0.22702914009E+01  0.14557811988E+03  0.14863714497E+03  0.00000000000E+00 0. -1.
         22    1    3    3    0    0  0.14074738298E+02 -0.16592422957E+01 -0.55583144534E+01  0.15223212628E+02  0.00000000000E+00 0. -1.
         22    1    3    3    0    0  0.18624628959E+02  0.32987718755E+02 -0.82834574015E+03  0.82921151199E+03  0.00000000000E+00 0. -1.
</event>
<event>
 7    1  0.5127424E-006  0.1347146E+03  0.7818608E-02  0.1326590E+00
          2   -1    0    0  502    0  0.00000000000E+00  0.00000000000E+00  0.38421659267E+02  0.38421659267E+02  0.00000000000E+00 0. -1.
          1   -1    0    0  501    0 -0.00000000000E+00 -0.00000000000E+00 -0.21608616089E+04  0.21608616089E+04  0.00000000000E+00 0. -1.
         25    2    1    2    0    0  0.65981730368E+02  0.10132962123E+03 -0.41345810979E+03  0.44854631939E+03  0.12499964482E+03 0.  0.
          2    1    1    2  501    0 -0.28643835062E+02  0.39201675804E+02 -0.14713275871E+04  0.14721284282E+04  0.00000000000E+00 0. -1.
          1    1    1    2  502    0 -0.37337895306E+02 -0.14053129704E+03 -0.23765425278E+03  0.27860852057E+03  0.00000000000E+00 0. -1.
         22    1    3    3    0    0  0.79787633944E+02  0.98222255167E+02 -0.41541371112E+03  0.43426055465E+03  0.00000000000E+00 0. -1.
         22    1    3    3    0    0 -0.13805903576E+02  0.31073660653E+01  0.19556013332E+01  0.14285764733E+02  0.00000000000E+00 0. -1.
</event>
<event>
 7    1  0.5127424E-006  0.8411757E+02  0.7818608E-02  0.1346233E+00
          2   -1    0    0  502    0  0.00000000000E+00  0.00000000000E+00  0.76841961448E+03  0.76841961448E+03  0.00000000000E+00 0. -1.
          1   -1    0    0  501    0 -0.00000000000E+00 -0.00000000000E+00 -0.67039130621E+02  0.67039130621E+02  0.00000000000E+00 0. -1.
         25    2    1    2    0    0  0.13650723774E+03  0.34265334329E+01  0.42184052119E+03  0.46067419069E+03  0.12500127024E+03 0.  0.
          2    1    1    2  501    0 -0.76760853291E+02  0.23482238946E+02 -0.72546552313E+01  0.80599467532E+02  0.00000000000E+00 0. -1.
          1    1    1    2  502    0 -0.59746384452E+02 -0.26908772379E+02  0.28679461791E+03  0.29418508689E+03  0.00000000000E+00 0. -1.
         22    1    3    3    0    0  0.12773566077E+03 -0.25811585417E+02  0.40575729769E+03  0.42617088310E+03  0.00000000000E+00 0. -1.
         22    1    3    3    0    0  0.87715769755E+01  0.29238118850E+02  0.16083223502E+02  0.34503307592E+02  0.00000000000E+00 0. -1.
</event>
<event>
 7    1  0.5127424E-006  0.3786526E+02  0.7818608E-02  0.1566558E+00
          2   -1    0    0  502    0  0.00000000000E+00  0.00000000000E+00  0.21363951203E+04  0.21363951203E+04  0.00000000000E+00 0. -1.
          1   -1    0    0  501    0 -0.00000000000E+00 -0.00000000000E+00 -0.36823641412E+02  0.36823641412E+02  0.00000000000E+00 0. -1.
         25    2    1    2    0    0  0.18163708114E+02 -0.24501084518E+02  0.19333644086E+03  0.23223830040E+03  0.12500170149E+03 0.  0.
          2    1    1    2  501    0  0.67845154697E+01  0.39010038491E+02  0.54414229709E+01  0.39967759971E+02  0.00000000000E+00 0. -1.
          1    1    1    2  502    0 -0.24948223583E+02 -0.14508953973E+02  0.19007936150E+04  0.19010127013E+04  0.00000000000E+00 0. -1.
         22    1    3    3    0    0 -0.39903364615E+02  0.26278742346E+02  0.10235239766E+03  0.11295514204E+03  0.00000000000E+00 0. -1.
         22    1    3    3    0    0  0.58067072728E+02 -0.50779826864E+02  0.90984043199E+02  0.11928315836E+03  0.00000000000E+00 0. -1.
</event>
<event>
 7    1  0.5127424E-006  0.8690410E+02  0.7818608E-02  0.1378375E+00
          2   -1    0    0  502    0  0.00000000000E+00  0.00000000000E+00  0.62360038770E+03  0.62360038770E+03  0.00000000000E+00 0. -1.
          1   -1    0    0  501    0 -0.00000000000E+00 -0.00000000000E+00 -0.59631197394E+03  0.59631197394E+03  0.00000000000E+00 0. -1.
         25    2    1    2    0    0 -0.29744612068E+02  0.68622105513E+02  0.18508119720E+03  0.23552774927E+03  0.12499814321E+03 0.  0.
          2    1    1    2  501    0 -0.15526424524E+02 -0.85901989916E+02 -0.56631256843E+03  0.57300100077E+03  0.00000000000E+00 0. -1.
          1    1    1    2  502    0  0.45271036592E+02  0.17279884403E+02  0.40851978499E+03  0.41138361159E+03  0.00000000000E+00 0. -1.
         22    1    3    3    0    0 -0.63283975354E+02  0.69296033393E+02  0.17802817889E+03  0.20124819070E+03  0.00000000000E+00 0.  1.
         22    1    3    3    0    0  0.33539363286E+02 -0.67392788011E+00  0.70530183100E+01  0.34279558569E+02  0.00000000000E+00 0.  1.
</event>
<event>
 7    1  0.5127424E-006  0.5735582E+02  0.7818608E-02  0.1412206E+00
          2   -1    0    0  502    0  0.00000000000E+00  0.00000000000E+00  0.75419819545E+03  0.75419819545E+03  0.00000000000E+00 0. -1.
          1   -1    0    0  501    0 -0.00000000000E+00 -0.00000000000E+00 -0.53062960598E+03  0.53062960598E+03  0.00000000000E+00 0. -1.
         25    2    1    2    0    0 -0.10041831844E+03  0.50801953579E+02  0.39594847635E+03  0.43019210234E+03  0.12500148732E+03 0.  0.
          2    1    1    2  501    0  0.47923681304E+02 -0.31126658594E+02 -0.50959669386E+03  0.51279073558E+03  0.00000000000E+00 0. -1.
          1    1    1    2  502    0  0.52494637131E+02 -0.19675294985E+02  0.33721680699E+03  0.34184496351E+03  0.00000000000E+00 0. -1.
         22    1    3    3    0    0 -0.55059385000E+02 -0.26612095689E+02  0.26149282794E+03  0.26854839150E+03  0.00000000000E+00 0.  1.
         22    1    3    3    0    0 -0.45358933436E+02  0.77414049268E+02  0.13445564840E+03  0.16164371084E+03  0.00000000000E+00 0.  1.
</event>
<event>
 7    1  0.5127424E-006  0.1223303E+03  0.7818608E-02  0.1326394E+00
          2   -1    0    0  502    0  0.00000000000E+00  0.00000000000E+00  0.11403889504E+04  0.11403889504E+04  0.00000000000E+00 0. -1.
          1   -1    0    0  501    0 -0.00000000000E+00 -0.00000000000E+00 -0.74548309097E+02  0.74548309097E+02  0.00000000000E+00 0. -1.
         25    2    1    2    0    0 -0.46371021501E+02 -0.12781265421E+03  0.20903370292E+03  0.27893799354E+03  0.12499987628E+03 0.  0.
          2    1    1    2  501    0 -0.36882515237E+02  0.38836336398E+02 -0.15077683337E+02  0.55640969526E+02  0.00000000000E+00 0. -1.
          1    1    1    2  502    0  0.83253536738E+02  0.88976317812E+02  0.87188462167E+03  0.88035829639E+03  0.00000000000E+00 0. -1.
         22    1    3    3    0    0 -0.33626821663E+02 -0.56755224530E+02  0.19438695158E+03  0.20527592550E+03  0.00000000000E+00 0.  1.
         22    1    3    3    0    0 -0.12744199837E+02 -0.71057429680E+02  0.14646751344E+02  0.73662068035E+02  0.00000000000E+00 0.  1.
</event>
<event>
 7    1  0.5127424E-006  0.8346108E+02  0.7818608E-02  0.1418501E+00
          2   -1    0    0  502    0  0.00000000000E+00  0.00000000000E+00  0.59327434093E+03  0.59327434093E+03  0.00000000000E+00 0. -1.
          1   -1    0    0  501    0 -0.00000000000E+00 -0.00000000000E+00 -0.11543940526E+03  0.11543940526E+03  0.00000000000E+00 0. -1.
         25    2    1    2    0    0 -0.72965786069E+02 -0.43452741714E+02  0.11736303484E+03  0.19134186719E+03  0.12500192597E+03 0.  0.
          2    1    1    2  501    0 -0.10713576961E+02  0.35094190593E+02 -0.69854558985E+02  0.78905274574E+02  0.00000000000E+00 0. -1.
          1    1    1    2  502    0  0.83679363030E+02  0.83585511211E+01  0.43032645982E+03  0.43846660442E+03  0.00000000000E+00 0. -1.
         22    1    3    3    0    0 -0.51173691640E+02  0.36230488778E+02  0.25202171765E+02  0.67576212492E+02  0.00000000000E+00 0. -1.
         22    1    3    3    0    0 -0.21792094429E+02 -0.79683230492E+02  0.92160863075E+02  0.12376565470E+03  0.00000000000E+00 0. -1.
</event>
<event>
 7    1  0.5127424E-006  0.7928842E+02  0.7818608E-02  0.1434863E+00
          2   -1    0    0  502    0  0.00000000000E+00  0.00000000000E+00  0.18583034586E+03  0.18583034586E+03  0.00000000000E+00 0. -1.
          1   -1    0    0  501    0 -0.00000000000E+00 -0.00000000000E+00 -0.69456960136E+03  0.69456960136E+03  0.00000000000E+00 0. -1.
         25    2    1    2    0    0 -0.43996642612E+02  0.69307769108E+02 -0.37757972857E+02  0.15423622483E+03  0.12499550839E+03 0.  0.
          2    1    1    2  501    0  0.32704359462E+02  0.96493140400E+01 -0.58556280757E+03  0.58655475959E+03  0.00000000000E+00 0. -1.
          1    1    1    2  502    0  0.11292283150E+02 -0.78957083148E+02  0.11458152493E+03  0.13960896280E+03  0.00000000000E+00 0. -1.
         22    1    3    3    0    0  0.10180795669E+02  0.39409090211E+02  0.38502555825E+02  0.56028312457E+02  0.00000000000E+00 0.  1.
         22    1    3    3    0    0 -0.54177438281E+02  0.29898678897E+02 -0.76260528682E+02  0.98207912377E+02  0.00000000000E+00 0.  1.
</event>
<event>
 7    1  0.5127424E-006  0.3602199E+02  0.7818608E-02  0.1552639E+00
          2   -1    0    0  502    0  0.00000000000E+00  0.00000000000E+00  0.54485420848E+03  0.54485420848E+03  0.00000000000E+00 0. -1.
          1   -1    0    0  501    0 -0.00000000000E+00 -0.00000000000E+00 -0.33636074340E+03  0.33636074340E+03  0.00000000000E+00 0. -1.
         25    2    1    2    0    0  0.49378983081E+02 -0.21313636339E+02  0.15512291047E+03  0.20635277361E+03  0.12500317899E+03 0.  0.
          2    1    1    2  501    0 -0.34958159193E+02 -0.85207802083E+01 -0.30894559912E+03  0.31103385636E+03  0.00000000000E+00 0. -1.
          1    1    1    2  502    0 -0.14420823888E+02  0.29834416548E+02  0.36231615373E+03  0.36382832191E+03  0.00000000000E+00 0. -1.
         22    1    3    3    0    0 -0.37822324442E+02  0.68092922139E+01  0.76537326683E+02  0.85643780057E+02  0.00000000000E+00 0. -1.
         22    1    3    3    0    0  0.87201307524E+02 -0.28122928553E+02  0.78585583789E+02  0.12070899355E+03  0.00000000000E+00 0. -1.
</event>
<event>
 7    1  0.5127424E-006  0.1325752E+03  0.7818608E-02  0.1271325E+00
          2   -1    0    0  502    0  0.00000000000E+00  0.00000000000E+00  0.52252986004E+03  0.52252986004E+03  0.00000000000E+00 0. -1.
          1   -1    0    0  501    0 -0.00000000000E+00 -0.00000000000E+00 -0.76387320353E+03  0.76387320353E+03  0.00000000000E+00 0. -1.
         25    2    1    2    0    0  0.87962373982E+02  0.14734037876E+03  0.10839799792E+03  0.23837392925E+03  0.12500175096E+03 0.  0.
          2    1    1    2  501    0 -0.79892707916E+02 -0.19328331310E+02 -0.68456271033E+03  0.68947990075E+03  0.00000000000E+00 0. -1.
          1    1    1    2  502    0 -0.80696660662E+01 -0.12801204745E+03  0.33482136892E+03  0.35854923357E+03  0.00000000000E+00 0. -1.
         22    1    3    3    0    0  0.67520132645E+02  0.16852828082E+03  0.83572822403E+02  0.19986286897E+03  0.00000000000E+00 0. -1.
         22    1    3    3    0    0  0.20442241337E+02 -0.21187902058E+02  0.24825175513E+02  0.38511060278E+02  0.00000000000E+00 0. -1.
</event>
<event>
 7    1  0.5127424E-006  0.7043088E+02  0.7818608E-02  0.1422928E+00
          2   -1    0    0  502    0  0.00000000000E+00  0.00000000000E+00  0.12173000171E+04  0.12173000171E+04  0.00000000000E+00 0. -1.
          1   -1    0    0  501    0 -0.00000000000E+00 -0.00000000000E+00 -0.84648881109E+02  0.84648881109E+02  0.00000000000E+00 0. -1.
         25    2    1    2    0    0 -0.32997115121E+02 -0.19788075628E+02  0.30052169398E+03  0.32774737863E+03  0.12499871242E+03 0.  0.
          2    1    1    2  501    0 -0.40775871028E+02  0.10180047770E+02 -0.63138893988E+02  0.75847379419E+02  0.00000000000E+00 0. -1.
          1    1    1    2  502    0  0.73772986150E+02  0.96080278579E+01  0.89526833601E+03  0.89835414017E+03  0.00000000000E+00 0. -1.
         22    1    3    3    0    0  0.38144108869E+02 -0.33631786548E+02  0.73041514054E+02  0.89000746531E+02  0.00000000000E+00 0.  1.
         22    1    3    3    0    0 -0.71141223991E+02  0.13843710919E+02  0.22748017992E+03  0.23874663210E+03  0.00000000000E+00 0.  1.
</event>
<event>
 7    1  0.5127424E-006  0.1137442E+03  0.7818608E-02  0.1435934E+00
          2   -1    0    0  502    0  0.00000000000E+00  0.00000000000E+00  0.50816485718E+03  0.50816485718E+03  0.00000000000E+00 0. -1.
          1   -1    0    0  501    0 -0.00000000000E+00 -0.00000000000E+00 -0.86088067441E+03  0.86088067441E+03  0.00000000000E+00 0. -1.
         25    2    1    2    0    0  0.65907886845E+02 -0.69941222585E+02 -0.25069580224E+03  0.29615597318E+03  0.12499740407E+03 0.  0.
          2    1    1    2  501    0  0.23555379885E+02 -0.10404388482E+01 -0.58049545159E+03  0.58097410248E+03  0.00000000000E+00 0. -1.
          1    1    1    2  502    0 -0.89463266729E+02  0.70981661433E+02  0.47847543660E+03  0.49191545593E+03  0.00000000000E+00 0. -1.
         22    1    3    3    0    0  0.83468122312E+02 -0.54436895864E+02 -0.25367120023E+03  0.27254243871E+03  0.00000000000E+00 0. -1.
         22    1    3    3    0    0 -0.17560235468E+02 -0.15504326721E+02  0.29753979924E+01  0.23613534466E+02  0.00000000000E+00 0. -1.
</event>
<event>
 7    1  0.5127424E-006  0.7362036E+02  0.7818608E-02  0.1362627E+00
          2   -1    0    0  502    0  0.00000000000E+00  0.00000000000E+00  0.11344647576E+04  0.11344647576E+04  0.00000000000E+00 0. -1.
          1   -1    0    0  501    0 -0.00000000000E+00 -0.00000000000E+00 -0.25984965087E+03  0.25984965087E+03  0.00000000000E+00 0. -1.
         25    2    1    2    0    0  0.47514136467E+02  0.35875232275E+02  0.14561739640E+03  0.20093324056E+03  0.12500046229E+03 0.  0.
          2    1    1    2  501    0  0.46743256640E+01 -0.74887950707E+02 -0.22498941047E+03  0.23717143442E+03  0.00000000000E+00 0. -1.
          1    1    1    2  502    0 -0.52188462131E+02  0.39012718432E+02  0.95398712076E+03  0.95620973346E+03  0.00000000000E+00 0. -1.
         22    1    3    3    0    0 -0.18680312729E+02 -0.48713368108E+01  0.11624729627E+03  0.11783937329E+03  0.00000000000E+00 0.  1.
         22    1    3    3    0    0  0.66194449196E+02  0.40746569086E+02  0.29370100127E+02  0.83093867271E+02  0.00000000000E+00 0.  1.
</event>
<event>
 7    1  0.5127424E-006  0.6207182E+02  0.7818608E-02  0.1402820E+00
          2   -1    0    0  502    0  0.00000000000E+00  0.00000000000E+00  0.78158351309E+03  0.78158351309E+03  0.00000000000E+00 0. -1.
          1   -1    0    0  501    0 -0.00000000000E+00 -0.00000000000E+00 -0.66103656619E+03  0.66103656619E+03  0.00000000000E+00 0. -1.
         25    2    1    2    0    0  0.86863012807E+02  0.55094968054E+01 -0.10155864404E+03  0.18306978159E+03  0.12499939682E+03 0.  0.
          2    1    1    2  501    0 -0.41701123404E+02  0.37004526797E+02 -0.51591966252E+03  0.51892332465E+03  0.00000000000E+00 0. -1.
          1    1    1    2  502    0 -0.45161889403E+02 -0.42514023603E+02  0.73802525345E+03  0.74062697304E+03  0.00000000000E+00 0. -1.
         22    1    3    3    0    0 -0.13431038002E+02  0.15024721040E+02 -0.76700524342E+02  0.79303880475E+02  0.00000000000E+00 0. -1.
         22    1    3    3    0    0  0.10029405081E+03 -0.95152242346E+01 -0.24858119698E+02  0.10376590112E+03  0.00000000000E+00 0. -1.
</event>
<event>
 7    1  0.5127424E-006  0.1213294E+03  0.7818608E-02  0.1291355E+00
          2   -1    0    0  502    0  0.00000000000E+00  0.00000000000E+00  0.22608262360E+04  0.22608262360E+04  0.00000000000E+00 0. -1.
          1   -1    0    0  501    0 -0.00000000000E+00 -0.00000000000E+00 -0.82910855431E+02  0.82910855431E+02  0.00000000000E+00 0. -1.
         25    2    1    2    0    0  0.18475335246E+01  0.68215427484E+02  0.20298983368E+03  0.24796644250E+03  0.12500290438E+03 0.  0.
          2    1    1    2  501    0  0.61566113875E+02  0.41522986752E+02 -0.34830148571E+02  0.82022460680E+02  0.00000000000E+00 0. -1.
          1    1    1    2  502    0 -0.63413647400E+02 -0.10973841424E+03  0.20097556955E+04  0.20137481882E+04  0.00000000000E+00 0. -1.
         22    1    3    3    0    0  0.41484060170E+02 -0.17664724575E+02  0.89603738049E+02  0.10030852214E+03  0.00000000000E+00 0. -1.
         22    1    3    3    0    0 -0.39636526645E+02  0.85880152058E+02  0.11338609563E+03  0.14765792036E+03  0.00000000000E+00 0. -1.
</event>
<event>
 7    1  0.5127424E-006  0.1695370E+03  0.7818608E-02  0.1377801E+00
          2   -1    0    0  502    0  0.00000000000E+00  0.00000000000E+00  0.24656079262E+04  0.24656079262E+04  0.00000000000E+00 0. -1.
          1   -1    0    0  501    0 -0.00000000000E+00 -0.00000000000E+00 -0.96410158979E+02  0.96410158979E+02  0.00000000000E+00 0. -1.
         25    2    1    2    0    0 -0.16398105763E+03 -0.45864271393E+02  0.22865544163E+03  0.31128680888E+03  0.12499139068E+03 0.  0.
          2    1    1    2  501    0  0.90848074214E+01 -0.23243241473E+02 -0.48809445665E+02  0.54819193593E+02  0.00000000000E+00 0. -1.
          1    1    1    2  502    0  0.15489625021E+03  0.69107512865E+02  0.21893517713E+04  0.21959120827E+04  0.00000000000E+00 0. -1.
         22    1    3    3    0    0 -0.58563600058E+02 -0.76550486461E+02  0.73482374273E+02  0.12119955263E+03  0.00000000000E+00 0.  1.
         22    1    3    3    0    0 -0.10541745757E+03  0.30686215068E+02  0.15517306735E+03  0.19008725625E+03  0.00000000000E+00 0.  1.
</event>
<event>
 7    1  0.5127424E-006  0.1574284E+03  0.7818608E-02  0.1282013E+00
          2   -1    0    0  502    0  0.00000000000E+00  0.00000000000E+00  0.15451057737E+03  0.15451057737E+03  0.00000000000E+00 0. -1.
          1   -1    0    0  501    0 -0.00000000000E+00 -0.00000000000E+00 -0.73147506838E+03  0.73147506838E+03  0.00000000000E+00 0. -1.
         25    2    1    2    0    0 -0.11847744936E+03  0.75329430992E+02 -0.10183769440E+03  0.21379265711E+03  0.12499982021E+03 0.  0.
          2    1    1    2  501    0  0.94174031604E+02 -0.13290331547E+03 -0.55060965726E+03  0.57419773089E+03  0.00000000000E+00 0. -1.
          1    1    1    2  502    0  0.24303417757E+02  0.57573884482E+02  0.75482860649E+02  0.97995257747E+02  0.00000000000E+00 0. -1.
         22    1    3    3    0    0 -0.92606637150E+02  0.50747229274E+02  0.29979664102E+00  0.10560000190E+03  0.00000000000E+00 0.  1.
         22    1    3    3    0    0 -0.25870812211E+02  0.24582201718E+02 -0.10213749104E+03  0.10819265521E+03  0.00000000000E+00 0.  1.
</event>
<event>
 7    1  0.5127424E-006  0.2569771E+03  0.7818608E-02  0.1353097E+00
          2   -1    0    0  502    0  0.00000000000E+00  0.00000000000E+00  0.11386696896E+04  0.11386696896E+04  0.00000000000E+00 0. -1.
          1   -1    0    0  501    0 -0.00000000000E+00 -0.00000000000E+00 -0.86479457682E+03  0.86479457682E+03  0.00000000000E+00 0. -1.
         25    2    1    2    0    0 -0.25849482943E+03  0.40090316267E+02  0.90344249475E+03  0.94882068925E+03  0.12500219489E+03 0.  0.
          2    1    1    2  501    0  0.25611531618E+03 -0.20002104845E+02 -0.82197060105E+03  0.86117989315E+03  0.00000000000E+00 0. -1.
          1    1    1    2  502    0  0.23795132501E+01 -0.20088211423E+02  0.19240321905E+03  0.19346368399E+03  0.00000000000E+00 0. -1.
         22    1    3    3    0    0 -0.61462125141E+02  0.51372264259E+02  0.15106020315E+03  0.17098505004E+03  0.00000000000E+00 0. -1.
         22    1    3    3    0    0 -0.19703270429E+03 -0.11281947992E+02  0.75238229160E+03  0.77783563921E+03  0.00000000000E+00 0. -1.
</event>
<event>
 7    1  0.5127424E-006  0.4981185E+02  0.7818608E-02  0.1544064E+00
          2   -1    0    0  502    0  0.00000000000E+00  0.00000000000E+00  0.32520470362E+03  0.32520470362E+03  0.00000000000E+00 0. -1.
          1   -1    0    0  501    0 -0.00000000000E+00 -0.00000000000E+00 -0.59585680381E+03  0.59585680381E+03  0.00000000000E+00 0. -1.
         25    2    1    2    0    0 -0.32740980071E+02 -0.20707559160E+02 -0.21887059173E+03  0.25501029839E+03  0.12500056631E+03 0.  0.
          2    1    1    2  501    0 -0.17166168083E+02  0.18616948556E+02 -0.35643322523E+03  0.35733165568E+03  0.00000000000E+00 0. -1.
          1    1    1    2  502    0  0.49907148154E+02  0.20906106043E+01  0.30465171678E+03  0.30871955336E+03  0.00000000000E+00 0. -1.
         22    1    3    3    0    0 -0.27821413305E+02  0.27860362766E+01  0.62195515980E+01  0.28643949771E+02  0.00000000000E+00 0. -1.
         22    1    3    3    0    0 -0.49195667667E+01 -0.23493595436E+02 -0.22509014333E+03  0.22636634862E+03  0.00000000000E+00 0. -1.
</event>
<event>
 7    1  0.5127424E-006  0.6086611E+02  0.7818608E-02  0.1404441E+00
          2   -1    0    0  502    0  0.00000000000E+00  0.00000000000E+00  0.86675382743E+02  0.86675382743E+02  0.00000000000E+00 0. -1.
          1   -1    0    0  501    0 -0.00000000000E+00 -0.00000000000E+00 -0.13927984793E+04  0.13927984793E+04  0.00000000000E+00 0. -1.
         25    2    1    2    0    0 -0.31947688813E+02  0.59149233020E+02 -0.15142909298E+03  0.20753426177E+03  0.12498165073E+03 0.  0.
          2    1    1    2  501    0  0.60428271526E+02 -0.10775107895E+02 -0.11989107902E+04  0.12004810543E+04  0.00000000000E+00 0. -1.
          1    1    1    2  502    0 -0.28480582713E+02 -0.48374125125E+02  0.44216786606E+02  0.71458545963E+02  0.00000000000E+00 0. -1.
         22    1    3    3    0    0  0.21962915145E+01  0.17615841301E+02 -0.15272392152E+03  0.15375219597E+03  0.00000000000E+00 0. -1.
         22    1    3    3    0    0 -0.34143980328E+02  0.41533391719E+02  0.12948285404E+01  0.53782065796E+02  0.00000000000E+00 0. -1.
</event>
<event>
 7    1  0.5127424E-006  0.7990393E+02  0.7818608E-02  0.1453016E+00
          2   -1    0    0  502    0  0.00000000000E+00  0.00000000000E+00  0.51328150753E+03  0.51328150753E+03  0.00000000000E+00 0. -1.
          1   -1    0    0  501    0 -0.00000000000E+00 -0.00000000000E+00 -0.93162873284E+03  0.93162873284E+03  0.00000000000E+00 0. -1.
         25    2    1    2    0    0  0.33227457995E+02  0.80800562609E+02  0.10177190130E+03  0.18332811176E+03  0.12497552473E+03 0.  0.
          2    1    1    2  501    0  0.20090414812E+02 -0.21691153435E+02 -0.88632817556E+03  0.88682115767E+03  0.00000000000E+00 0. -1.
          1    1    1    2  502    0 -0.53317872806E+02 -0.59109409173E+02  0.36620904895E+03  0.37476097095E+03  0.00000000000E+00 0. -1.
         22    1    3    3    0    0 -0.37917919926E+02  0.36943350991E+02  0.81736854747E+02  0.97383228832E+02  0.00000000000E+00 0. -1.
         22    1    3    3    0    0  0.71145377920E+02  0.43857211618E+02  0.20035046557E+02  0.85944882924E+02  0.00000000000E+00 0. -1.
</event>
<event>
 7    1  0.5127424E-006  0.5281163E+02  0.7818608E-02  0.1441538E+00
          2   -1    0    0  502    0  0.00000000000E+00  0.00000000000E+00  0.21332718832E+03  0.21332718832E+03  0.00000000000E+00 0. -1.
          1   -1    0    0  501    0 -0.00000000000E+00 -0.00000000000E+00 -0.30175888775E+04  0.30175888775E+04  0.00000000000E+00 0. -1.
         25    2    1    2    0    0  0.22092676551E+02 -0.98400027007E+02 -0.57324238394E+03  0.59532051698E+03  0.12501614100E+03 0.  0.
          2    1    1    2  501    0 -0.63560505441E+01  0.48279529526E+02 -0.24296487231E+04  0.24301366690E+04  0.00000000000E+00 0. -1.
          1    1    1    2  502    0 -0.15736626007E+02  0.50120497481E+02  0.19862941786E+03  0.20545887984E+03  0.00000000000E+00 0. -1.
         22    1    3    3    0    0  0.37506503137E-01 -0.29012435398E+01  0.66227064638E+01  0.72304122788E+01  0.00000000000E+00 0. -1.
         22    1    3    3    0    0  0.22055170048E+02 -0.95498783467E+02 -0.57986509041E+03  0.58809010470E+03  0.00000000000E+00 0. -1.
</event>
<event>
 7    1  0.5127424E-006  0.3534265E+03  0.7818608E-02  0.1109204E+00
          2   -1    0    0  502    0  0.00000000000E+00  0.00000000000E+00  0.15730111628E+04  0.15730111628E+04  0.00000000000E+00 0. -1.
          1   -1    0    0  501    0 -0.00000000000E+00 -0.00000000000E+00 -0.15277508637E+04  0.15277508637E+04  0.00000000000E+00 0. -1.
         25    2    1    2    0    0 -0.20545487249E+03 -0.82235163420E+02  0.13325674092E+03  0.28697683159E+03  0.12499606448E+03 0.  0.
          2    1    1    2  501    0  0.26448433872E+03  0.25893515954E+03 -0.14206996396E+04  0.14681235807E+04  0.00000000000E+00 0. -1.
          1    1    1    2  502    0 -0.59029466228E+02 -0.17669999612E+03  0.13327031978E+04  0.13456616142E+04  0.00000000000E+00 0. -1.
         22    1    3    3    0    0 -0.17011745763E+03 -0.11434351112E+03  0.11960365072E+03  0.23731713211E+03  0.00000000000E+00 0. -1.
         22    1    3    3    0    0 -0.35337414855E+02  0.32108347698E+02  0.13653090202E+02  0.49659699482E+02  0.00000000000E+00 0. -1.
</event>
<event>
 7    1  0.5127424E-006  0.8235629E+02  0.7818608E-02  0.1453509E+00
          2   -1    0    0  502    0  0.00000000000E+00  0.00000000000E+00  0.17550721923E+02  0.17550721923E+02  0.00000000000E+00 0. -1.
          1   -1    0    0  501    0 -0.00000000000E+00 -0.00000000000E+00 -0.13118808224E+04  0.13118808224E+04  0.00000000000E+00 0. -1.
         25    2    1    2    0    0 -0.64018650381E+02 -0.93354451953E+01 -0.86932169097E+03  0.88064151051E+03  0.12499491789E+03 0.  0.
          2    1    1    2  501    0 -0.15251253556E+02 -0.24172765888E+02 -0.26987268200E+03  0.27138199616E+03  0.00000000000E+00 0. -1.
          1    1    1    2  502    0  0.79269903937E+02  0.33508211083E+02 -0.15513572751E+03  0.17740803767E+03  0.00000000000E+00 0. -1.
         22    1    3    3    0    0 -0.38824843448E+02  0.52012389227E+02 -0.58977611784E+03  0.59333677307E+03  0.00000000000E+00 0. -1.
         22    1    3    3    0    0 -0.25193806933E+02 -0.61347834422E+02 -0.27954557313E+03  0.28730473744E+03  0.00000000000E+00 0. -1.
</event>
<event>
 7    1  0.5127424E-006  0.1189826E+03  0.7818608E-02  0.1301946E+00
          2   -1    0    0  502    0  0.00000000000E+00  0.00000000000E+00  0.80041716792E+03  0.80041716792E+03  0.00000000000E+00 0. -1.
          1   -1    0    0  501    0 -0.00000000000E+00 -0.00000000000E+00 -0.21234551139E+04  0.21234551139E+04  0.00000000000E+00 0. -1.
         25    2    1    2    0    0 -0.81890418721E+02 -0.48736272445E+01  0.54823980146E+03  0.56826378809E+03  0.12500823985E+03 0.  0.
          2    1    1    2  501    0  0.94676003079E+02  0.72317876359E+02 -0.21068615843E+04  0.21102272759E+04  0.00000000000E+00 0. -1.
          1    1    1    2  502    0 -0.12785584357E+02 -0.67444249114E+02  0.23558383680E+03  0.24538121784E+03  0.00000000000E+00 0. -1.
         22    1    3    3    0    0 -0.17632978021E+02  0.74966879974E+01  0.44889659091E+03  0.44930532111E+03  0.00000000000E+00 0.  1.
         22    1    3    3    0    0 -0.64257440700E+02 -0.12370315242E+02  0.99343210545E+02  0.11895846698E+03  0.00000000000E+00 0.  1.
</event>
<event>
 7    1  0.5127424E-006  0.9403755E+02  0.7818608E-02  0.1420437E+00
          2   -1    0    0  502    0  0.00000000000E+00  0.00000000000E+00  0.55733210867E+03  0.55733210867E+03  0.00000000000E+00 0. -1.
          1   -1    0    0  501    0 -0.00000000000E+00 -0.00000000000E+00 -0.26468932090E+03  0.26468932090E+03  0.00000000000E+00 0. -1.
         25    2    1    2    0    0 -0.20942748249E+02  0.97038153153E+02  0.61235879953E+02  0.17096366906E+03  0.12499496500E+03 0.  0.
          2    1    1    2  501    0  0.31873641196E+02 -0.36717976617E+01 -0.20354768367E+03  0.20606084206E+03  0.00000000000E+00 0. -1.
          1    1    1    2  502    0 -0.10930892946E+02 -0.93366355492E+02  0.43495459150E+03  0.44499691844E+03  0.00000000000E+00 0. -1.
         22    1    3    3    0    0 -0.10807623744E+01  0.36097701289E+02 -0.38258414875E+02  0.52611010201E+02  0.00000000000E+00 0.  1.
         22    1    3    3    0    0 -0.19861985875E+02  0.60940451865E+02  0.99494294828E+02  0.11835265886E+03  0.00000000000E+00 0.  1.
</event>
<event>
 7    1  0.5127424E-006  0.3732337E+03  0.7818608E-02  0.1157711E+00
          2   -1    0    0  502    0  0.00000000000E+00  0.00000000000E+00  0.10665835399E+04  0.10665835399E+04  0.00000000000E+00 0. -1.
          1   -1    0    0  501    0 -0.00000000000E+00 -0.00000000000E+00 -0.78588755505E+03  0.78588755505E+03  0.00000000000E+00 0. -1.
         25    2    1    2    0    0 -0.54409347688E+02 -0.39063835860E+03 -0.33769741396E+02  0.41511938897E+03  0.12500002935E+03 0.  0.
          2    1    1    2  501    0 -0.85638886268E+02  0.46761046763E+02 -0.51732720730E+03  0.52644852905E+03  0.00000000000E+00 0. -1.
          1    1    1    2  502    0  0.14004823396E+03  0.34387731184E+03  0.83179293358E+03  0.91090317696E+03  0.00000000000E+00 0. -1.
         22    1    3    3    0    0 -0.40398966154E+02 -0.33201679894E+02  0.14252221988E+02  0.54199205213E+02  0.00000000000E+00 0.  1.
         22    1    3    3    0    0 -0.14010381534E+02 -0.35743667871E+03 -0.48021963383E+02  0.36092018376E+03  0.00000000000E+00 0.  1.
</event>
<event>
 7    1  0.5127424E-006  0.6983016E+02  0.7818608E-02  0.1444264E+00
          2   -1    0    0  502    0  0.00000000000E+00  0.00000000000E+00  0.83673983666E+03  0.83673983666E+03  0.00000000000E+00 0. -1.
          1   -1    0    0  501    0 -0.00000000000E+00 -0.00000000000E+00 -0.78520053530E+03  0.78520053530E+03  0.00000000000E+00 0. -1.
         25    2    1    2    0    0 -0.33211219898E+02  0.39884248517E+02  0.18424997654E+03  0.22861853869E+03  0.12499857587E+03 0.  0.
          2    1    1    2  501    0 -0.33644698120E+02 -0.13054677802E+02 -0.76052863390E+03  0.76138439261E+03  0.00000000000E+00 0. -1.
          1    1    1    2  502    0  0.66855918018E+02 -0.26829570716E+02  0.62781795871E+03  0.63193744067E+03  0.00000000000E+00 0. -1.
         22    1    3    3    0    0 -0.67314798835E+02  0.16248064556E+02  0.17190348180E+03  0.18532697807E+03  0.00000000000E+00 0. -1.
         22    1    3    3    0    0  0.34103578936E+02  0.23636183961E+02  0.12346494739E+02  0.43291560619E+02  0.00000000000E+00 0. -1.
</event>
<event>
 7    1  0.5127424E-006  0.1348095E+03  0.7818608E-02  0.1262159E+00
          2   -1    0    0  502    0  0.00000000000E+00  0.00000000000E+00  0.20615649131E+04  0.20615649131E+04  0.00000000000E+00 0. -1.
          1   -1    0    0  501    0 -0.00000000000E+00 -0.00000000000E+00 -0.35381036630E+03  0.35381036630E+03  0.00000000000E+00 0. -1.
         25    2    1    2    0    0  0.20832367566E+02 -0.19752256826E+03  0.68102454953E+03  0.72032524760E+03  0.12499949101E+03 0.  0.
          2    1    1    2  501    0 -0.48232906553E+02  0.74044378563E+02 -0.32531409912E+03  0.33710272375E+03  0.00000000000E+00 0. -1.
          1    1    1    2  502    0  0.27400538988E+02  0.12347818970E+03  0.13520440964E+04  0.13579473080E+04  0.00000000000E+00 0. -1.
         22    1    3    3    0    0  0.63124537143E+02 -0.13738947238E+03  0.54642490245E+03  0.56695744843E+03  0.00000000000E+00 0.  1.
         22    1    3    3    0    0 -0.42292169577E+02 -0.60133095883E+02  0.13459964708E+03  0.15336779917E+03  0.00000000000E+00 0.  1.
</event>
<event>
 7    1  0.5127424E-006  0.1418855E+03  0.7818608E-02  0.1408635E+00
          2   -1    0    0  502    0  0.00000000000E+00  0.00000000000E+00  0.91317655812E+03  0.91317655812E+03  0.00000000000E+00 0. -1.
          1   -1    0    0  501    0 -0.00000000000E+00 -0.00000000000E+00 -0.56110100686E+03  0.56110100686E+03  0.00000000000E+00 0. -1.
         25    2    1    2    0    0  0.11932850560E+03 -0.48008384770E+02 -0.25598460445E+03  0.31254738259E+03  0.12495459732E+03 0.  0.
          2    1    1    2  501    0 -0.13919165901E+03  0.60191515584E+02 -0.25589804367E+03  0.29745780414E+03  0.00000000000E+00 0. -1.
          1    1    1    2  502    0  0.19863153406E+02 -0.12183130814E+02  0.86395819938E+03  0.86427237826E+03  0.00000000000E+00 0. -1.
         22    1    3    3    0    0  0.68181401849E+02  0.16458144020E+02 -0.38493036821E+02  0.80008049260E+02  0.00000000000E+00 0.  1.
         22    1    3    3    0    0  0.51147103755E+02 -0.64466528790E+02 -0.21749156763E+03  0.23253933333E+03  0.00000000000E+00 0.  1.
</event>
<event>
 7    1  0.5127424E-006  0.8141732E+02  0.7818608E-02  0.1347110E+00
          2   -1    0    0  502    0  0.00000000000E+00  0.00000000000E+00  0.28813432750E+04  0.28813432750E+04  0.00000000000E+00 0. -1.
          1   -1    0    0  501    0 -0.00000000000E+00 -0.00000000000E+00 -0.57634740612E+03  0.57634740612E+03  0.00000000000E+00 0. -1.
         25    2    1    2    0    0 -0.24716257383E+02  0.36880776485E+01  0.72966827032E+03  0.74071976046E+03  0.12500193414E+03 0.  0.
          2    1    1    2  501    0  0.63842415498E+02  0.50938135214E+02 -0.56737085023E+03  0.57321918088E+03  0.00000000000E+00 0. -1.
          1    1    1    2  502    0 -0.39126158115E+02 -0.54626212863E+02  0.21426984488E+04  0.21437517398E+04  0.00000000000E+00 0. -1.
         22    1    3    3    0    0  0.15425725922E+02  0.40837953953E+02  0.57519964280E+03  0.57685381214E+03  0.00000000000E+00 0. -1.
         22    1    3    3    0    0 -0.40141983305E+02 -0.37149876305E+02  0.15446862752E+03  0.16386594832E+03  0.00000000000E+00 0. -1.
</event>
<event>
 7    1  0.5127424E-006  0.1516802E+03  0.7818608E-02  0.1257071E+00
          2   -1    0    0  502    0  0.00000000000E+00  0.00000000000E+00  0.11065609009E+04  0.11065609009E+04  0.00000000000E+00 0. -1.
          1   -1    0    0  501    0 -0.00000000000E+00 -0.00000000000E+00 -0.42424429293E+03  0.42424429293E+03  0.00000000000E+00 0. -1.
         25    2    1    2    0    0 -0.89359818624E+02 -0.66194714303E+01  0.14789028029E+01  0.15380476074E+03  0.12499889074E+03 0.  0.
          2    1    1    2  501    0  0.16221419529E+03  0.45476834090E+02 -0.32590743989E+03  0.36687497458E+03  0.00000000000E+00 0. -1.
          1    1    1    2  502    0 -0.72854376667E+02 -0.38857362659E+02  0.10067451450E+04  0.10101254585E+04  0.00000000000E+00 0. -1.
         22    1    3    3    0    0  0.26882517132E+02  0.21427512661E+01 -0.22106536329E+02  0.34870618847E+02  0.00000000000E+00 0. -1.
         22    1    3    3    0    0 -0.11624233576E+03 -0.87622226964E+01  0.23585439132E+02  0.11893414189E+03  0.00000000000E+00 0. -1.
</event>
<event>
 7    1  0.5127424E-006  0.4311894E+02  0.7818608E-02  0.1529048E+00
          2   -1    0    0  502    0  0.00000000000E+00  0.00000000000E+00  0.30109908231E+03  0.30109908231E+03  0.00000000000E+00 0. -1.
          1   -1    0    0  501    0 -0.00000000000E+00 -0.00000000000E+00 -0.25018188578E+04  0.25018188578E+04  0.00000000000E+00 0. -1.
         25    2    1    2    0    0 -0.65313369768E+02  0.29813198345E+02  0.21496271148E+03  0.25882348822E+03  0.12500387060E+03 0.  0.
          2    1    1    2  501    0  0.42533657479E+02 -0.69530886100E+01 -0.24756337214E+04  0.24760088409E+04  0.00000000000E+00 0. -1.
          1    1    1    2  502    0  0.22779712289E+02 -0.22860109735E+02  0.59951234475E+02  0.68085610992E+02  0.00000000000E+00 0. -1.
         22    1    3    3    0    0  0.10895909192E+02 -0.16536432376E+02 -0.58716865691E+01  0.20655535239E+02  0.00000000000E+00 0.  1.
         22    1    3    3    0    0 -0.76209278961E+02  0.46349630721E+02  0.22083439805E+03  0.23816795298E+03  0.00000000000E+00 0.  1.
</event>
<event>
 7    1  0.5127424E-006  0.7538553E+02  0.7818608E-02  0.1446921E+00
          2   -1    0    0  502    0  0.00000000000E+00  0.00000000000E+00  0.44388365285E+03  0.44388365285E+03  0.00000000000E+00 0. -1.
          1   -1    0    0  501    0 -0.00000000000E+00 -0.00000000000E+00 -0.12010573210E+03  0.12010573210E+03  0.00000000000E+00 0. -1.
         25    2    1    2    0    0 -0.33709297412E+02  0.28190893043E+02  0.32026807320E+03  0.34659344964E+03  0.12499734972E+03 0.  0.
          2    1    1    2  501    0  0.59230201879E+02 -0.48758537793E+02 -0.90027647907E+02  0.11828182113E+03  0.00000000000E+00 0. -1.
          1    1    1    2  502    0 -0.25520904467E+02  0.20567644751E+02  0.93537495452E+02  0.99114114186E+02  0.00000000000E+00 0. -1.
         22    1    3    3    0    0 -0.61486256310E+02  0.26567929708E+02  0.30965071918E+03  0.31681221961E+03  0.00000000000E+00 0.  1.
         22    1    3    3    0    0  0.27776958898E+02  0.16229633351E+01  0.10617354022E+02  0.29781230029E+02  0.00000000000E+00 0.  1.
</event>
<event>
 7    1  0.5127424E-006  0.8860903E+02  0.7818608E-02  0.1394284E+00
          2   -1    0    0  502    0  0.00000000000E+00  0.00000000000E+00  0.37979303599E+03  0.37979303599E+03  0.00000000000E+00 0. -1.
          1   -1    0    0  501    0 -0.00000000000E+00 -0.00000000000E+00 -0.52494941126E+03  0.52494941126E+03  0.00000000000E+00 0. -1.
         25    2    1    2    0    0  0.10104525445E+03 -0.75387885872E+02 -0.47465538620E+03  0.50677313718E+03  0.12501120004E+03 0.  0.
          2    1    1    2  501    0 -0.22530383692E+02  0.35198899782E+02 -0.13415773991E+02  0.43892638641E+02  0.00000000000E+00 0. -1.
          1    1    1    2  502    0 -0.78514870758E+02  0.40188986090E+02  0.34291478492E+03  0.35407667143E+03  0.00000000000E+00 0. -1.
         22    1    3    3    0    0  0.18098993333E+02  0.19998552473E+02 -0.22822753590E+03  0.22981584759E+03  0.00000000000E+00 0. -1.
         22    1    3    3    0    0  0.82946261116E+02 -0.95386438345E+02 -0.24642785030E+03  0.27695728959E+03  0.00000000000E+00 0. -1.
</event>
<event>
 7    1  0.5127424E-006  0.1213902E+03  0.7818608E-02  0.1337404E+00
          2   -1    0    0  502    0  0.00000000000E+00  0.00000000000E+00  0.52718226170E+03  0.52718226170E+03  0.00000000000E+00 0. -1.
          1   -1    0    0  501    0 -0.00000000000E+00 -0.00000000000E+00 -0.24438057690E+03  0.24438057690E+03  0.00000000000E+00 0. -1.
         25    2    1    2    0    0 -0.63773681071E+02  0.11483544382E+03  0.83969755387E+02  0.19982592533E+03  0.12500087623E+03 0.  0.
          2    1    1    2  501    0 -0.30251520509E+02 -0.38553744454E+02 -0.17346093568E+03  0.18025049768E+03  0.00000000000E+00 0. -1.
          1    1    1    2  502    0  0.94025201579E+02 -0.76281699370E+02  0.37229286510E+03  0.39148641559E+03  0.00000000000E+00 0. -1.
         22    1    3    3    0    0 -0.95522602148E+02  0.47388516429E+02  0.53404748583E+02  0.11925731081E+03  0.00000000000E+00 0.  1.
         22    1    3    3    0    0  0.31748921077E+02  0.67446927395E+02  0.30565006804E+02  0.80568614519E+02  0.00000000000E+00 0.  1.
</event>
<event>
 7    1  0.5127424E-006  0.5772680E+02  0.7818608E-02  0.1514740E+00
          2   -1    0    0  502    0  0.00000000000E+00  0.00000000000E+00  0.22230442807E+04  0.22230442807E+04  0.00000000000E+00 0. -1.
          1   -1    0    0  501    0 -0.00000000000E+00 -0.00000000000E+00 -0.10452684630E+04  0.10452684630E+04  0.00000000000E+00 0. -1.
         25    2    1    2    0    0 -0.75355952718E+02 -0.47776236966E+01  0.30496161385E+03  0.33812438832E+03  0.12500068303E+03 0.  0.
          2    1    1    2  501    0  0.53950677899E+02  0.20433125793E+02 -0.10277856561E+04  0.10294034890E+04  0.00000000000E+00 0. -1.
          1    1    1    2  502    0  0.21405274818E+02 -0.15655502097E+02  0.19005998600E+04  0.19007848664E+04  0.00000000000E+00 0. -1.
         22    1    3    3    0    0 -0.10904861164E+03  0.56833256547E+01  0.25009155011E+03  0.27289133978E+03  0.00000000000E+00 0.  1.
         22    1    3    3    0    0  0.33692658925E+02 -0.10460949351E+02  0.54870063737E+02  0.65233048536E+02  0.00000000000E+00 0.  1.
</event>
<event>
 7    1  0.5127424E-006  0.1063880E+03  0.7818608E-02  0.1308196E+00
          2   -1    0    0  502    0  0.00000000000E+00  0.00000000000E+00  0.13526056336E+03  0.13526056336E+03  0.00000000000E+00 0. -1.
          1   -1    0    0  501    0 -0.00000000000E+00 -0.00000000000E+00 -0.14285647571E+04  0.14285647571E+04  0.00000000000E+00 0. -1.
         25    2    1    2    0    0  0.14830790564E+03  0.53784586509E+02 -0.54888475066E+03  0.58462583161E+03  0.12499950745E+03 0.  0.
          2    1    1    2  501    0 -0.99257722651E+02 -0.38564218068E+00 -0.84743324342E+03  0.85322643318E+03  0.00000000000E+00 0. -1.
          1    1    1    2  502    0 -0.49050182984E+02 -0.53398944329E+02  0.10301380031E+03  0.12597305569E+03  0.00000000000E+00 0. -1.
         22    1    3    3    0    0  0.46104721212E+01 -0.32958330982E+02 -0.99481485799E+02  0.10490030530E+03  0.00000000000E+00 0.  1.
         22    1    3    3    0    0  0.14369743351E+03  0.86742917491E+02 -0.44940326486E+03  0.47972552632E+03  0.00000000000E+00 0.  1.
</event>
<event>
 7    1  0.5127424E-006  0.1231641E+03  0.7818608E-02  0.1315386E+00
          2   -1    0    0  502    0  0.00000000000E+00  0.00000000000E+00  0.19946111141E+04  0.19946111141E+04  0.00000000000E+00 0. -1.
          1   -1    0    0  501    0 -0.00000000000E+00 -0.00000000000E+00 -0.56315739801E+02  0.56315739801E+02  0.00000000000E+00 0. -1.
         25    2    1    2    0    0  0.41860591098E+02  0.88482524789E+02  0.66119774953E+03  0.67999205859E+03  0.12500107794E+03 0.  0.
          2    1    1    2  501    0 -0.36185935075E+02  0.46202181008E+02 -0.23612162908E+02  0.63258182588E+02  0.00000000000E+00 0. -1.
          1    1    1    2  502    0 -0.56746560231E+01 -0.13468470580E+03  0.13007097877E+04  0.13076766127E+04  0.00000000000E+00 0. -1.
         22    1    3    3    0    0  0.74390196935E+02  0.24920273984E+02  0.45664496413E+03  0.46333524010E+03  0.00000000000E+00 0. -1.
         22    1    3    3    0    0 -0.32529605837E+02  0.63562250805E+02  0.20455278539E+03  0.21665681848E+03  0.00000000000E+00 0. -1.
</event>
<event>
 7    1  0.5127424E-006  0.1089575E+03  0.7818608E-02  0.1267290E+00
          2   -1    0    0  502    0  0.00000000000E+00  0.00000000000E+00  0.56942330180E+03  0.56942330180E+03  0.00000000000E+00 0. -1.
          1   -1    0    0  501    0 -0.00000000000E+00 -0.00000000000E+00 -0.22607639232E+03  0.22607639232E+03  0.00000000000E+00 0. -1.
         25    2    1    2    0    0  0.27352388520E+00  0.13393491022E+02  0.32786081662E+03  0.35113716211E+03  0.12500052448E+03 0.  0.
          2    1    1    2  501    0  0.73840413011E+02 -0.86352007706E+02 -0.18580638629E+03  0.21779138875E+03  0.00000000000E+00 0. -1.
          1    1    1    2  502    0 -0.74113936897E+02  0.72958516684E+02  0.20129247914E+03  0.22657114326E+03  0.00000000000E+00 0. -1.
         22    1    3    3    0    0 -0.96832204601E+01  0.68709640828E+02  0.18881373717E+03  0.20116015223E+03  0.00000000000E+00 0.  1.
         22    1    3    3    0    0  0.99567443453E+01 -0.55316149806E+02  0.13904707945E+03  0.14997700988E+03  0.00000000000E+00 0.  1.
</event>
<event>
 7    1  0.5127424E-006  0.6839423E+02  0.7818608E-02  0.1419844E+00
          2   -1    0    0  502    0  0.00000000000E+00  0.00000000000E+00  0.11887725788E+04  0.11887725788E+04  0.00000000000E+00 0. -1.
          1   -1    0    0  501    0 -0.00000000000E+00 -0.00000000000E+00 -0.23523743541E+03  0.23523743541E+03  0.00000000000E+00 0. -1.
         25    2    1    2    0    0 -0.66907801330E+02  0.63727313603E+02  0.32640692566E+03  0.36153145038E+03  0.12500273643E+03 0.  0.
          2    1    1    2  501    0  0.44313944196E+02 -0.38886416348E+00 -0.21406381209E+03  0.21860281909E+03  0.00000000000E+00 0. -1.
          1    1    1    2  502    0  0.22593857134E+02 -0.63338449439E+02  0.84119202982E+03  0.84387574475E+03  0.00000000000E+00 0. -1.
         22    1    3    3    0    0  0.28137096592E+02  0.51677920102E+01  0.18644120750E+02  0.34146822947E+02  0.00000000000E+00 0. -1.
         22    1    3    3    0    0 -0.95044897922E+02  0.58559521592E+02  0.30776280491E+03  0.32738462743E+03  0.00000000000E+00 0. -1.
</event>
<event>
 7    1  0.5127424E-006  0.2293582E+03  0.7818608E-02  0.1186594E+00
          2   -1    0    0  502    0  0.00000000000E+00  0.00000000000E+00  0.55098912966E+03  0.55098912966E+03  0.00000000000E+00 0. -1.
          1   -1    0    0  501    0 -0.00000000000E+00 -0.00000000000E+00 -0.98913519392E+03  0.98913519392E+03  0.00000000000E+00 0. -1.
         25    2    1    2    0    0 -0.72970188247E+02 -0.11802935053E+03  0.31223770911E+02  0.18935564684E+03  0.12500024464E+03 0.  0.
          2    1    1    2  501    0  0.72851269036E+02  0.23227941807E+03 -0.88595994253E+03  0.91879598128E+03  0.00000000000E+00 0. -1.
          1    1    1    2  502    0  0.11891921191E+00 -0.11425006753E+03  0.41659010736E+03  0.43197269546E+03  0.00000000000E+00 0. -1.
         22    1    3    3    0    0 -0.75482231308E+02 -0.75636130267E+01  0.65689258825E+01  0.76144115153E+02  0.00000000000E+00 0.  1.
         22    1    3    3    0    0  0.25120430605E+01 -0.11046573751E+03  0.24654845028E+02  0.11321153169E+03  0.00000000000E+00 0.  1.
</event>
<event>
 7    1  0.5127424E-006  0.6578148E+02  0.7818608E-02  0.1502531E+00
          2   -1    0    0  502    0  0.00000000000E+00  0.00000000000E+00  0.15327896709E+04  0.15327896709E+04  0.00000000000E+00 0. -1.
          1   -1    0    0  501    0 -0.00000000000E+00 -0.00000000000E+00 -0.31955553126E+03  0.31955553126E+03  0.00000000000E+00 0. -1.
         25    2    1    2    0    0 -0.33982334879E+02 -0.43007016779E+02  0.46670636266E+03  0.48625431683E+03  0.12499611637E+03 0.  0.
          2    1    1    2  501    0  0.18730269910E+02  0.63172625766E+02 -0.30612427061E+03  0.31313523072E+03  0.00000000000E+00 0. -1.
          1    1    1    2  502    0  0.15252064968E+02 -0.20165608988E+02  0.10526520476E+04  0.10529556546E+04  0.00000000000E+00 0. -1.
         22    1    3    3    0    0  0.10081605236E+02 -0.78942521476E+02  0.27820648242E+03  0.28936552546E+03  0.00000000000E+00 0.  1.
         22    1    3    3    0    0 -0.44063940115E+02  0.35935504698E+02  0.18849988024E+03  0.19688879137E+03  0.00000000000E+00 0.  1.
</event>
<event>
 7    1  0.5127424E-006  0.9335293E+02  0.7818608E-02  0.1366180E+00
          2   -1    0    0  502    0  0.00000000000E+00  0.00000000000E+00  0.11913909483E+04  0.11913909483E+04  0.00000000000E+00 0. -1.
          1   -1    0    0  501    0 -0.00000000000E+00 -0.00000000000E+00 -0.21035432322E+03  0.21035432322E+03  0.00000000000E+00 0. -1.
         25    2    1    2    0    0  0.56465330331E+02 -0.12067891177E+03  0.15974884641E+03  0.24268597745E+03  0.12500022578E+03 0.  0.
          2    1    1    2  501    0 -0.17595523545E+02  0.89413464796E+02 -0.15591019436E+03  0.18058892225E+03  0.00000000000E+00 0. -1.
          1    1    1    2  502    0 -0.38869806786E+02  0.31265446972E+02  0.97719797299E+03  0.97847037179E+03  0.00000000000E+00 0. -1.
         22    1    3    3    0    0  0.42040313130E+02 -0.70131940469E+02  0.80788262961E+01  0.82165348148E+02  0.00000000000E+00 0.  1.
         22    1    3    3    0    0  0.14425017200E+02 -0.50546971299E+02  0.15167002011E+03  0.16052062930E+03  0.00000000000E+00 0.  1.
</event>
<event>
 7    1  0.5127424E-006  0.2644943E+02  0.7818608E-02  0.1665958E+00
          2   -1    0    0  502    0  0.00000000000E+00  0.00000000000E+00  0.11011349432E+04  0.11011349432E+04  0.00000000000E+00 0. -1.
          1   -1    0    0  501    0 -0.00000000000E+00 -0.00000000000E+00 -0.10802393256E+04  0.10802393256E+04  0.00000000000E+00 0. -1.
         25    2    1    2    0    0 -0.92994742901E+01 -0.16703481615E+02 -0.23977277005E+03  0.27107457562E+03  0.12499983109E+03 0.  0.
          2    1    1    2  501    0  0.22057110508E+02 -0.64775374747E+01 -0.82449417271E+03  0.82481459459E+03  0.00000000000E+00 0. -1.
          1    1    1    2  502    0 -0.12757636218E+02  0.23181019089E+02  0.10851625604E+04  0.10854850986E+04  0.00000000000E+00 0. -1.
         22    1    3    3    0    0 -0.20458865017E+02  0.44338924286E+02 -0.44098933364E+02  0.65796818224E+02  0.00000000000E+00 0.  1.
         22    1    3    3    0    0  0.11159390727E+02 -0.61042405900E+02 -0.19567383668E+03  0.20527775740E+03  0.00000000000E+00 0.  1.
</event>
<event>
 7    1  0.5127424E-006  0.3972103E+02  0.7818608E-02  0.1532764E+00
          2   -1    0    0  502    0  0.00000000000E+00  0.00000000000E+00  0.29658489910E+03  0.29658489910E+03  0.00000000000E+00 0. -1.
          1   -1    0    0  501    0 -0.00000000000E+00 -0.00000000000E+00 -0.65285330097E+03  0.65285330097E+03  0.00000000000E+00 0. -1.
         25    2    1    2    0    0  0.30521679338E+02  0.31321457294E+02 -0.45119154785E+03  0.47022484584E+03  0.12499994477E+03 0.  0.
          2    1    1    2  501    0 -0.41485727343E+02  0.10581462660E+01 -0.18886654727E+03  0.19337207121E+03  0.00000000000E+00 0. -1.
          1    1    1    2  502    0  0.10964048005E+02 -0.32379603560E+02  0.28378969326E+03  0.28584128301E+03  0.00000000000E+00 0. -1.
         22    1    3    3    0    0 -0.15339659203E+02 -0.42688071885E+02 -0.15577529142E+03  0.16224524043E+03  0.00000000000E+00 0. -1.
         22    1    3    3    0    0  0.45861338541E+02  0.74009529179E+02 -0.29541625643E+03  0.30797960541E+03  0.00000000000E+00 0. -1.
</event>
<event>
 7    1  0.5127424E-006  0.1514858E+03  0.7818608E-02  0.1283184E+00
          2   -1    0    0  502    0  0.00000000000E+00  0.00000000000E+00  0.12429106211E+04  0.12429106211E+04  0.00000000000E+00 0. -1.
          1   -1    0    0  501    0 -0.00000000000E+00 -0.00000000000E+00 -0.14204398213E+04  0.14204398213E+04  0.00000000000E+00 0. -1.
         25    2    1    2    0    0  0.30118836101E+02  0.11923627846E+03  0.16974237963E+03  0.24405277426E+03  0.12499938717E+03 0.  0.
          2    1    1    2  501    0  0.26265443902E+02 -0.14999538301E+03 -0.13780912320E+04  0.13864789692E+04  0.00000000000E+00 0. -1.
          1    1    1    2  502    0 -0.56384280002E+02  0.30759104548E+02  0.10308196522E+04  0.10328186989E+04  0.00000000000E+00 0. -1.
         22    1    3    3    0    0  0.64018184414E+02  0.12068491739E+03  0.15621788578E+03  0.20752639606E+03  0.00000000000E+00 0.  1.
         22    1    3    3    0    0 -0.33899348314E+02 -0.14486389313E+01  0.13524493846E+02  0.36526378203E+02  0.00000000000E+00 0.  1.
</event>
<event>
 7    1  0.5127424E-006  0.2136385E+03  0.7818608E-02  0.1269384E+00
          2   -1    0    0  502    0  0.00000000000E+00  0.00000000000E+00  0.31344478032E+04  0.31344478032E+04  0.00000000000E+00 0. -1.
          1   -1    0    0  501    0 -0.00000000000E+00 -0.00000000000E+00 -0.11048601068E+04  0.11048601068E+04  0.00000000000E+00 0. -1.
         25    2    1    2    0    0 -0.16090374203E+03 -0.92561532214E+02  0.63824548827E+03  0.67634336834E+03  0.12500158859E+03 0.  0.
          2    1    1    2  501    0  0.15809840142E+03  0.14446014388E+03 -0.10749749011E+04  0.10960998475E+04  0.00000000000E+00 0. -1.
          1    1    1    2  502    0  0.28053406124E+01 -0.51898611668E+02  0.24663171093E+04  0.24668646942E+04  0.00000000000E+00 0. -1.
         22    1    3    3    0    0 -0.99711718413E+02 -0.37209912322E+02  0.52811146028E+03  0.53872879897E+03  0.00000000000E+00 0. -1.
         22    1    3    3    0    0 -0.61192023622E+02 -0.55351619893E+02  0.11013402799E+03  0.13761456936E+03  0.00000000000E+00 0. -1.
</event>
<event>
 7    1  0.5127424E-006  0.2215841E+03  0.7818608E-02  0.1169789E+00
          2   -1    0    0  502    0  0.00000000000E+00  0.00000000000E+00  0.93923156077E+03  0.93923156077E+03  0.00000000000E+00 0. -1.
          1   -1    0    0  501    0 -0.00000000000E+00 -0.00000000000E+00 -0.95348514555E+03  0.95348514555E+03  0.00000000000E+00 0. -1.
         25    2    1    2    0    0 -0.21629497555E+02  0.16358725731E+03 -0.27964429233E+03  0.34792981336E+03  0.12500239548E+03 0.  0.
          2    1    1    2  501    0 -0.14266309283E+03 -0.87236885668E+01 -0.61732472094E+03  0.63365501015E+03  0.00000000000E+00 0. -1.
          1    1    1    2  502    0  0.16429259038E+03 -0.15486356874E+03  0.88271542849E+03  0.91113188281E+03  0.00000000000E+00 0. -1.
         22    1    3    3    0    0  0.52180980101E+02  0.79854930836E+02 -0.12908187419E+03  0.16050481272E+03  0.00000000000E+00 0.  1.
         22    1    3    3    0    0 -0.73810477657E+02  0.83732326474E+02 -0.15056241814E+03  0.18742500064E+03  0.00000000000E+00 0.  1.
</event>
<event>
 7    1  0.5127424E-006  0.1112179E+03  0.7818608E-02  0.1336128E+00
          2   -1    0    0  502    0  0.00000000000E+00  0.00000000000E+00  0.43727380515E+03  0.43727380515E+03  0.00000000000E+00 0. -1.
          1   -1    0    0  501    0 -0.00000000000E+00 -0.00000000000E+00 -0.12199709341E+04  0.12199709341E+04  0.00000000000E+00 0. -1.
         25    2    1    2    0    0  0.46842660518E+02 -0.38833279897E+02 -0.23258054288E+03  0.27096311944E+03  0.12500017880E+03 0.  0.
          2    1    1    2  501    0  0.51617102375E+02 -0.16151097410E+02 -0.95981920093E+03  0.96134181313E+03  0.00000000000E+00 0. -1.
          1    1    1    2  502    0 -0.98459762893E+02  0.54984377307E+02  0.40970261487E+03  0.42493980666E+03  0.00000000000E+00 0. -1.
         22    1    3    3    0    0 -0.27335804605E+02 -0.56193058232E+02 -0.95294334780E+02  0.11395576444E+03  0.00000000000E+00 0. -1.
         22    1    3    3    0    0  0.74178465123E+02  0.17359778335E+02 -0.13728620810E+03  0.15700735501E+03  0.00000000000E+00 0. -1.
</event>
<event>
 7    1  0.5127424E-006  0.7068957E+02  0.7818608E-02  0.1398501E+00
          2   -1    0    0  502    0  0.00000000000E+00  0.00000000000E+00  0.24427475628E+04  0.24427475628E+04  0.00000000000E+00 0. -1.
          1   -1    0    0  501    0 -0.00000000000E+00 -0.00000000000E+00 -0.31594695432E+03  0.31594695432E+03  0.00000000000E+00 0. -1.
         25    2    1    2    0    0  0.19947235831E+02 -0.55560948450E+01 -0.13516099048E+03  0.18526468122E+03  0.12500298537E+03 0.  0.
          2    1    1    2  501    0  0.50655420317E+02 -0.39442310756E+00 -0.15108092036E+03  0.15934733030E+03  0.00000000000E+00 0. -1.
          1    1    1    2  502    0 -0.70602656148E+02  0.59505179526E+01  0.24130425193E+04  0.24140825056E+04  0.00000000000E+00 0. -1.
         22    1    3    3    0    0  0.39671707426E+02  0.52140659205E+02 -0.75378313105E+02  0.99871831860E+02  0.00000000000E+00 0.  1.
         22    1    3    3    0    0 -0.19724471595E+02 -0.57696754050E+02 -0.59782677379E+02  0.85392849362E+02  0.00000000000E+00 0.  1.
</event>
<event>
 7    1  0.5127424E-006  0.4554897E+02  0.7818608E-02  0.1500844E+00
          2   -1    0    0  502    0  0.00000000000E+00  0.00000000000E+00  0.18122173678E+03  0.18122173678E+03  0.00000000000E+00 0. -1.
          1   -1    0    0  501    0 -0.00000000000E+00 -0.00000000000E+00 -0.19648553273E+03  0.19648553273E+03  0.00000000000E+00 0. -1.
         25    2    1    2    0    0 -0.35729323605E+02 -0.80063229345E+01 -0.97366479255E+02  0.16261926385E+03  0.12499643163E+03 0.  0.
          2    1    1    2  501    0  0.42840780614E+02 -0.28242074133E+02 -0.53745608508E+02  0.74307049927E+02  0.00000000000E+00 0. -1.
          1    1    1    2  502    0 -0.71114570096E+01  0.36248397067E+02  0.13584829181E+03  0.14078095574E+03  0.00000000000E+00 0. -1.
         22    1    3    3    0    0  0.39514295732E+02 -0.15577623944E+02 -0.42848011206E+01  0.42689594231E+02  0.00000000000E+00 0. -1.
         22    1    3    3    0    0 -0.75243619337E+02  0.75713010096E+01 -0.93081678135E+02  0.11992966962E+03  0.00000000000E+00 0. -1.
</event>
<event>
 7    1  0.5127424E-006  0.1208675E+03  0.7818608E-02  0.1359341E+00
          2   -1    0    0  502    0  0.00000000000E+00  0.00000000000E+00  0.43107594948E+03  0.43107594948E+03  0.00000000000E+00 0. -1.
          1   -1    0    0  501    0 -0.00000000000E+00 -0.00000000000E+00 -0.22681263180E+03  0.22681263180E+03  0.00000000000E+00 0. -1.
         25    2    1    2    0    0 -0.14091167891E+03 -0.26666171683E+02  0.25724433139E+03  0.31994805341E+03  0.12499969953E+03 0.  0.
          2    1    1    2  501    0  0.34242383715E+02  0.22178359722E+02 -0.17274530898E+03  0.17749749930E+03  0.00000000000E+00 0. -1.
          1    1    1    2  502    0  0.10666929520E+03  0.44878119619E+01  0.11976429528E+03  0.16044302857E+03  0.00000000000E+00 0. -1.
         22    1    3    3    0    0 -0.10836370272E+03 -0.73485425972E+02  0.20079599908E+03  0.23971197956E+03  0.00000000000E+00 0.  1.
         22    1    3    3    0    0 -0.32547976197E+02  0.46819254288E+02  0.56448332304E+02  0.80236073848E+02  0.00000000000E+00 0.  1.
</event>
<event>
 7    1  0.5127424E-006  0.9821265E+02  0.7818608E-02  0.1396107E+00
          2   -1    0    0  502    0  0.00000000000E+00  0.00000000000E+00  0.18655835798E+03  0.18655835798E+03  0.00000000000E+00 0. -1.
          1   -1    0    0  501    0 -0.00000000000E+00 -0.00000000000E+00 -0.28324200411E+04  0.28324200411E+04  0.00000000000E+00 0. -1.
         25    2    1    2    0    0 -0.11063316453E+03 -0.24039531363E+02  0.70672503260E+02  0.18285854956E+03  0.12500020106E+03 0.  0.
          2    1    1    2  501    0  0.20233419552E+02  0.31170202191E+02 -0.27417475026E+04  0.27419993327E+04  0.00000000000E+00 0. -1.
          1    1    1    2  502    0  0.90399744982E+02 -0.71306708279E+01  0.25213316236E+02  0.94120516758E+02  0.00000000000E+00 0. -1.
         22    1    3    3    0    0 -0.45321449377E+02  0.13074096002E+02  0.93180090914E+02  0.10443895395E+03  0.00000000000E+00 0. -1.
         22    1    3    3    0    0 -0.65311715157E+02 -0.37113627364E+02 -0.22507587654E+02  0.78419595605E+02  0.00000000000E+00 0. -1.
</event>
<event>
 7    1  0.5127424E-006  0.1018622E+03  0.7818608E-02  0.1367116E+00
          2   -1    0    0  502    0  0.00000000000E+00  0.00000000000E+00  0.21588161977E+04  0.21588161977E+04  0.00000000000E+00 0. -1.
          1   -1    0    0  501    0 -0.00000000000E+00 -0.00000000000E+00 -0.21201612322E+03  0.21201612322E+03  0.00000000000E+00 0. -1.
         25    2    1    2    0    0  0.70004551452E+02  0.80536961846E+02  0.40358886740E+02  0.16923613167E+03  0.12500075630E+03 0.  0.
          2    1    1    2  501    0  0.23122214568E+02 -0.39026466922E+02 -0.14279404561E+03  0.14982603708E+03  0.00000000000E+00 0. -1.
          1    1    1    2  502    0 -0.93126766020E+02 -0.41510494923E+02  0.20492352333E+04  0.20517701522E+04  0.00000000000E+00 0. -1.
         22    1    3    3    0    0  0.10158151060E+03  0.65391258894E+02  0.53107175978E+02  0.13196663281E+03  0.00000000000E+00 0.  1.
         22    1    3    3    0    0 -0.31576959143E+02  0.15145702952E+02 -0.12748289238E+02  0.37269498858E+02  0.00000000000E+00 0.  1.
</event>
<event>
 7    1  0.5127424E-006  0.5082929E+02  0.7818608E-02  0.1513966E+00
          2   -1    0    0  502    0  0.00000000000E+00  0.00000000000E+00  0.11949835524E+03  0.11949835524E+03  0.00000000000E+00 0. -1.
          1   -1    0    0  501    0 -0.00000000000E+00 -0.00000000000E+00 -0.63127536617E+03  0.63127536617E+03  0.00000000000E+00 0. -1.
         25    2    1    2    0    0  0.49936946338E+02  0.36986224279E+02 -0.43410710488E+02  0.14619075453E+03  0.12500227010E+03 0.  0.
          2    1    1    2  501    0 -0.21082605188E+02 -0.46153576995E+02 -0.53184186458E+03  0.53425686503E+03  0.00000000000E+00 0. -1.
          1    1    1    2  502    0 -0.28854341150E+02  0.91673527161E+01  0.63475564133E+02  0.70326101847E+02  0.00000000000E+00 0. -1.
         22    1    3    3    0    0  0.32666770996E+01  0.23372194992E+02  0.41849065643E+02  0.48044510333E+02  0.00000000000E+00 0. -1.
         22    1    3    3    0    0  0.46670269238E+02  0.13614029287E+02 -0.85259776130E+02  0.98146244197E+02  0.00000000000E+00 0. -1.
</event>
<event>
 7    1  0.5127424E-006  0.1495557E+03  0.7818608E-02  0.1257303E+00
          2   -1    0    0  502    0  0.00000000000E+00  0.00000000000E+00  0.35836106687E+04  0.35836106687E+04  0.00000000000E+00 0. -1.
          1   -1    0    0  501    0 -0.00000000000E+00 -0.00000000000E+00 -0.15208896615E+04  0.15208896615E+04  0.00000000000E+00 0. -1.
         25    2    1    2    0    0 -0.12437374697E+03 -0.13096643396E+03 -0.39131880637E+02  0.22310991713E+03  0.12500278109E+03 0.  0.
          2    1    1    2  501    0  0.14073967558E+03  0.49034628638E+02 -0.13852712973E+04  0.13932654515E+04  0.00000000000E+00 0. -1.
          1    1    1    2  502    0 -0.16365928611E+02  0.81931805322E+02  0.34871241852E+04  0.34881249615E+04  0.00000000000E+00 0. -1.
         22    1    3    3    0    0 -0.12861285131E+03 -0.13528937075E+03 -0.64140342843E+02  0.19737898303E+03  0.00000000000E+00 0.  1.
         22    1    3    3    0    0  0.42391043388E+01  0.43229367925E+01  0.25008462206E+02  0.25730934107E+02  0.00000000000E+00 0.  1.
</event>
<event>
 7    1  0.5127424E-006  0.8008026E+02  0.7818608E-02  0.1352822E+00
          2   -1    0    0  502    0  0.00000000000E+00  0.00000000000E+00  0.83552054541E+03  0.83552054541E+03  0.00000000000E+00 0. -1.
          1   -1    0    0  501    0 -0.00000000000E+00 -0.00000000000E+00 -0.82303108847E+03  0.82303108847E+03  0.00000000000E+00 0. -1.
         25    2    1    2    0    0  0.86116532239E+01 -0.18834802645E+02  0.64883401409E+03  0.66109030427E+03  0.12500360876E+03 0.  0.
          2    1    1    2  501    0  0.17908807290E+02  0.78250059037E+02 -0.80898961766E+03  0.81296248290E+03  0.00000000000E+00 0. -1.
          1    1    1    2  502    0 -0.26520460514E+02 -0.59415256392E+02  0.17264506051E+03  0.18449884671E+03  0.00000000000E+00 0. -1.
         22    1    3    3    0    0 -0.10865871560E+02  0.51930937368E+02  0.25176111153E+03  0.25729078238E+03  0.00000000000E+00 0. -1.
         22    1    3    3    0    0  0.19477524784E+02 -0.70765740013E+02  0.39707290256E+03  0.40379952189E+03  0.00000000000E+00 0. -1.
</event>
<event>
 7    1  0.5127424E-006  0.8546802E+02  0.7818608E-02  0.1362181E+00
          2   -1    0    0  502    0  0.00000000000E+00  0.00000000000E+00  0.44196239440E+03  0.44196239440E+03  0.00000000000E+00 0. -1.
          1   -1    0    0  501    0 -0.00000000000E+00 -0.00000000000E+00 -0.96812032254E+02  0.96812032254E+02  0.00000000000E+00 0. -1.
         25    2    1    2    0    0 -0.17781574610E+02 -0.69876994375E+02  0.33292146036E+03  0.36284983324E+03  0.12499729588E+03 0.  0.
          2    1    1    2  501    0  0.71049667797E+02  0.51539660934E+02 -0.42375485089E+02  0.97468321417E+02  0.00000000000E+00 0. -1.
          1    1    1    2  502    0 -0.53268093187E+02  0.18337333441E+02  0.54604386880E+02  0.78456272000E+02  0.00000000000E+00 0. -1.
         22    1    3    3    0    0 -0.53970545668E+02 -0.67597050688E+02  0.30515867178E+03  0.31718132988E+03  0.00000000000E+00 0.  1.
         22    1    3    3    0    0  0.36188971058E+02 -0.22799436872E+01  0.27762788571E+02  0.45668503355E+02  0.00000000000E+00 0.  1.
</event>
<event>
 7    1  0.5127424E-006  0.5953317E+02  0.7818608E-02  0.1466642E+00
          2   -1    0    0  502    0  0.00000000000E+00  0.00000000000E+00  0.54091329393E+03  0.54091329393E+03  0.00000000000E+00 0. -1.
          1   -1    0    0  501    0 -0.00000000000E+00 -0.00000000000E+00 -0.17997326820E+03  0.17997326820E+03  0.00000000000E+00 0. -1.
         25    2    1    2    0    0  0.40075969215E+02 -0.66175763047E+01 -0.37229024795E+02  0.13660411335E+03  0.12499923149E+03 0.  0.
          2    1    1    2  501    0 -0.50351795985E+02  0.41059228766E+02 -0.80960674948E+02  0.10380652443E+03  0.00000000000E+00 0. -1.
          1    1    1    2  502    0  0.10275826769E+02 -0.34441652462E+02  0.47912972548E+03  0.48047592435E+03  0.00000000000E+00 0. -1.
         22    1    3    3    0    0 -0.28659785537E+02 -0.32520331426E+02 -0.45311460815E+02  0.62706329380E+02  0.00000000000E+00 0. -1.
         22    1    3    3    0    0  0.68735754752E+02  0.25902755121E+02  0.80824360199E+01  0.73897783974E+02  0.00000000000E+00 0. -1.
</event>
<event>
 7    1  0.5127424E-006  0.7567000E+02  0.7818608E-02  0.1396837E+00
          2   -1    0    0  502    0  0.00000000000E+00  0.00000000000E+00  0.16525121645E+04  0.16525121645E+04  0.00000000000E+00 0. -1.
          1   -1    0    0  501    0 -0.00000000000E+00 -0.00000000000E+00 -0.21352877605E+03  0.21352877605E+03  0.00000000000E+00 0. -1.
         25    2    1    2    0    0  0.87726732083E+02  0.64207607565E+02  0.18495402782E+03  0.24829247386E+03  0.12499025474E+03 0.  0.
          2    1    1    2  501    0 -0.47946297701E+02 -0.77135820060E+00 -0.17770311466E+03  0.18405933667E+03  0.00000000000E+00 0. -1.
          1    1    1    2  502    0 -0.39780434382E+02 -0.63436249364E+02  0.14317324753E+04  0.14336891300E+04  0.00000000000E+00 0. -1.
         22    1    3    3    0    0 -0.10995456716E+02  0.20947291482E+02  0.12029901490E+03  0.12260318950E+03  0.00000000000E+00 0. -1.
         22    1    3    3    0    0  0.98722188799E+02  0.43260316083E+02  0.64655012913E+02  0.12568928436E+03  0.00000000000E+00 0. -1.
</event>
<event>
 7    1  0.5127424E-006  0.5840684E+02  0.7818608E-02  0.1526250E+00
          2   -1    0    0  502    0  0.00000000000E+00  0.00000000000E+00  0.11802417351E+03  0.11802417351E+03  0.00000000000E+00 0. -1.
          1   -1    0    0  501    0 -0.00000000000E+00 -0.00000000000E+00 -0.11469030206E+04  0.11469030206E+04  0.00000000000E+00 0. -1.
         25    2    1    2    0    0 -0.45070561790E+02 -0.29325212876E+02 -0.21402024090E+03  0.25361659069E+03  0.12500155162E+03 0.  0.
          2    1    1    2  501    0  0.31701300832E+02  0.49581255017E+02 -0.91062095029E+03  0.91252056878E+03  0.00000000000E+00 0. -1.
          1    1    1    2  502    0  0.13369260959E+02 -0.20256042141E+02  0.95762344147E+02  0.98790034610E+02  0.00000000000E+00 0. -1.
         22    1    3    3    0    0  0.13297690386E+02  0.30684984607E+02 -0.13033300456E+02  0.35892391543E+02  0.00000000000E+00 0. -1.
         22    1    3    3    0    0 -0.58368252176E+02 -0.60010197482E+02 -0.20098694044E+03  0.21772419914E+03  0.00000000000E+00 0. -1.
</event>
<event>
 7    1  0.5127424E-006  0.4362484E+02  0.7818608E-02  0.1599461E+00
          2   -1    0    0  502    0  0.00000000000E+00  0.00000000000E+00  0.89798086883E+03  0.89798086883E+03  0.00000000000E+00 0. -1.
          1   -1    0    0  501    0 -0.00000000000E+00 -0.00000000000E+00 -0.31970975294E+03  0.31970975294E+03  0.00000000000E+00 0. -1.
         25    2    1    2    0    0  0.30870512354E+02  0.44938601791E+01  0.21492337671E+02  0.13061176210E+03  0.12499731401E+03 0.  0.
          2    1    1    2  501    0 -0.36822885306E+02 -0.24069441792E+02 -0.26319685919E+03  0.26684798969E+03  0.00000000000E+00 0. -1.
          1    1    1    2  502    0  0.59523729517E+01  0.19575581613E+02  0.81997563740E+03  0.82023086998E+03  0.00000000000E+00 0. -1.
         22    1    3    3    0    0  0.65394743909E+02  0.42062580837E+02  0.14827312319E+02  0.79155432082E+02  0.00000000000E+00 0. -1.
         22    1    3    3    0    0 -0.34524231555E+02 -0.37568720657E+02  0.66650253515E+01  0.51456330021E+02  0.00000000000E+00 0. -1.
</event>
<event>
 7    1  0.5127424E-006  0.8731525E+02  0.7818608E-02  0.1451111E+00
          2   -1    0    0  502    0  0.00000000000E+00  0.00000000000E+00  0.26282905428E+03  0.26282905428E+03  0.00000000000E+00 0. -1.
          1   -1    0    0  501    0 -0.00000000000E+00 -0.00000000000E+00 -0.33922248832E+04  0.33922248832E+04  0.00000000000E+00 0. -1.
         25    2    1    2    0    0 -0.64494403277E+02 -0.94420045220E+02 -0.15592000602E+04  0.15683762969E+04  0.12499883278E+03 0.  0.
          2    1    1    2  501    0  0.12529361708E+02  0.24409660754E+02 -0.18209711789E+04  0.18211778745E+04  0.00000000000E+00 0. -1.
          1    1    1    2  502    0  0.51965041569E+02  0.70010384466E+02  0.25077541007E+03  0.26549976605E+03  0.00000000000E+00 0. -1.
         22    1    3    3    0    0 -0.86898479372E+02 -0.10915033636E+03 -0.11777204962E+04  0.11859556100E+04  0.00000000000E+00 0.  1.
         22    1    3    3    0    0  0.22404076095E+02  0.14730291142E+02 -0.38147956394E+03  0.38242068695E+03  0.00000000000E+00 0.  1.
</event>
<event>
 7    1  0.5127424E-006  0.3094143E+02  0.7818608E-02  0.1593863E+00
          2   -1    0    0  502    0  0.00000000000E+00  0.00000000000E+00  0.12355886035E+02  0.12355886035E+02  0.00000000000E+00 0. -1.
          1   -1    0    0  501    0 -0.00000000000E+00 -0.00000000000E+00 -0.11342921299E+04  0.11342921299E+04  0.00000000000E+00 0. -1.
         25    2    1    2    0    0 -0.10290104776E+02  0.42240483724E+01 -0.79649410072E+03  0.80631963345E+03  0.12499907987E+03 0.  0.
          2    1    1    2  501    0 -0.12354704750E+02 -0.27162279347E+02 -0.29328052163E+03  0.29479466162E+03  0.00000000000E+00 0. -1.
          1    1    1    2  502    0  0.22644809527E+02  0.22938230974E+02 -0.32161621558E+02  0.45533720911E+02  0.00000000000E+00 0. -1.
         22    1    3    3    0    0  0.26794044609E+02 -0.29823505313E+02 -0.96222612007E+02  0.10424084304E+03  0.00000000000E+00 0.  1.
         22    1    3    3    0    0 -0.37084149386E+02  0.34047553685E+02 -0.70027148871E+03  0.70207879041E+03  0.00000000000E+00 0.  1.
</event>
<event>
 7    1  0.5127424E-006  0.1776807E+03  0.7818608E-02  0.1276053E+00
          2   -1    0    0  502    0  0.00000000000E+00  0.00000000000E+00  0.65368704766E+03  0.65368704766E+03  0.00000000000E+00 0. -1.
          1   -1    0    0  501    0 -0.00000000000E+00 -0.00000000000E+00 -0.16077245937E+04  0.16077245937E+04  0.00000000000E+00 0. -1.
         25    2    1    2    0    0  0.13935806877E+03 -0.16091556616E+03 -0.61894147731E+03  0.66635497605E+03  0.12500364397E+03 0.  0.
          2    1    1    2  501    0  0.50620714034E+01  0.58387548515E+02 -0.95170865670E+03  0.95351145648E+03  0.00000000000E+00 0. -1.
          1    1    1    2  502    0 -0.14442014017E+03  0.10252801764E+03  0.61661258799E+03  0.64154520881E+03  0.00000000000E+00 0. -1.
         22    1    3    3    0    0  0.11625016555E+03 -0.70548632035E+02 -0.23749278023E+03  0.27366773857E+03  0.00000000000E+00 0.  1.
         22    1    3    3    0    0  0.23107903219E+02 -0.90366934123E+02 -0.38144869708E+03  0.39268723747E+03  0.00000000000E+00 0.  1.
</event>
<event>
 7    1  0.5127424E-006  0.8497771E+02  0.7818608E-02  0.1322298E+00
          2   -1    0    0  502    0  0.00000000000E+00  0.00000000000E+00  0.67367579087E+03  0.67367579087E+03  0.00000000000E+00 0. -1.
          1   -1    0    0  501    0 -0.00000000000E+00 -0.00000000000E+00 -0.16042951786E+04  0.16042951786E+04  0.00000000000E+00 0. -1.
         25    2    1    2    0    0 -0.43014666459E+01 -0.14877406282E+02  0.10866693638E+03  0.16635233753E+03  0.12499902922E+03 0.  0.
          2    1    1    2  501    0 -0.36321199387E+02 -0.71229704422E+02 -0.15702006574E+04  0.15722350349E+04  0.00000000000E+00 0. -1.
          1    1    1    2  502    0  0.40622666033E+02  0.86107110704E+02  0.53091433329E+03  0.53938359708E+03  0.00000000000E+00 0. -1.
         22    1    3    3    0    0  0.16663083972E+01 -0.34345606146E+02  0.13140495063E+03  0.13582951923E+03  0.00000000000E+00 0. -1.
         22    1    3    3    0    0 -0.59677750431E+01  0.19468199864E+02 -0.22738014248E+02  0.30522818298E+02  0.00000000000E+00 0. -1.
</event>
<event>
 7    1  0.5127424E-006  0.1770545E+03  0.7818608E-02  0.1343828E+00
          2   -1    0    0  502    0  0.00000000000E+00  0.00000000000E+00  0.53562524023E+03  0.53562524023E+03  0.00000000000E+00 0. -1.
          1   -1    0    0  501    0 -0.00000000000E+00 -0.00000000000E+00 -0.84316830460E+03  0.84316830460E+03  0.00000000000E+00 0. -1.
         25    2    1    2    0    0  0.62283074316E+02 -0.15666128669E+03  0.12568547693E+03  0.24462848896E+03  0.12499727359E+03 0.  0.
          2    1    1    2  501    0 -0.24375459714E+02 -0.20393710963E+02 -0.75995558471E+03  0.76061985066E+03  0.00000000000E+00 0. -1.
          1    1    1    2  502    0 -0.37907614602E+02  0.17705499765E+03  0.32672704342E+03  0.37354520522E+03  0.00000000000E+00 0. -1.
         22    1    3    3    0    0  0.44297134571E+02 -0.74572848008E+02 -0.75925063206E+01  0.87068891939E+02  0.00000000000E+00 0. -1.
         22    1    3    3    0    0  0.17985939744E+02 -0.82088438684E+02  0.13327798325E+03  0.15755959702E+03  0.00000000000E+00 0. -1.
</event>
<event>
 7    1  0.5127424E-006  0.8653281E+02  0.7818608E-02  0.1350234E+00
          2   -1    0    0  502    0  0.00000000000E+00  0.00000000000E+00  0.75713711500E+03  0.75713711500E+03  0.00000000000E+00 0. -1.
          1   -1    0    0  501    0 -0.00000000000E+00 -0.00000000000E+00 -0.15336483153E+04  0.15336483153E+04  0.00000000000E+00 0. -1.
         25    2    1    2    0    0  0.54354475643E+01  0.14438738914E+03 -0.13492660862E+03  0.23389633836E+03  0.12500018061E+03 0.  0.
          2    1    1    2  501    0 -0.15254624105E+02 -0.83621356216E+02 -0.13465556515E+04  0.13492358420E+04  0.00000000000E+00 0. -1.
          1    1    1    2  502    0  0.98191765410E+01 -0.60766032922E+02  0.70497105981E+03  0.70765324994E+03  0.00000000000E+00 0. -1.
         22    1    3    3    0    0  0.43459297812E+02  0.13655980610E+03 -0.73057439323E+02  0.16085608677E+03  0.00000000000E+00 0.  1.
         22    1    3    3    0    0 -0.38023850247E+02  0.78275830341E+01 -0.61869169294E+02  0.73040251594E+02  0.00000000000E+00 0.  1.
</event>
<event>
 7    1  0.5127424E-006  0.6563717E+02  0.7818608E-02  0.1531559E+00
          2   -1    0    0  502    0  0.00000000000E+00  0.00000000000E+00  0.49674800422E+02  0.49674800422E+02  0.00000000000E+00 0. -1.
          1   -1    0    0  501    0 -0.00000000000E+00 -0.00000000000E+00 -0.70008643504E+03  0.70008643504E+03  0.00000000000E+00 0. -1.
         25    2    1    2    0    0 -0.65077014981E+02  0.48240898812E+02 -0.11934485366E+03  0.19086725260E+03  0.12499964729E+03 0.  0.
          2    1    1    2  501    0  0.44240259779E+02 -0.47433687993E+02 -0.53392164578E+03  0.53784707787E+03  0.00000000000E+00 0. -1.
          1    1    1    2  502    0  0.20836755202E+02 -0.80721081986E+00  0.28548648189E+01  0.21046904993E+02  0.00000000000E+00 0. -1.
         22    1    3    3    0    0 -0.27011860479E+02  0.87983126379E+02 -0.88974274113E+02  0.12801207985E+03  0.00000000000E+00 0. -1.
         22    1    3    3    0    0 -0.38065154502E+02 -0.39742227567E+02 -0.30370579546E+02  0.62855172749E+02  0.00000000000E+00 0. -1.
</event>
<event>
 7    1  0.5127424E-006  0.6182033E+02  0.7818608E-02  0.1513589E+00
          2   -1    0    0  502    0  0.00000000000E+00  0.00000000000E+00  0.19663399431E+03  0.19663399431E+03  0.00000000000E+00 0. -1.
          1   -1    0    0  501    0 -0.00000000000E+00 -0.00000000000E+00 -0.26061634583E+04  0.26061634583E+04  0.00000000000E+00 0. -1.
         25    2    1    2    0    0  0.26973774706E+02  0.26719848167E+02 -0.55788305673E+02  0.14206182203E+03  0.12501076522E+03 0.  0.
          2    1    1    2  501    0 -0.49587536436E+02 -0.37276078702E+02 -0.25058375867E+04  0.25066053619E+04  0.00000000000E+00 0. -1.
          1    1    1    2  502    0  0.22613761729E+02  0.10556230535E+02  0.15209642830E+03  0.15413026868E+03  0.00000000000E+00 0. -1.
         22    1    3    3    0    0  0.74390091648E+02 -0.20674892229E+01 -0.39483401378E+02  0.84244283079E+02  0.00000000000E+00 0.  1.
         22    1    3    3    0    0 -0.47416316942E+02  0.28787337390E+02 -0.16304904295E+02  0.57817538951E+02  0.00000000000E+00 0.  1.
</event>
<event>
 7    1  0.5127424E-006  0.1182565E+03  0.7818608E-02  0.1264182E+00
          2   -1    0    0  502    0  0.00000000000E+00  0.00000000000E+00  0.15967448818E+04  0.15967448818E+04  0.00000000000E+00 0. -1.
          1   -1    0    0  501    0 -0.00000000000E+00 -0.00000000000E+00 -0.10089325111E+03  0.10089325111E+03  0.00000000000E+00 0. -1.
         25    2    1    2    0    0  0.10185070343E+03  0.13056997203E+03  0.36493455005E+03  0.41978080744E+03  0.12496646388E+03 0.  0.
          2    1    1    2  501    0 -0.42020045836E+01 -0.11576129763E+03 -0.24355818396E+02  0.11837035423E+03  0.00000000000E+00 0. -1.
          1    1    1    2  502    0 -0.97648698846E+02 -0.14808674405E+02  0.11552728991E+04  0.11594869713E+04  0.00000000000E+00 0. -1.
         22    1    3    3    0    0 -0.11231832617E+01  0.12447877559E+01 -0.99367028529E+01  0.10077157376E+02  0.00000000000E+00 0.  1.
         22    1    3    3    0    0  0.10297388669E+03  0.12932518428E+03  0.37487125290E+03  0.40970365007E+03  0.00000000000E+00 0.  1.
</event>
<event>
 7    1  0.5127424E-006  0.5489055E+02  0.7818608E-02  0.1445071E+00
          2   -1    0    0  502    0  0.00000000000E+00  0.00000000000E+00  0.23705647389E+04  0.23705647389E+04  0.00000000000E+00 0. -1.
          1   -1    0    0  501    0 -0.00000000000E+00 -0.00000000000E+00 -0.28687686600E+03  0.28687686600E+03  0.00000000000E+00 0. -1.
         25    2    1    2    0    0 -0.33953061524E+02 -0.36284743731E+02  0.46964844206E+03  0.48853263370E+03  0.12500032821E+03 0.  0.
          2    1    1    2  501    0  0.41445282510E+02 -0.19104623572E+02 -0.27514189282E+03  0.27890098470E+03  0.00000000000E+00 0. -1.
          1    1    1    2  502    0 -0.74922209867E+01  0.55389367302E+02  0.18891813237E+04  0.18900079865E+04  0.00000000000E+00 0. -1.
         22    1    3    3    0    0 -0.62711706215E+02 -0.65832664283E+02  0.27769586284E+03  0.29220145452E+03  0.00000000000E+00 0. -1.
         22    1    3    3    0    0  0.28758644692E+02  0.29547920552E+02  0.19195257921E+03  0.19633117918E+03  0.00000000000E+00 0. -1.
</event>
<event>
 7    1  0.5127424E-006  0.1501206E+03  0.7818608E-02  0.1334294E+00
          2   -1    0    0  502    0  0.00000000000E+00  0.00000000000E+00  0.22409448686E+04  0.22409448686E+04  0.00000000000E+00 0. -1.
          1   -1    0    0  501    0 -0.00000000000E+00 -0.00000000000E+00 -0.24181590387E+03  0.24181590387E+03  0.00000000000E+00 0. -1.
         25    2    1    2    0    0  0.70807338657E+02 -0.90124824943E+02  0.24206408870E+03  0.29556285493E+03  0.12500485948E+03 0.  0.
          2    1    1    2  501    0  0.33019964132E+02 -0.23821230177E+02 -0.21009663398E+03  0.21400552481E+03  0.00000000000E+00 0. -1.
          1    1    1    2  502    0 -0.10382730279E+03  0.11394605512E+03  0.19671615100E+04  0.19731923927E+04  0.00000000000E+00 0. -1.
         22    1    3    3    0    0 -0.10128855326E+02  0.16567414867E+02  0.93731292950E+02  0.95721618372E+02  0.00000000000E+00 0. -1.
         22    1    3    3    0    0  0.80936193983E+02 -0.10669223981E+03  0.14833279575E+03  0.19984123655E+03  0.00000000000E+00 0. -1.
</event>
<event>
 7    1  0.5127424E-006  0.1064218E+03  0.7818608E-02  0.1305268E+00
          2   -1    0    0  502    0  0.00000000000E+00  0.00000000000E+00  0.11594747608E+03  0.11594747608E+03  0.00000000000E+00 0. -1.
          1   -1    0    0  501    0 -0.00000000000E+00 -0.00000000000E+00 -0.57923181365E+03  0.57923181365E+03  0.00000000000E+00 0. -1.
         25    2    1    2    0    0  0.90788367446E+02  0.12255070294E+03 -0.25080110613E+03  0.31904140347E+03  0.12500007935E+03 0.  0.
          2    1    1    2  501    0 -0.39448955994E+00 -0.74445554121E+02 -0.25471672972E+03  0.26537314964E+03  0.00000000000E+00 0. -1.
          1    1    1    2  502    0 -0.90393877886E+02 -0.48105148817E+02  0.42233498284E+02  0.11076473662E+03  0.00000000000E+00 0. -1.
         22    1    3    3    0    0  0.19220429890E+02  0.35946256265E+02 -0.18372434026E+03  0.18819190064E+03  0.00000000000E+00 0.  1.
         22    1    3    3    0    0  0.71567937556E+02  0.86604446672E+02 -0.67076765870E+02  0.13084950282E+03  0.00000000000E+00 0.  1.
</event>
<event>
 7    1  0.5127424E-006  0.1140962E+03  0.7818608E-02  0.1344514E+00
          2   -1    0    0  502    0  0.00000000000E+00  0.00000000000E+00  0.21598699738E+04  0.21598699738E+04  0.00000000000E+00 0. -1.
          1   -1    0    0  501    0 -0.00000000000E+00 -0.00000000000E+00 -0.60290028450E+03  0.60290028450E+03  0.00000000000E+00 0. -1.
         25    2    1    2    0    0 -0.74516585312E+02  0.14370794350E+03  0.23409712742E+03  0.31085539692E+03  0.12499967287E+03 0.  0.
          2    1    1    2  501    0  0.48331714277E+02 -0.10225775414E+03 -0.55853334124E+03  0.56987024502E+03  0.00000000000E+00 0. -1.
          1    1    1    2  502    0  0.26184871036E+02 -0.41450189361E+02  0.18814059031E+04  0.18820446164E+04  0.00000000000E+00 0. -1.
         22    1    3    3    0    0 -0.48513292969E+02  0.12410453357E+03  0.24296435669E+03  0.27710495027E+03  0.00000000000E+00 0.  1.
         22    1    3    3    0    0 -0.26003292343E+02  0.19603409933E+02 -0.88672292704E+01  0.33750446644E+02  0.00000000000E+00 0.  1.
</event>
<event>
 7    1  0.5127424E-006  0.1537163E+03  0.7818608E-02  0.1216394E+00
          2   -1    0    0  502    0  0.00000000000E+00  0.00000000000E+00  0.65357589461E+03  0.65357589461E+03  0.00000000000E+00 0. -1.
          1   -1    0    0  501    0 -0.00000000000E+00 -0.00000000000E+00 -0.22080660775E+04  0.22080660775E+04  0.00000000000E+00 0. -1.
         25    2    1    2    0    0  0.16554158810E+03  0.21534342051E+03  0.10180440582E+03  0.31586051022E+03  0.12500767465E+03 0.  0.
          2    1    1    2  501    0 -0.11013537504E+03 -0.10504091447E+03 -0.20896520935E+04  0.20951871674E+04  0.00000000000E+00 0. -1.
          1    1    1    2  502    0 -0.55406213067E+02 -0.11030250604E+03  0.43335750478E+03  0.45059429450E+03  0.00000000000E+00 0. -1.
         22    1    3    3    0    0  0.17590751874E+03  0.22359500644E+03  0.90792856540E+02  0.29863275918E+03  0.00000000000E+00 0.  1.
         22    1    3    3    0    0 -0.10365930639E+02 -0.82515859276E+01  0.11011549283E+02  0.17227751042E+02  0.00000000000E+00 0.  1.
</event>
<event>
 7    1  0.5127424E-006  0.2086190E+03  0.7818608E-02  0.1220519E+00
          2   -1    0    0  502    0  0.00000000000E+00  0.00000000000E+00  0.11151632684E+04  0.11151632684E+04  0.00000000000E+00 0. -1.
          1   -1    0    0  501    0 -0.00000000000E+00 -0.00000000000E+00 -0.43722795199E+03  0.43722795199E+03  0.00000000000E+00 0. -1.
         25    2    1    2    0    0 -0.12833825542E+03  0.25102017128E+02 -0.85172111960E+02  0.19994324948E+03  0.12498878065E+03 0.  0.
          2    1    1    2  501    0 -0.86043247976E+02 -0.13439500161E+02 -0.27702358192E+03  0.29038961005E+03  0.00000000000E+00 0. -1.
          1    1    1    2  502    0  0.21438150340E+03 -0.11662516968E+02  0.10401310103E+04  0.10620583608E+04  0.00000000000E+00 0. -1.
         22    1    3    3    0    0  0.15646331500E+02  0.26509639043E+02  0.32756826342E+01  0.30956400765E+02  0.00000000000E+00 0.  1.
         22    1    3    3    0    0 -0.14398458692E+03 -0.14076219144E+01 -0.88447794594E+02  0.16898684872E+03  0.00000000000E+00 0.  1.
</event>
<event>
 7    1  0.5127424E-006  0.7534273E+02  0.7818608E-02  0.1424710E+00
          2   -1    0    0  502    0  0.00000000000E+00  0.00000000000E+00  0.17063690538E+03  0.17063690538E+03  0.00000000000E+00 0. -1.
          1   -1    0    0  501    0 -0.00000000000E+00 -0.00000000000E+00 -0.99016077902E+03  0.99016077902E+03  0.00000000000E+00 0. -1.
         25    2    1    2    0    0 -0.67416482759E+02  0.20975921363E+02 -0.39417501054E+03  0.41950451946E+03  0.12500052596E+03 0.  0.
          2    1    1    2  501    0  0.16555407233E+02  0.35041892814E+02 -0.57356952561E+03  0.57487739255E+03  0.00000000000E+00 0. -1.
          1    1    1    2  502    0  0.50861075526E+02 -0.56017814177E+02  0.14822066250E+03  0.16641577239E+03  0.00000000000E+00 0. -1.
         22    1    3    3    0    0 -0.37560963265E+02 -0.45300083991E+02 -0.96030951523E+02  0.11262711584E+03  0.00000000000E+00 0.  1.
         22    1    3    3    0    0 -0.29855519494E+02  0.66276005354E+02 -0.29814405901E+03  0.30687740362E+03  0.00000000000E+00 0.  1.
</event>
<event>
 7    1  0.5127424E-006  0.1636991E+03  0.7818608E-02  0.1291758E+00
          2   -1    0    0  502    0  0.00000000000E+00  0.00000000000E+00  0.44673138993E+03  0.44673138993E+03  0.00000000000E+00 0. -1.
          1   -1    0    0  501    0 -0.00000000000E+00 -0.00000000000E+00 -0.21703914468E+03  0.21703914468E+03  0.00000000000E+00 0. -1.
         25    2    1    2    0    0 -0.15267410573E+03 -0.26848767489E+02 -0.32198170101E+02  0.20172329971E+03  0.12500131444E+03 0.  0.
          2    1    1    2  501    0  0.74019524186E+01 -0.54330583469E+02 -0.71100431240E+02  0.89787930827E+02  0.00000000000E+00 0. -1.
          1    1    1    2  502    0  0.14527215331E+03  0.81179350958E+02  0.33299084660E+03  0.37225930407E+03  0.00000000000E+00 0. -1.
         22    1    3    3    0    0 -0.59135901108E+02  0.45564542055E+02  0.11666705245E+02  0.75559872312E+02  0.00000000000E+00 0. -1.
         22    1    3    3    0    0 -0.93538204626E+02 -0.72413309544E+02 -0.43864875346E+02  0.12616342740E+03  0.00000000000E+00 0. -1.
</event>
<event>
 7    1  0.5127424E-006  0.3717183E+03  0.7818608E-02  0.1266835E+00
          2   -1    0    0  502    0  0.00000000000E+00  0.00000000000E+00  0.47715768956E+03  0.47715768956E+03  0.00000000000E+00 0. -1.
          1   -1    0    0  501    0 -0.00000000000E+00 -0.00000000000E+00 -0.22529556289E+04  0.22529556289E+04  0.00000000000E+00 0. -1.
         25    2    1    2    0    0 -0.22954633680E+03 -0.30222642467E+03 -0.16683374612E+03  0.43300583158E+03  0.12501287468E+03 0.  0.
          2    1    1    2  501    0  0.29467341627E+02 -0.83190027912E+01 -0.18537147844E+04  0.18539676459E+04  0.00000000000E+00 0. -1.
          1    1    1    2  502    0  0.20007899517E+03  0.31054542746E+03  0.24475059117E+03  0.44313984102E+03  0.00000000000E+00 0. -1.
         22    1    3    3    0    0  0.61674084572E+01 -0.64290433119E+02 -0.29870400008E+02  0.71158537888E+02  0.00000000000E+00 0.  1.
         22    1    3    3    0    0 -0.23571374525E+03 -0.23793599155E+03 -0.13696334611E+03  0.36184729369E+03  0.00000000000E+00 0.  1.
</event>
<event>
 7    1  0.5127424E-006  0.5404918E+02  0.7818608E-02  0.1489713E+00
          2   -1    0    0  502    0  0.00000000000E+00  0.00000000000E+00  0.78169037071E+03  0.78169037071E+03  0.00000000000E+00 0. -1.
          1   -1    0    0  501    0 -0.00000000000E+00 -0.00000000000E+00 -0.98450693094E+03  0.98450693094E+03  0.00000000000E+00 0. -1.
         25    2    1    2    0    0 -0.79348541852E+02 -0.32209098453E+02 -0.53581935391E+03  0.55683122929E+03  0.12500008311E+03 0.  0.
          2    1    1    2  501    0  0.26632200320E+02  0.20520853332E+02 -0.43658934639E+03  0.43788198969E+03  0.00000000000E+00 0. -1.
          1    1    1    2  502    0  0.52716341532E+02  0.11688245121E+02  0.76959214007E+03  0.77148408266E+03  0.00000000000E+00 0. -1.
         22    1    3    3    0    0 -0.76904846082E+01  0.38480341922E+02 -0.26540703065E+03  0.26829232600E+03  0.00000000000E+00 0. -1.
         22    1    3    3    0    0 -0.71658057244E+02 -0.70689440375E+02 -0.27041232325E+03  0.28853890330E+03  0.00000000000E+00 0. -1.
</event>
<event>
 7    1  0.5127424E-006  0.6035903E+02  0.7818608E-02  0.1433115E+00
          2   -1    0    0  502    0  0.00000000000E+00  0.00000000000E+00  0.28653136134E+04  0.28653136134E+04  0.00000000000E+00 0. -1.
          1   -1    0    0  501    0 -0.00000000000E+00 -0.00000000000E+00 -0.87499479070E+03  0.87499479070E+03  0.00000000000E+00 0. -1.
         25    2    1    2    0    0 -0.86977189828E+02  0.53845882998E+02  0.18591263238E+04  0.18661296310E+04  0.12499880454E+03 0.  0.
          2    1    1    2  501    0  0.43105620959E+02 -0.42219031041E+02 -0.86993404945E+03  0.87202396270E+03  0.00000000000E+00 0. -1.
          1    1    1    2  502    0  0.43871568869E+02 -0.11626851958E+02  0.10011265484E+04  0.10021548105E+04  0.00000000000E+00 0. -1.
         22    1    3    3    0    0 -0.26248082033E+02 -0.39192251493E+01  0.67293788653E+02  0.72337930074E+02  0.00000000000E+00 0.  1.
         22    1    3    3    0    0 -0.60729107795E+02  0.57765108148E+02  0.17918325351E+04  0.17937917009E+04  0.00000000000E+00 0.  1.
</event>
<event>
 7    1  0.5127424E-006  0.9557460E+02  0.7818608E-02  0.1461183E+00
          2   -1    0    0  502    0  0.00000000000E+00  0.00000000000E+00  0.40776116808E+03  0.40776116808E+03  0.00000000000E+00 0. -1.
          1   -1    0    0  501    0 -0.00000000000E+00 -0.00000000000E+00 -0.20067128021E+04  0.20067128021E+04  0.00000000000E+00 0. -1.
         25    2    1    2    0    0  0.13983510549E+02 -0.80946314560E+02 -0.41889715479E+03  0.44480028925E+03  0.12499850647E+03 0.  0.
          2    1    1    2  501    0 -0.18023345610E+02 -0.14748492671E+02 -0.15689673804E+04  0.15691402103E+04  0.00000000000E+00 0. -1.
          1    1    1    2  502    0  0.40398350608E+01  0.95694807232E+02  0.38891290114E+03  0.40053347060E+03  0.00000000000E+00 0. -1.
         22    1    3    3    0    0 -0.14900337699E+02 -0.42395767009E+01  0.23359137188E+01  0.15666862067E+02  0.00000000000E+00 0. -1.
         22    1    3    3    0    0  0.28883848248E+02 -0.76706737859E+02 -0.42123306851E+03  0.42913342719E+03  0.00000000000E+00 0. -1.
</event>
<event>
 7    1  0.5308239E-006  0.8008636E+02  0.7818608E-02  0.1455096E+00
          2   -1    0    0  502    0  0.00000000000E+00  0.00000000000E+00  0.70519693689E+03  0.70519693689E+03  0.00000000000E+00 0. -1.
          1   -1    0    0  501    0 -0.00000000000E+00 -0.00000000000E+00 -0.10942224686E+04  0.10942224686E+04  0.00000000000E+00 0. -1.
         25    2    1    2    0    0 -0.87047818214E+02  0.40265643569E+02 -0.27113778465E+03  0.31359132171E+03  0.12500069630E+03 0.  0.
          2    1    1    2  501    0  0.80165727866E+01 -0.27924506164E+02 -0.79925444965E+03  0.79978229461E+03  0.00000000000E+00 0. -1.
          1    1    1    2  502    0  0.79031245428E+02 -0.12341137405E+02  0.68136670260E+03  0.68604578917E+03  0.00000000000E+00 0. -1.
         22    1    3    3    0    0 -0.11926683845E+03  0.30604528648E+02 -0.19929443140E+03  0.23426371105E+03  0.00000000000E+00 0.  1.
         22    1    3    3    0    0  0.32219020232E+02  0.96611149204E+01 -0.71843353251E+02  0.79327610657E+02  0.00000000000E+00 0.  1.
</event>
<event>
 7    1  0.5127424E-006  0.5416120E+02  0.7818608E-02  0.1436114E+00
          2   -1    0    0  502    0  0.00000000000E+00  0.00000000000E+00  0.16617277008E+03  0.16617277008E+03  0.00000000000E+00 0. -1.
          1   -1    0    0  501    0 -0.00000000000E+00 -0.00000000000E+00 -0.11658335029E+04  0.11658335029E+04  0.00000000000E+00 0. -1.
         25    2    1    2    0    0 -0.18493980179E+02 -0.77238750591E+02 -0.15628128791E+03  0.21531187153E+03  0.12501003630E+03 0.  0.
          2    1    1    2  501    0 -0.23529942696E+02  0.43493125143E+02 -0.97407125107E+03  0.97532564423E+03  0.00000000000E+00 0. -1.
          1    1    1    2  502    0  0.42023922875E+02  0.33745625448E+02  0.13069180614E+03  0.14136875724E+03  0.00000000000E+00 0. -1.
         22    1    3    3    0    0  0.22746389555E+01  0.11749020256E+02  0.16187520887E+02  0.20130804550E+02  0.00000000000E+00 0. -1.
         22    1    3    3    0    0 -0.20768619135E+02 -0.88987770847E+02 -0.17246880880E+03  0.19518106698E+03  0.00000000000E+00 0. -1.
</event>
<event>
 7    1  0.5127424E-006  0.9755011E+02  0.7818608E-02  0.1406617E+00
          2   -1    0    0  502    0  0.00000000000E+00  0.00000000000E+00  0.68454947213E+03  0.68454947213E+03  0.00000000000E+00 0. -1.
          1   -1    0    0  501    0 -0.00000000000E+00 -0.00000000000E+00 -0.36037071710E+03  0.36037071710E+03  0.00000000000E+00 0. -1.
         25    2    1    2    0    0 -0.10027362867E+03 -0.81040172596E+02  0.29932012856E+03  0.34905428172E+03  0.12499616812E+03 0.  0.
          2    1    1    2  501    0  0.81737070647E+02  0.52023641393E+02 -0.32765229335E+03  0.34167738192E+03  0.00000000000E+00 0. -1.
          1    1    1    2  502    0  0.18536558027E+02  0.29016531202E+02  0.35251091982E+03  0.35418852558E+03  0.00000000000E+00 0. -1.
         22    1    3    3    0    0 -0.10741165235E+03 -0.35619945973E+02  0.27426265544E+03  0.29669183976E+03  0.00000000000E+00 0.  1.
         22    1    3    3    0    0  0.71380236802E+01 -0.45420226622E+02  0.25057473116E+02  0.52362441954E+02  0.00000000000E+00 0.  1.
</event>
<event>
 7    1  0.5127424E-006  0.1174086E+03  0.7818608E-02  0.1384525E+00
          2   -1    0    0  502    0  0.00000000000E+00  0.00000000000E+00  0.74673027601E+03  0.74673027601E+03  0.00000000000E+00 0. -1.
          1   -1    0    0  501    0 -0.00000000000E+00 -0.00000000000E+00 -0.41279398114E+03  0.41279398114E+03  0.00000000000E+00 0. -1.
         25    2    1    2    0    0  0.62476567711E+02  0.59019202287E+02  0.88635052489E+01  0.15195359469E+03  0.12499898184E+03 0.  0.
          2    1    1    2  501    0  0.28034020040E+02  0.19442389910E+02 -0.33499212527E+03  0.33672486810E+03  0.00000000000E+00 0. -1.
          1    1    1    2  502    0 -0.90510587751E+02 -0.78461592197E+02  0.66006491488E+03  0.67084579436E+03  0.00000000000E+00 0. -1.
         22    1    3    3    0    0 -0.22190334087E+02  0.31957917080E+02  0.41852158584E+02  0.57143001051E+02  0.00000000000E+00 0. -1.
         22    1    3    3    0    0  0.84666901798E+02  0.27061285207E+02 -0.32988653336E+02  0.94810593638E+02  0.00000000000E+00 0. -1.
</event>
<event>
 7    1  0.5127424E-006  0.4114372E+02  0.7818608E-02  0.1509421E+00
          2   -1    0    0  502    0  0.00000000000E+00  0.00000000000E+00  0.10793531642E+04  0.10793531642E+04  0.00000000000E+00 0. -1.
          1   -1    0    0  501    0 -0.00000000000E+00 -0.00000000000E+00 -0.20527561524E+02  0.20527561524E+02  0.00000000000E+00 0. -1.
         25    2    1    2    0    0 -0.63866689500E+02 -0.44875477905E+02  0.94677208880E+03  0.95817268194E+03  0.12499895094E+03 0.  0.
          2    1    1    2  501    0  0.30658288890E+02  0.25257641429E+02  0.26189864172E+02  0.47579282398E+02  0.00000000000E+00 0. -1.
          1    1    1    2  502    0  0.33208400611E+02  0.19617836477E+02  0.85863649651E+02  0.94128761336E+02  0.00000000000E+00 0. -1.
         22    1    3    3    0    0 -0.34827425103E+02 -0.88404199685E+02  0.61899288270E+03  0.62624311644E+03  0.00000000000E+00 0.  1.
         22    1    3    3    0    0 -0.29039264397E+02  0.43528721780E+02  0.32777920611E+03  0.33192956550E+03  0.00000000000E+00 0.  1.
</event>
<event>
 7    1  0.5127424E-006  0.1473577E+03  0.7818608E-02  0.1267656E+00
          2   -1    0    0  502    0  0.00000000000E+00  0.00000000000E+00  0.16000182467E+04  0.16000182467E+04  0.00000000000E+00 0. -1.
          1   -1    0    0  501    0 -0.00000000000E+00 -0.00000000000E+00 -0.38569533228E+03  0.38569533228E+03  0.00000000000E+00 0. -1.
         25    2    1    2    0    0 -0.29189462626E+02 -0.84578400447E+02  0.69356715590E+02  0.16862578556E+03  0.12497508154E+03 0.  0.
          2    1    1    2  501    0  0.93808211063E+02  0.12575916138E+03 -0.31669071917E+03  0.35342376652E+03  0.00000000000E+00 0. -1.
          1    1    1    2  502    0 -0.64618748437E+02 -0.41180760932E+02  0.14616569180E+04  0.14636640269E+04  0.00000000000E+00 0. -1.
         22    1    3    3    0    0  0.42052638315E+02 -0.68922320028E+02  0.35033440009E+02  0.88011661194E+02  0.00000000000E+00 0. -1.
         22    1    3    3    0    0 -0.71242100940E+02 -0.15656080420E+02  0.34323275581E+02  0.80614124365E+02  0.00000000000E+00 0. -1.
</event>
<event>
 7    1  0.5127424E-006  0.5812404E+02  0.7818608E-02  0.1553917E+00
          2   -1    0    0  502    0  0.00000000000E+00  0.00000000000E+00  0.41271616865E+03  0.41271616865E+03  0.00000000000E+00 0. -1.
          1   -1    0    0  501    0 -0.00000000000E+00 -0.00000000000E+00 -0.49504623938E+03  0.49504623938E+03  0.00000000000E+00 0. -1.
         25    2    1    2    0    0 -0.87003758372E+01 -0.64688854309E+02  0.18808011036E+03  0.23507716526E+03  0.12500720500E+03 0.  0.
          2    1    1    2  501    0 -0.10234794420E+02  0.57181031170E+02 -0.46923638671E+03  0.47281836677E+03  0.00000000000E+00 0. -1.
          1    1    1    2  502    0  0.18935170258E+02  0.75078231382E+01  0.19882620562E+03  0.19986687600E+03  0.00000000000E+00 0. -1.
         22    1    3    3    0    0  0.52812796763E+02 -0.58433873216E+02  0.96215645278E+02  0.12434291068E+03  0.00000000000E+00 0.  1.
         22    1    3    3    0    0 -0.61513172600E+02 -0.62549810927E+01  0.91864465080E+02  0.11073425457E+03  0.00000000000E+00 0.  1.
</event>
<event>
 7    1  0.5127424E-006  0.8443629E+02  0.7818608E-02  0.1346317E+00
          2   -1    0    0  502    0  0.00000000000E+00  0.00000000000E+00  0.12870441470E+04  0.12870441470E+04  0.00000000000E+00 0. -1.
          1   -1    0    0  501    0 -0.00000000000E+00 -0.00000000000E+00 -0.78040177025E+03  0.78040177025E+03  0.00000000000E+00 0. -1.
         25    2    1    2    0    0  0.40266514645E+02 -0.97837615337E+02  0.27108499881E+02  0.16599360715E+03  0.12500166268E+03 0.  0.
          2    1    1    2  501    0 -0.63102312773E+02  0.16534481168E+02 -0.70796021480E+03  0.71095918075E+03  0.00000000000E+00 0. -1.
          1    1    1    2  502    0  0.22835798128E+02  0.81303134169E+02  0.11874940917E+04  0.11904931294E+04  0.00000000000E+00 0. -1.
         22    1    3    3    0    0 -0.48036156313E+01 -0.11332454543E+03  0.52085626948E+01  0.11354583412E+03  0.00000000000E+00 0.  1.
         22    1    3    3    0    0  0.45070130276E+02  0.15486930096E+02  0.21899937186E+02  0.52447773029E+02  0.00000000000E+00 0.  1.
</event>
<event>
 7    1  0.5127424E-006  0.6538123E+02  0.7818608E-02  0.1389595E+00
          2   -1    0    0  502    0  0.00000000000E+00  0.00000000000E+00  0.24521588399E+04  0.24521588399E+04  0.00000000000E+00 0. -1.
          1   -1    0    0  501    0 -0.00000000000E+00 -0.00000000000E+00 -0.16502692472E+03  0.16502692472E+03  0.00000000000E+00 0. -1.
         25    2    1    2    0    0  0.46776016054E+02  0.18843622689E+02  0.15269456197E+03  0.20367635434E+03  0.12500140106E+03 0.  0.
          2    1    1    2  501    0 -0.11738058249E+02 -0.66073943586E+02 -0.13106354382E+03  0.14724537532E+03  0.00000000000E+00 0. -1.
          1    1    1    2  502    0 -0.35037957804E+02  0.47230320897E+02  0.22655008971E+04  0.22662640350E+04  0.00000000000E+00 0. -1.
         22    1    3    3    0    0  0.52479886945E+02  0.67570921905E+02  0.10196545439E+03  0.13310492820E+03  0.00000000000E+00 0. -1.
         22    1    3    3    0    0 -0.57038708917E+01 -0.48727299215E+02  0.50729107573E+02  0.70571426138E+02  0.00000000000E+00 0. -1.
</event>
<event>
 7    1  0.5127424E-006  0.1567355E+03  0.7818608E-02  0.1256954E+00
          2   -1    0    0  502    0  0.00000000000E+00  0.00000000000E+00  0.68609966661E+03  0.68609966661E+03  0.00000000000E+00 0. -1.
          1   -1    0    0  501    0 -0.00000000000E+00 -0.00000000000E+00 -0.24601947899E+04  0.24601947899E+04  0.00000000000E+00 0. -1.
         25    2    1    2    0    0  0.44107944364E+02 -0.15084753585E+03 -0.99528078147E+02  0.22412261951E+03  0.12499848162E+03 0.  0.
          2    1    1    2  501    0 -0.79944928740E+02 -0.29248973408E+01 -0.22876678242E+04  0.22890661460E+04  0.00000000000E+00 0. -1.
          1    1    1    2  502    0  0.35836984376E+02  0.15377243319E+03  0.61310077910E+03  0.63310569101E+03  0.00000000000E+00 0. -1.
         22    1    3    3    0    0 -0.17088900239E+02  0.11674310865E+02 -0.31332996481E+02  0.37550988190E+02  0.00000000000E+00 0. -1.
         22    1    3    3    0    0  0.61196844603E+02 -0.16252184672E+03 -0.68195081666E+02  0.18657163132E+03  0.00000000000E+00 0. -1.
</event>
<event>
 7    1  0.5127424E-006  0.4179014E+02  0.7818608E-02  0.1572154E+00
          2   -1    0    0  502    0  0.00000000000E+00  0.00000000000E+00  0.40315255405E+03  0.40315255405E+03  0.00000000000E+00 0. -1.
          1   -1    0    0  501    0 -0.00000000000E+00 -0.00000000000E+00 -0.20098919111E+03  0.20098919111E+03  0.00000000000E+00 0. -1.
         25    2    1    2    0    0  0.59185035653E+02 -0.78131791841E+01 -0.77952320137E+02  0.15894913152E+03  0.12499739190E+03 0.  0.
          2    1    1    2  501    0 -0.39219037238E+02 -0.76432448144E+01 -0.77230972812E+02  0.86955018456E+02  0.00000000000E+00 0. -1.
          1    1    1    2  502    0 -0.19965998415E+02  0.15456423999E+02  0.35734665588E+03  0.35823759519E+03  0.00000000000E+00 0. -1.
         22    1    3    3    0    0 -0.29021137507E+02  0.47504910352E+01 -0.61745325640E+02  0.68390634050E+02  0.00000000000E+00 0.  1.
         22    1    3    3    0    0  0.88206173161E+02 -0.12563670219E+02 -0.16206994497E+02  0.90558497468E+02  0.00000000000E+00 0.  1.
</event>
<event>
 7    1  0.5127424E-006  0.3491814E+02  0.7818608E-02  0.1603398E+00
          2   -1    0    0  502    0  0.00000000000E+00  0.00000000000E+00  0.10331586805E+03  0.10331586805E+03  0.00000000000E+00 0. -1.
          1   -1    0    0  501    0 -0.00000000000E+00 -0.00000000000E+00 -0.20840962727E+03  0.20840962727E+03  0.00000000000E+00 0. -1.
         25    2    1    2    0    0 -0.13871996763E+02  0.16142092570E+02 -0.58276217682E+02  0.13954868136E+03  0.12499886989E+03 0.  0.
          2    1    1    2  501    0  0.15241441212E+02  0.19772569340E+02 -0.10272407727E+03  0.10571419999E+03  0.00000000000E+00 0. -1.
          1    1    1    2  502    0 -0.13694444493E+01 -0.35914661910E+02  0.55906535733E+02  0.66462613971E+02  0.00000000000E+00 0. -1.
         22    1    3    3    0    0 -0.31991627814E+02  0.63570527186E+02 -0.52527745402E+02  0.88452474323E+02  0.00000000000E+00 0.  1.
         22    1    3    3    0    0  0.18119631051E+02 -0.47428434616E+02 -0.57484722805E+01  0.51096207032E+02  0.00000000000E+00 0.  1.
</event>
<event>
 7    1  0.5127424E-006  0.1275441E+03  0.7818608E-02  0.1239911E+00
          2   -1    0    0  502    0  0.00000000000E+00  0.00000000000E+00  0.15708748281E+04  0.15708748281E+04  0.00000000000E+00 0. -1.
          1   -1    0    0  501    0 -0.00000000000E+00 -0.00000000000E+00 -0.47095685208E+03  0.47095685208E+03  0.00000000000E+00 0. -1.
         25    2    1    2    0    0 -0.19299539428E+03  0.11065805381E+03 -0.40662798460E+02  0.25840119277E+03  0.12500114464E+03 0.  0.
          2    1    1    2  501    0  0.78330143609E+02 -0.89478461846E+02 -0.30800186816E+03  0.33016231966E+03  0.00000000000E+00 0. -1.
          1    1    1    2  502    0  0.11466525067E+03 -0.21179591965E+02  0.14485826426E+04  0.14532681677E+04  0.00000000000E+00 0. -1.
         22    1    3    3    0    0  0.13397792844E+02  0.55203925752E+01  0.14280579363E+02  0.20344791329E+02  0.00000000000E+00 0. -1.
         22    1    3    3    0    0 -0.20639318712E+03  0.10513766124E+03 -0.54943377823E+02  0.23805640144E+03  0.00000000000E+00 0. -1.
</event>
<event>
 7    1  0.5127424E-006  0.5374300E+02  0.7818608E-02  0.1473525E+00
          2   -1    0    0  502    0  0.00000000000E+00  0.00000000000E+00  0.25104107277E+04  0.25104107277E+04  0.00000000000E+00 0. -1.
          1   -1    0    0  501    0 -0.00000000000E+00 -0.00000000000E+00 -0.24604360460E+03  0.24604360460E+03  0.00000000000E+00 0. -1.
         25    2    1    2    0    0  0.16996164348E+02  0.88415144308E+02  0.57127316438E+03  0.59168155605E+03  0.12501171178E+03 0.  0.
          2    1    1    2  501    0 -0.32881552265E+01 -0.37756356021E+02 -0.23395725669E+03  0.23700707235E+03  0.00000000000E+00 0. -1.
          1    1    1    2  502    0 -0.13708009122E+02 -0.50658788287E+02  0.19270512154E+04  0.19277657039E+04  0.00000000000E+00 0. -1.
         22    1    3    3    0    0  0.31715511118E+01  0.45688274067E+02  0.52573167052E+03  0.52772271745E+03  0.00000000000E+00 0.  1.
         22    1    3    3    0    0  0.13824613237E+02  0.42726870241E+02  0.45541493853E+02  0.63958838593E+02  0.00000000000E+00 0.  1.
</event>
<event>
 7    1  0.5127424E-006  0.4616097E+02  0.7818608E-02  0.1551208E+00
          2   -1    0    0  502    0  0.00000000000E+00  0.00000000000E+00  0.28767768114E+03  0.28767768114E+03  0.00000000000E+00 0. -1.
          1   -1    0    0  501    0 -0.00000000000E+00 -0.00000000000E+00 -0.73820476594E+03  0.73820476594E+03  0.00000000000E+00 0. -1.
         25    2    1    2    0    0 -0.68174427275E+02 -0.10646807817E+02  0.13370637632E+03  0.19560991760E+03  0.12499895097E+03 0.  0.
          2    1    1    2  501    0  0.24904150364E+02  0.77988034641E+01 -0.70318201665E+03  0.70366610447E+03  0.00000000000E+00 0. -1.
          1    1    1    2  502    0  0.43270276911E+02  0.28480043530E+01  0.11894855552E+03  0.12660642501E+03  0.00000000000E+00 0. -1.
         22    1    3    3    0    0 -0.40076107209E+01  0.79090392620E+01  0.12828857340E+03  0.12859460297E+03  0.00000000000E+00 0.  1.
         22    1    3    3    0    0 -0.64166816554E+02 -0.18555847079E+02  0.54178029190E+01  0.67015314637E+02  0.00000000000E+00 0.  1.
</event>
<event>
 7    1  0.5127424E-006  0.1090200E+03  0.7818608E-02  0.1278617E+00
          2   -1    0    0  502    0  0.00000000000E+00  0.00000000000E+00  0.85659426742E+03  0.85659426742E+03  0.00000000000E+00 0. -1.
          1   -1    0    0  501    0 -0.00000000000E+00 -0.00000000000E+00 -0.46639985447E+03  0.46639985447E+03  0.00000000000E+00 0. -1.
         25    2    1    2    0    0 -0.10665173974E+03 -0.45429627686E+01 -0.12799532504E+03  0.20833476550E+03  0.12500135672E+03 0.  0.
          2    1    1    2  501    0  0.82007576068E+02 -0.85344299999E+02 -0.28368510869E+03  0.30738596742E+03  0.00000000000E+00 0. -1.
          1    1    1    2  502    0  0.24644163669E+02  0.89887262768E+02  0.80187484668E+03  0.80727338898E+03  0.00000000000E+00 0. -1.
         22    1    3    3    0    0 -0.14106719075E+02  0.53239510054E+02 -0.47840366053E+02  0.72953036797E+02  0.00000000000E+00 0.  1.
         22    1    3    3    0    0 -0.92545020661E+02 -0.57782472823E+02 -0.80154958991E+02  0.13538172870E+03  0.00000000000E+00 0.  1.
</event>
<event>
 7    1  0.5127424E-006  0.7085745E+02  0.7818608E-02  0.1387546E+00
          2   -1    0    0  502    0  0.00000000000E+00  0.00000000000E+00  0.35970169781E+03  0.35970169781E+03  0.00000000000E+00 0. -1.
          1   -1    0    0  501    0 -0.00000000000E+00 -0.00000000000E+00 -0.19818871166E+04  0.19818871166E+04  0.00000000000E+00 0. -1.
         25    2    1    2    0    0 -0.21832779628E+02  0.76689655400E+01 -0.16690962239E+03  0.20980744711E+03  0.12499943807E+03 0.  0.
          2    1    1    2  501    0  0.42769562032E+02 -0.58707072223E+02 -0.17905381290E+04  0.17920107553E+04  0.00000000000E+00 0. -1.
          1    1    1    2  502    0 -0.20936782404E+02  0.51038106683E+02  0.33526233254E+03  0.33977061204E+03  0.00000000000E+00 0. -1.
         22    1    3    3    0    0 -0.46702348241E+02 -0.19656441614E+02 -0.16522578473E+03  0.17282084645E+03  0.00000000000E+00 0. -1.
         22    1    3    3    0    0  0.24869568614E+02  0.27325407154E+02 -0.16838376607E+01  0.36986600660E+02  0.00000000000E+00 0. -1.
</event>
<event>
 7    1  0.5127424E-006  0.5959046E+02  0.7818608E-02  0.1466690E+00
          2   -1    0    0  502    0  0.00000000000E+00  0.00000000000E+00  0.11023306353E+04  0.11023306353E+04  0.00000000000E+00 0. -1.
          1   -1    0    0  501    0 -0.00000000000E+00 -0.00000000000E+00 -0.21511557005E+03  0.21511557005E+03  0.00000000000E+00 0. -1.
         25    2    1    2    0    0 -0.51564310180E+02 -0.69768330635E+02  0.74020400123E+03  0.75567880159E+03  0.12498795815E+03 0.  0.
          2    1    1    2  501    0  0.13203032324E+02  0.33378502429E+02 -0.20382889612E+03  0.20696536759E+03  0.00000000000E+00 0. -1.
          1    1    1    2  502    0  0.38361277857E+02  0.36389828206E+02  0.35083996015E+03  0.35480203618E+03  0.00000000000E+00 0. -1.
         22    1    3    3    0    0 -0.21150249338E+02 -0.59179415543E+02  0.70565413862E+03  0.70844710433E+03  0.00000000000E+00 0. -1.
         22    1    3    3    0    0 -0.30414060843E+02 -0.10588915091E+02  0.34549862607E+02  0.47231697259E+02  0.00000000000E+00 0. -1.
</event>
<event>
 7    1  0.5127424E-006  0.9004536E+02  0.7818608E-02  0.1375543E+00
          2   -1    0    0  502    0  0.00000000000E+00  0.00000000000E+00  0.69912156412E+03  0.69912156412E+03  0.00000000000E+00 0. -1.
          1   -1    0    0  501    0 -0.00000000000E+00 -0.00000000000E+00 -0.24892742156E+03  0.24892742156E+03  0.00000000000E+00 0. -1.
         25    2    1    2    0    0 -0.60715583887E+02  0.12062863213E+03  0.43104817374E+03  0.46868514491E+03  0.12500235181E+03 0.  0.
          2    1    1    2  501    0  0.29845890378E+02 -0.84049836321E+02 -0.21899452579E+03  0.23646089419E+03  0.00000000000E+00 0. -1.
          1    1    1    2  502    0  0.30869693509E+02 -0.36578795811E+02  0.23814049462E+03  0.24290294658E+03  0.00000000000E+00 0. -1.
         22    1    3    3    0    0 -0.41061331283E+02  0.14451274449E+03  0.38439191186E+03  0.41270704883E+03  0.00000000000E+00 0. -1.
         22    1    3    3    0    0 -0.19654252604E+02 -0.23884112360E+02  0.46656261874E+02  0.55978096080E+02  0.00000000000E+00 0. -1.
</event>
<event>
 7    1  0.5127424E-006  0.9369558E+02  0.7818608E-02  0.1307434E+00
          2   -1    0    0  502    0  0.00000000000E+00  0.00000000000E+00  0.40368992384E+03  0.40368992384E+03  0.00000000000E+00 0. -1.
          1   -1    0    0  501    0 -0.00000000000E+00 -0.00000000000E+00 -0.18476436372E+03  0.18476436372E+03  0.00000000000E+00 0. -1.
         25    2    1    2    0    0  0.36821336032E+02 -0.17323666584E+02  0.95579615538E+02  0.16253055705E+03  0.12499919543E+03 0.  0.
          2    1    1    2  501    0 -0.39295176973E+02 -0.85057338279E+02 -0.12562204599E+03  0.15671553901E+03  0.00000000000E+00 0. -1.
          1    1    1    2  502    0  0.24738409413E+01  0.10238100486E+03  0.24896799057E+03  0.26920819150E+03  0.00000000000E+00 0. -1.
         22    1    3    3    0    0  0.25045263385E+02  0.18990986553E+02 -0.22355367233E+02  0.38570522844E+02  0.00000000000E+00 0.  1.
         22    1    3    3    0    0  0.11776072647E+02 -0.36314653138E+02  0.11793498277E+03  0.12396003421E+03  0.00000000000E+00 0.  1.
</event>
<event>
 7    1  0.5127424E-006  0.6922685E+02  0.7818608E-02  0.1362842E+00
          2   -1    0    0  502    0  0.00000000000E+00  0.00000000000E+00  0.18548860294E+04  0.18548860294E+04  0.00000000000E+00 0. -1.
          1   -1    0    0  501    0 -0.00000000000E+00 -0.00000000000E+00 -0.10378798487E+03  0.10378798487E+03  0.00000000000E+00 0. -1.
         25    2    1    2    0    0  0.95282208916E-01 -0.27572715515E+02  0.63131777453E+03  0.64416228778E+03  0.12499062700E+03 0.  0.
          2    1    1    2  501    0 -0.67088007857E+02 -0.16837775296E+02 -0.83569176909E+02  0.10848096056E+03  0.00000000000E+00 0. -1.
          1    1    1    2  502    0  0.66992725648E+02  0.44410490811E+02  0.12033494469E+04  0.12060307659E+04  0.00000000000E+00 0. -1.
         22    1    3    3    0    0  0.37252462786E+01 -0.47271528985E+02  0.83857034444E+02  0.96335233109E+02  0.00000000000E+00 0.  1.
         22    1    3    3    0    0 -0.36299640697E+01  0.19698813470E+02  0.54746074009E+03  0.54782705467E+03  0.00000000000E+00 0.  1.
</event>
<event>
 7    1  0.5127424E-006  0.6570410E+02  0.7818608E-02  0.1381251E+00
          2   -1    0    0  502    0  0.00000000000E+00  0.00000000000E+00  0.63907963692E+03  0.63907963692E+03  0.00000000000E+00 0. -1.
          1   -1    0    0  501    0 -0.00000000000E+00 -0.00000000000E+00 -0.54478092525E+03  0.54478092525E+03  0.00000000000E+00 0. -1.
         25    2    1    2    0    0  0.64845649637E+01 -0.12692586549E+03 -0.10889876793E+03  0.20888768698E+03  0.12499159652E+03 0.  0.
          2    1    1    2  501    0 -0.89678151942E+01  0.61959631861E+02 -0.38153497454E+03  0.38663723887E+03  0.00000000000E+00 0. -1.
          1    1    1    2  502    0  0.24832502305E+01  0.64966233633E+02  0.58473245413E+03  0.58833563632E+03  0.00000000000E+00 0. -1.
         22    1    3    3    0    0  0.48602503563E+01 -0.85729097153E+02  0.67284132900E+01  0.86129969683E+02  0.00000000000E+00 0. -1.
         22    1    3    3    0    0  0.16243146074E+01 -0.41196768341E+02 -0.11562718122E+03  0.12275771730E+03  0.00000000000E+00 0. -1.
</event>
<event>
 7    1  0.5127424E-006  0.1242386E+03  0.7818608E-02  0.1291655E+00
          2   -1    0    0  502    0  0.00000000000E+00  0.00000000000E+00  0.12382881541E+03  0.12382881541E+03  0.00000000000E+00 0. -1.
          1   -1    0    0  501    0 -0.00000000000E+00 -0.00000000000E+00 -0.11503862927E+04  0.11503862927E+04  0.00000000000E+00 0. -1.
         25    2    1    2    0    0  0.57425957213E+02 -0.76184025755E+02 -0.11784513065E+03  0.19650599920E+03  0.12500154624E+03 0.  0.
          2    1    1    2  501    0 -0.12162230814E+03  0.42886838489E+02 -0.97266066523E+03  0.98117278623E+03  0.00000000000E+00 0. -1.
          1    1    1    2  502    0  0.64196350931E+02  0.33297187266E+02  0.63948318572E+02  0.96536322703E+02  0.00000000000E+00 0. -1.
         22    1    3    3    0    0  0.16821076304E+02 -0.28869713772E+02 -0.12892134108E+03  0.13318078377E+03  0.00000000000E+00 0.  1.
         22    1    3    3    0    0  0.40604880909E+02 -0.47314311983E+02  0.11076210421E+02  0.63325215431E+02  0.00000000000E+00 0.  1.
</event>
<event>
 7    1  0.5127424E-006  0.7310473E+02  0.7818608E-02  0.1378462E+00
          2   -1    0    0  502    0  0.00000000000E+00  0.00000000000E+00  0.84888911857E+02  0.84888911857E+02  0.00000000000E+00 0. -1.
          1   -1    0    0  501    0 -0.00000000000E+00 -0.00000000000E+00 -0.14502172155E+04  0.14502172155E+04  0.00000000000E+00 0. -1.
         25    2    1    2    0    0 -0.83840426664E+02 -0.48770746322E+02 -0.26137058338E+03  0.30552747852E+03  0.12499862174E+03 0.  0.
          2    1    1    2  501    0  0.54757220887E+02 -0.17750095405E+02 -0.11448215287E+04  0.11462677487E+04  0.00000000000E+00 0. -1.
          1    1    1    2  502    0  0.29083205778E+02  0.66520841727E+02  0.40863808433E+02  0.83310900139E+02  0.00000000000E+00 0. -1.
         22    1    3    3    0    0  0.28194218831E+02  0.27957259991E+01 -0.90255532559E+02  0.94598050809E+02  0.00000000000E+00 0. -1.
         22    1    3    3    0    0 -0.11203464550E+03 -0.51566472321E+02 -0.17111505082E+03  0.21092942772E+03  0.00000000000E+00 0. -1.
</event>
<event>
 7    1  0.5127424E-006  0.3430896E+03  0.7818608E-02  0.1175562E+00
          2   -1    0    0  502    0  0.00000000000E+00  0.00000000000E+00  0.10611376020E+04  0.10611376020E+04  0.00000000000E+00 0. -1.
          1   -1    0    0  501    0 -0.00000000000E+00 -0.00000000000E+00 -0.11826105679E+04  0.11826105679E+04  0.00000000000E+00 0. -1.
         25    2    1    2    0    0 -0.14049078360E+03 -0.33126271522E+03 -0.14204453891E+02  0.38118126203E+03  0.12499896498E+03 0.  0.
          2    1    1    2  501    0 -0.64365285334E+02  0.57695892598E+02 -0.94960806498E+03  0.95353404923E+03  0.00000000000E+00 0. -1.
          1    1    1    2  502    0  0.20485606893E+03  0.27356682262E+03  0.84233955301E+03  0.90903285858E+03  0.00000000000E+00 0. -1.
         22    1    3    3    0    0 -0.15597728217E+03 -0.32699135950E+03 -0.43085359416E+01  0.36231315905E+03  0.00000000000E+00 0. -1.
         22    1    3    3    0    0  0.15486498579E+02 -0.42713557151E+01 -0.98959179496E+01  0.18868102977E+02  0.00000000000E+00 0. -1.
</event>
<event>
 7    1  0.5127424E-006  0.1493706E+03  0.7818608E-02  0.1241915E+00
          2   -1    0    0  502    0  0.00000000000E+00  0.00000000000E+00  0.68444131696E+03  0.68444131696E+03  0.00000000000E+00 0. -1.
          1   -1    0    0  501    0 -0.00000000000E+00 -0.00000000000E+00 -0.32092907948E+04  0.32092907948E+04  0.00000000000E+00 0. -1.
         25    2    1    2    0    0 -0.48332460438E+02 -0.10244181240E+03 -0.89232583400E+02  0.19083535552E+03  0.12500130926E+03 0.  0.
          2    1    1    2  501    0 -0.90340778196E+02  0.36842102204E+02 -0.30591826461E+04  0.30607380252E+04  0.00000000000E+00 0. -1.
          1    1    1    2  502    0  0.13867323863E+03  0.65599710196E+02  0.62356575171E+03  0.64215873099E+03  0.00000000000E+00 0. -1.
         22    1    3    3    0    0 -0.23413602157E+02 -0.12856122963E+03 -0.57482649706E+02  0.14276008387E+03  0.00000000000E+00 0. -1.
         22    1    3    3    0    0 -0.24918858281E+02  0.26119417228E+02 -0.31749933694E+02  0.48075271647E+02  0.00000000000E+00 0. -1.
</event>
<event>
 7    1  0.5127424E-006  0.5308311E+02  0.7818608E-02  0.1433901E+00
          2   -1    0    0  502    0  0.00000000000E+00  0.00000000000E+00  0.20264116875E+04  0.20264116875E+04  0.00000000000E+00 0. -1.
          1   -1    0    0  501    0 -0.00000000000E+00 -0.00000000000E+00 -0.65523023931E+03  0.65523023931E+03  0.00000000000E+00 0. -1.
         25    2    1    2    0    0 -0.99256714213E+01  0.77332092537E+01  0.37295523759E+03  0.39354476804E+03  0.12499421478E+03 0.  0.
          2    1    1    2  501    0  0.36430341410E+02  0.38608901804E+02 -0.64340853484E+03  0.64559457849E+03  0.00000000000E+00 0. -1.
          1    1    1    2  502    0 -0.26504669989E+02 -0.46342111057E+02  0.16416347454E+04  0.16425025803E+04  0.00000000000E+00 0. -1.
         22    1    3    3    0    0  0.47609219101E+02 -0.28683701910E+02  0.20257986493E+03  0.21006664222E+03  0.00000000000E+00 0.  1.
         22    1    3    3    0    0 -0.57534890522E+02  0.36416911164E+02  0.17037537265E+03  0.18347812582E+03  0.00000000000E+00 0.  1.
</event>
<event>
 7    1  0.5127424E-006  0.8649873E+02  0.7818608E-02  0.1409789E+00
          2   -1    0    0  502    0  0.00000000000E+00  0.00000000000E+00  0.16224059363E+03  0.16224059363E+03  0.00000000000E+00 0. -1.
          1   -1    0    0  501    0 -0.00000000000E+00 -0.00000000000E+00 -0.80849411598E+03  0.80849411598E+03  0.00000000000E+00 0. -1.
         25    2    1    2    0    0  0.94931887393E+02 -0.62501308762E+02  0.33136326017E+02  0.17216764796E+03  0.12500082424E+03 0.  0.
          2    1    1    2  501    0 -0.35084482801E+02  0.14280838291E+02 -0.71348320815E+03  0.71448803460E+03  0.00000000000E+00 0. -1.
          1    1    1    2  502    0 -0.59847404592E+02  0.48220470470E+02  0.34093359775E+02  0.84079027049E+02  0.00000000000E+00 0. -1.
         22    1    3    3    0    0 -0.11735605087E+02 -0.21337680781E+02 -0.32284977465E+02  0.40439347396E+02  0.00000000000E+00 0. -1.
         22    1    3    3    0    0  0.10666749248E+03 -0.41163627980E+02  0.65421303482E+02  0.13172830057E+03  0.00000000000E+00 0. -1.
</event>
<event>
 7    1  0.5127424E-006  0.1645816E+03  0.7818608E-02  0.1185052E+00
          2   -1    0    0  502    0  0.00000000000E+00  0.00000000000E+00  0.71457668498E+03  0.71457668498E+03  0.00000000000E+00 0. -1.
          1   -1    0    0  501    0 -0.00000000000E+00 -0.00000000000E+00 -0.26099284019E+04  0.26099284019E+04  0.00000000000E+00 0. -1.
         25    2    1    2    0    0  0.17452378772E+03  0.98561254635E+02 -0.87871519489E+03  0.90991106645E+03  0.12499952684E+03 0.  0.
          2    1    1    2  501    0 -0.21591391080E+02 -0.16052628488E+03 -0.17019780183E+04  0.17096678190E+04  0.00000000000E+00 0. -1.
          1    1    1    2  502    0 -0.15293239664E+03  0.61965030249E+02  0.68534149632E+03  0.70492620146E+03  0.00000000000E+00 0. -1.
         22    1    3    3    0    0  0.17426848999E+03  0.43294149421E+02 -0.71098490094E+03  0.73330990675E+03  0.00000000000E+00 0. -1.
         22    1    3    3    0    0  0.25529773168E+00  0.55267105214E+02 -0.16773029396E+03  0.17660115970E+03  0.00000000000E+00 0. -1.
</event>
<event>
 7    1  0.5355699E-006  0.9623864E+02  0.7818608E-02  0.1292520E+00
          2   -1    0    0  502    0  0.00000000000E+00  0.00000000000E+00  0.10027386348E+04  0.10027386348E+04  0.00000000000E+00 0. -1.
          1   -1    0    0  501    0 -0.00000000000E+00 -0.00000000000E+00 -0.41225957414E+04  0.41225957414E+04  0.00000000000E+00 0. -1.
         25    2    1    2    0    0  0.62624509586E+02 -0.14473814758E+03 -0.98724292431E+03  0.10075438252E+04  0.12500003048E+03 0.  0.
          2    1    1    2  501    0  0.17118008789E+02  0.91011718153E+02 -0.31221855858E+04  0.31235587062E+04  0.00000000000E+00 0. -1.
          1    1    1    2  502    0 -0.79742518375E+02  0.53726429425E+02  0.98957140348E+03  0.99423184471E+03  0.00000000000E+00 0. -1.
         22    1    3    3    0    0  0.86518511769E+02 -0.13685317083E+03 -0.66922280552E+03  0.68852988800E+03  0.00000000000E+00 0.  1.
         22    1    3    3    0    0 -0.23894002183E+02 -0.78849767524E+01 -0.31802011879E+03  0.31901393724E+03  0.00000000000E+00 0.  1.
</event>
<event>
 7    1  0.5127424E-006  0.8231496E+02  0.7818608E-02  0.1476318E+00
          2   -1    0    0  502    0  0.00000000000E+00  0.00000000000E+00  0.89577776008E+03  0.89577776008E+03  0.00000000000E+00 0. -1.
          1   -1    0    0  501    0 -0.00000000000E+00 -0.00000000000E+00 -0.18748510420E+03  0.18748510420E+03  0.00000000000E+00 0. -1.
         25    2    1    2    0    0 -0.18151707572E+02  0.57648096098E+02  0.18739052527E+03  0.23322170656E+03  0.12499747188E+03 0.  0.
          2    1    1    2  501    0  0.16269021200E+02 -0.81832261233E+02 -0.15376265542E+03  0.17494043052E+03  0.00000000000E+00 0. -1.
          1    1    1    2  502    0  0.18826863715E+01  0.24184165135E+02  0.67466478604E+03  0.67510072720E+03  0.00000000000E+00 0. -1.
         22    1    3    3    0    0 -0.32942938080E+02  0.79437188482E+02  0.64385332556E+02  0.10742893061E+03  0.00000000000E+00 0.  1.
         22    1    3    3    0    0  0.14791230508E+02 -0.21789092384E+02  0.12300519271E+03  0.12579277595E+03  0.00000000000E+00 0.  1.
</event>
<event>
 7    1  0.5127424E-006  0.3474896E+02  0.7818608E-02  0.1608110E+00
          2   -1    0    0  502    0  0.00000000000E+00  0.00000000000E+00  0.16021814171E+04  0.16021814171E+04  0.00000000000E+00 0. -1.
          1   -1    0    0  501    0 -0.00000000000E+00 -0.00000000000E+00 -0.28308127341E+02  0.28308127341E+02  0.00000000000E+00 0. -1.
         25    2    1    2    0    0 -0.51655240804E+02 -0.46951687955E+01  0.87468116998E+03  0.88508881506E+03  0.12499901169E+03 0.  0.
          2    1    1    2  501    0  0.19461852610E+02  0.14701344995E+02 -0.16157755331E+02  0.29256901904E+02  0.00000000000E+00 0. -1.
          1    1    1    2  502    0  0.32193388194E+02 -0.10006176200E+02  0.71534987507E+03  0.71614382743E+03  0.00000000000E+00 0. -1.
         22    1    3    3    0    0 -0.90748838195E+02  0.14191842026E+02  0.60653408639E+03  0.61344955617E+03  0.00000000000E+00 0.  1.
         22    1    3    3    0    0  0.39093597392E+02 -0.18887010821E+02  0.26814708359E+03  0.27163925890E+03  0.00000000000E+00 0.  1.
</event>
<event>
 7    1  0.5127424E-006  0.4172527E+02  0.7818608E-02  0.1519422E+00
          2   -1    0    0  502    0  0.00000000000E+00  0.00000000000E+00  0.67840525089E+03  0.67840525089E+03  0.00000000000E+00 0. -1.
          1   -1    0    0  501    0 -0.00000000000E+00 -0.00000000000E+00 -0.13121206820E+03  0.13121206820E+03  0.00000000000E+00 0. -1.
         25    2    1    2    0    0  0.63064660259E+01 -0.96627334953E+01  0.43680364097E+02  0.13290690888E+03  0.12499252892E+03 0.  0.
          2    1    1    2  501    0  0.43983814641E+01  0.43567247486E+02 -0.80487935823E+02  0.91628372386E+02  0.00000000000E+00 0. -1.
          1    1    1    2  502    0 -0.10704847490E+02 -0.33904513991E+02  0.58400075442E+03  0.58508203783E+03  0.00000000000E+00 0. -1.
         22    1    3    3    0    0  0.31893341173E+02 -0.49175360940E+02  0.59233131668E+02  0.83330457949E+02  0.00000000000E+00 0. -1.
         22    1    3    3    0    0 -0.25586875147E+02  0.39512627445E+02 -0.15552767571E+02  0.49576450927E+02  0.00000000000E+00 0. -1.
</event>
<event>
 7    1  0.5127424E-006  0.5535113E+02  0.7818608E-02  0.1432240E+00
          2   -1    0    0  502    0  0.00000000000E+00  0.00000000000E+00  0.19785237000E+04  0.19785237000E+04  0.00000000000E+00 0. -1.
          1   -1    0    0  501    0 -0.00000000000E+00 -0.00000000000E+00 -0.18214410898E+03  0.18214410898E+03  0.00000000000E+00 0. -1.
         25    2    1    2    0    0  0.22662642251E+02 -0.99618508432E+02 -0.26060573564E+02  0.16351161322E+03  0.12497780438E+03 0.  0.
          2    1    1    2  501    0  0.10465861627E+01  0.49809453879E+02 -0.79822335931E+02  0.94094008054E+02  0.00000000000E+00 0. -1.
          1    1    1    2  502    0 -0.23709228414E+02  0.49809054554E+02  0.19022625006E+04  0.19030621878E+04  0.00000000000E+00 0. -1.
         22    1    3    3    0    0  0.67809145318E+02 -0.78997387636E+02 -0.40673542552E+02  0.11177210970E+03  0.00000000000E+00 0.  1.
         22    1    3    3    0    0 -0.45146503067E+02 -0.20621120796E+02  0.14612968988E+02  0.51739503522E+02  0.00000000000E+00 0.  1.
</event>
<event>
 7    1  0.5127424E-006  0.1824317E+03  0.7818608E-02  0.1208558E+00
          2   -1    0    0  502    0  0.00000000000E+00  0.00000000000E+00  0.55765780029E+03  0.55765780029E+03  0.00000000000E+00 0. -1.
          1   -1    0    0  501    0 -0.00000000000E+00 -0.00000000000E+00 -0.17584881713E+04  0.17584881713E+04  0.00000000000E+00 0. -1.
         25    2    1    2    0    0  0.42170186143E+01  0.78142625327E+02  0.73402205491E+02  0.16473255013E+03  0.12499950465E+03 0.  0.
          2    1    1    2  501    0 -0.56894493635E+02 -0.17816116922E+03 -0.17003254868E+04  0.17105803537E+04  0.00000000000E+00 0. -1.
          1    1    1    2  502    0  0.52677475021E+02  0.10001854390E+03  0.42609291022E+03  0.44083306777E+03  0.00000000000E+00 0. -1.
         22    1    3    3    0    0 -0.36170436623E+02  0.30203899780E+02 -0.20857725632E+02  0.51532715491E+02  0.00000000000E+00 0.  1.
         22    1    3    3    0    0  0.40387455237E+02  0.47938725547E+02  0.94259931123E+02  0.11319983464E+03  0.00000000000E+00 0.  1.
</event>
<event>
 7    1  0.5127424E-006  0.1182841E+03  0.7818608E-02  0.1301197E+00
          2   -1    0    0  502    0  0.00000000000E+00  0.00000000000E+00  0.79731692652E+02  0.79731692652E+02  0.00000000000E+00 0. -1.
          1   -1    0    0  501    0 -0.00000000000E+00 -0.00000000000E+00 -0.22567587291E+04  0.22567587291E+04  0.00000000000E+00 0. -1.
         25    2    1    2    0    0 -0.14821752941E+03  0.30793313647E+02 -0.57258212913E+03  0.60530290004E+03  0.12499856802E+03 0.  0.
          2    1    1    2  501    0  0.11221688042E+03  0.28689290507E+02 -0.16460774269E+04  0.16501474477E+04  0.00000000000E+00 0. -1.
          1    1    1    2  502    0  0.36000648993E+02 -0.59482604154E+02  0.41632519550E+02  0.81040074093E+02  0.00000000000E+00 0. -1.
         22    1    3    3    0    0 -0.33169547512E+02 -0.14440236690E+02 -0.25084419372E+02  0.44022351289E+02  0.00000000000E+00 0. -1.
         22    1    3    3    0    0 -0.11504798190E+03  0.45233550337E+02 -0.54749770976E+03  0.56128054875E+03  0.00000000000E+00 0. -1.
</event>
<event>
 7    1  0.5127424E-006  0.1293061E+03  0.7818608E-02  0.1341240E+00
          2   -1    0    0  502    0  0.00000000000E+00  0.00000000000E+00  0.19840166830E+04  0.19840166830E+04  0.00000000000E+00 0. -1.
          1   -1    0    0  501    0 -0.00000000000E+00 -0.00000000000E+00 -0.68562431685E+03  0.68562431685E+03  0.00000000000E+00 0. -1.
         25    2    1    2    0    0  0.36266687116E+00  0.93896422699E+02  0.48655038253E+03  0.51105132929E+03  0.12500206683E+03 0.  0.
          2    1    1    2  501    0 -0.31203077772E+02 -0.12597655254E+03 -0.66678251190E+03  0.67929569558E+03  0.00000000000E+00 0. -1.
          1    1    1    2  502    0  0.30840410901E+02  0.32080129843E+02  0.14786244955E+04  0.14792939750E+04  0.00000000000E+00 0. -1.
         22    1    3    3    0    0  0.19265843946E+02  0.41524367192E+01  0.32252647782E+03  0.32312806187E+03  0.00000000000E+00 0.  1.
         22    1    3    3    0    0 -0.18903177075E+02  0.89743985979E+02  0.16402390471E+03  0.18792326742E+03  0.00000000000E+00 0.  1.
</event>
<event>
 7    1  0.5127424E-006  0.7842732E+02  0.7818608E-02  0.1477534E+00
          2   -1    0    0  502    0  0.00000000000E+00  0.00000000000E+00  0.83967823280E+02  0.83967823280E+02  0.00000000000E+00 0. -1.
          1   -1    0    0  501    0 -0.00000000000E+00 -0.00000000000E+00 -0.54358587175E+03  0.54358587175E+03  0.00000000000E+00 0. -1.
         25    2    1    2    0    0  0.92961414080E+01 -0.92179464578E+02 -0.60536024935E+02  0.16695187196E+03  0.12499938120E+03 0.  0.
          2    1    1    2  501    0 -0.25921261518E+02  0.73186882269E+02 -0.42043278335E+03  0.42754176036E+03  0.00000000000E+00 0. -1.
          1    1    1    2  502    0  0.16625120110E+02  0.18992582310E+02  0.21350759821E+02  0.33060062710E+02  0.00000000000E+00 0. -1.
         22    1    3    3    0    0  0.21447721748E+02 -0.10359988017E+03 -0.86117242763E+02  0.13641524636E+03  0.00000000000E+00 0.  1.
         22    1    3    3    0    0 -0.12151580340E+02  0.11420415592E+02  0.25581217827E+02  0.30536625592E+02  0.00000000000E+00 0.  1.
</event>
<event>
 7    1  0.9117219E-006  0.9123529E+02  0.7818608E-02  0.1331895E+00
          2   -1    0    0  502    0  0.00000000000E+00  0.00000000000E+00  0.18281849859E+04  0.18281849859E+04  0.00000000000E+00 0. -1.
          1   -1    0    0  501    0 -0.00000000000E+00 -0.00000000000E+00 -0.20231972916E+04  0.20231972916E+04  0.00000000000E+00 0. -1.
         25    2    1    2    0    0 -0.21881547063E+02  0.15837116673E+02 -0.74819606102E+02  0.14816360950E+03  0.12499946143E+03 0.  0.
          2    1    1    2  501    0 -0.22858292349E+02  0.64484898203E+02 -0.19099131498E+04  0.19111381539E+04  0.00000000000E+00 0. -1.
          1    1    1    2  502    0  0.44739839412E+02 -0.80322014876E+02  0.17897204501E+04  0.17920805141E+04  0.00000000000E+00 0. -1.
         22    1    3    3    0    0 -0.62876451887E+02  0.43482341896E+02 -0.32453961280E+02  0.83050718608E+02  0.00000000000E+00 0. -1.
         22    1    3    3    0    0  0.40994904824E+02 -0.27645225223E+02 -0.42365644823E+02  0.65112890893E+02  0.00000000000E+00 0. -1.
</event>
<event>
 7    1  0.5127424E-006  0.6014885E+02  0.7818608E-02  0.1434881E+00
          2   -1    0    0  502    0  0.00000000000E+00  0.00000000000E+00  0.28174423375E+03  0.28174423375E+03  0.00000000000E+00 0. -1.
          1   -1    0    0  501    0 -0.00000000000E+00 -0.00000000000E+00 -0.12126647680E+03  0.12126647680E+03  0.00000000000E+00 0. -1.
         25    2    1    2    0    0  0.75044800161E+01 -0.79032566535E+01  0.14463346911E+03  0.19147505537E+03  0.12500031102E+03 0.  0.
          2    1    1    2  501    0 -0.42450660243E+02 -0.42612502609E+02 -0.78538347441E+02  0.98925001655E+02  0.00000000000E+00 0. -1.
          1    1    1    2  502    0  0.34946180227E+02  0.50515759262E+02  0.94382635273E+02  0.11261065353E+03  0.00000000000E+00 0. -1.
         22    1    3    3    0    0 -0.29124508178E+02 -0.50081111880E+02  0.33072873175E+02  0.66709592142E+02  0.00000000000E+00 0.  1.
         22    1    3    3    0    0  0.36628988194E+02  0.42177855226E+02  0.11156059594E+03  0.12476546323E+03  0.00000000000E+00 0.  1.
</event>
<event>
 7    1  0.5127424E-006  0.1876314E+03  0.7818608E-02  0.1178741E+00
          2   -1    0    0  502    0  0.00000000000E+00  0.00000000000E+00  0.13188766534E+04  0.13188766534E+04  0.00000000000E+00 0. -1.
          1   -1    0    0  501    0 -0.00000000000E+00 -0.00000000000E+00 -0.32318181147E+03  0.32318181147E+03  0.00000000000E+00 0. -1.
         25    2    1    2    0    0  0.17039427580E+03  0.24906012692E+03  0.23780882749E+03  0.40403344703E+03  0.12499932736E+03 0.  0.
          2    1    1    2  501    0 -0.21492476272E+02 -0.15096015330E+03 -0.20683342676E+03  0.25696490197E+03  0.00000000000E+00 0. -1.
          1    1    1    2  502    0 -0.14890179953E+03 -0.98099973619E+02  0.96471944119E+03  0.98106011586E+03  0.00000000000E+00 0. -1.
         22    1    3    3    0    0  0.12268042092E+03  0.24010260817E+03  0.16367826192E+03  0.31542086417E+03  0.00000000000E+00 0. -1.
         22    1    3    3    0    0  0.47713854875E+02  0.89575187492E+01  0.74130565571E+02  0.88612582860E+02  0.00000000000E+00 0. -1.
</event>
<event>
 7    1  0.5626331E-006  0.6676788E+02  0.7818608E-02  0.1377810E+00
          2   -1    0    0  502    0  0.00000000000E+00  0.00000000000E+00  0.14375794116E+04  0.14375794116E+04  0.00000000000E+00 0. -1.
          1   -1    0    0  501    0 -0.00000000000E+00 -0.00000000000E+00 -0.59423788382E+03  0.59423788382E+03  0.00000000000E+00 0. -1.
         25    2    1    2    0    0  0.22882831267E+01  0.11946268484E+03 -0.14400360086E+03  0.22502620110E+03  0.12499273903E+03 0.  0.
          2    1    1    2  501    0 -0.26633466251E+02 -0.57493398560E+02 -0.40647385566E+03  0.41138282382E+03  0.00000000000E+00 0. -1.
          1    1    1    2  502    0  0.24345183125E+02 -0.61969286281E+02  0.13938189843E+04  0.13954082705E+04  0.00000000000E+00 0. -1.
         22    1    3    3    0    0 -0.61912510910E+00 -0.25882932315E+02 -0.33933691498E+02  0.42682606760E+02  0.00000000000E+00 0.  1.
         22    1    3    3    0    0  0.29074082358E+01  0.14534561716E+03 -0.11006990937E+03  0.18234359434E+03  0.00000000000E+00 0.  1.
</event>
<event>
 7    1  0.5127424E-006  0.1878715E+03  0.7818608E-02  0.1283708E+00
          2   -1    0    0  502    0  0.00000000000E+00  0.00000000000E+00  0.48210730505E+03  0.48210730505E+03  0.00000000000E+00 0. -1.
          1   -1    0    0  501    0 -0.00000000000E+00 -0.00000000000E+00 -0.51814365895E+03  0.51814365895E+03  0.00000000000E+00 0. -1.
         25    2    1    2    0    0 -0.59648138282E+02  0.14090123428E+03  0.16996646914E+03  0.26062394115E+03  0.12500071939E+03 0.  0.
          2    1    1    2  501    0  0.10839832078E+03 -0.15760610229E+03 -0.45067360788E+03  0.48958817415E+03  0.00000000000E+00 0. -1.
          1    1    1    2  502    0 -0.48750182501E+02  0.16704868010E+02  0.24467078483E+03  0.25003884870E+03  0.00000000000E+00 0. -1.
         22    1    3    3    0    0 -0.25117340383E+02  0.49389006423E+02 -0.95161767647E+01  0.56220213122E+02  0.00000000000E+00 0. -1.
         22    1    3    3    0    0 -0.34530797900E+02  0.91512227855E+02  0.17948264591E+03  0.20440372803E+03  0.00000000000E+00 0. -1.
</event>
<event>
 7    1  0.5127424E-006  0.1150868E+03  0.7818608E-02  0.1421648E+00
          2   -1    0    0  502    0  0.00000000000E+00  0.00000000000E+00  0.15643824874E+04  0.15643824874E+04  0.00000000000E+00 0. -1.
          1   -1    0    0  501    0 -0.00000000000E+00 -0.00000000000E+00 -0.12611969101E+03  0.12611969101E+03  0.00000000000E+00 0. -1.
         25    2    1    2    0    0  0.16982427613E+02 -0.10435437212E+03  0.89975456050E+02  0.18681097987E+03  0.12499808671E+03 0.  0.
          2    1    1    2  501    0 -0.42095484637E+02  0.11098489217E+03 -0.32175928390E+02  0.12298360250E+03  0.00000000000E+00 0. -1.
          1    1    1    2  502    0  0.25113057024E+02 -0.66305200545E+01  0.13804632687E+04  0.13807075960E+04  0.00000000000E+00 0. -1.
         22    1    3    3    0    0 -0.22311096966E+02 -0.10146803281E+03  0.10202391274E+03  0.14561052675E+03  0.00000000000E+00 0.  1.
         22    1    3    3    0    0  0.39293524579E+02 -0.28863393091E+01 -0.12048456693E+02  0.41200453118E+02  0.00000000000E+00 0.  1.
</event>
<event>
 7    1  0.5127424E-006  0.1359759E+03  0.7818608E-02  0.1332803E+00
          2   -1    0    0  502    0  0.00000000000E+00  0.00000000000E+00  0.92569906756E+03  0.92569906756E+03  0.00000000000E+00 0. -1.
          1   -1    0    0  501    0 -0.00000000000E+00 -0.00000000000E+00 -0.39254944154E+03  0.39254944154E+03  0.00000000000E+00 0. -1.
         25    2    1    2    0    0 -0.17535464117E+03 -0.32292533829E+02 -0.18988654095E+02  0.21858048952E+03  0.12499921397E+03 0.  0.
          2    1    1    2  501    0  0.42150109164E+02  0.17245449331E+02 -0.26638017264E+03  0.27024513612E+03  0.00000000000E+00 0. -1.
          1    1    1    2  502    0  0.13320453200E+03  0.15047084498E+02  0.81851845275E+03  0.82942288345E+03  0.00000000000E+00 0. -1.
         22    1    3    3    0    0 -0.13319440996E+03 -0.78249288851E+02 -0.44526240988E+01  0.15454296461E+03  0.00000000000E+00 0.  1.
         22    1    3    3    0    0 -0.42160231207E+02  0.45956755022E+02 -0.14536029996E+02  0.64037524902E+02  0.00000000000E+00 0.  1.
</event>
<event>
 7    1  0.5127424E-006  0.5353880E+02  0.7818608E-02  0.1501783E+00
          2   -1    0    0  502    0  0.00000000000E+00  0.00000000000E+00  0.19791569662E+04  0.19791569662E+04  0.00000000000E+00 0. -1.
          1   -1    0    0  501    0 -0.00000000000E+00 -0.00000000000E+00 -0.73429264515E+01  0.73429264515E+01  0.00000000000E+00 0. -1.
         25    2    1    2    0    0  0.15181544002E+02  0.57455094474E+02  0.14447586905E+04  0.14513730418E+04  0.12499786171E+03 0.  0.
          2    1    1    2  501    0 -0.30589882161E+02 -0.62659234573E+01  0.10061476393E+03  0.10534862793E+03  0.00000000000E+00 0. -1.
          1    1    1    2  502    0  0.15408338159E+02 -0.51189171016E+02  0.42644058536E+03  0.42977822299E+03  0.00000000000E+00 0. -1.
         22    1    3    3    0    0 -0.27374459654E+02  0.83931100427E+02  0.92621998398E+03  0.93041778217E+03  0.00000000000E+00 0.  1.
         22    1    3    3    0    0  0.42556003656E+02 -0.26476005953E+02  0.51853870653E+03  0.52095525960E+03  0.00000000000E+00 0.  1.
</event>
<event>
 7    1  0.5127424E-006  0.1251788E+03  0.7818608E-02  0.1388627E+00
          2   -1    0    0  502    0  0.00000000000E+00  0.00000000000E+00  0.23850643839E+04  0.23850643839E+04  0.00000000000E+00 0. -1.
          1   -1    0    0  501    0 -0.00000000000E+00 -0.00000000000E+00 -0.40817781822E+02  0.40817781822E+02  0.00000000000E+00 0. -1.
         25    2    1    2    0    0 -0.71808379852E+02 -0.13243459940E+03  0.90816102334E+03  0.92901936255E+03  0.12500066056E+03 0.  0.
          2    1    1    2  501    0  0.48939240095E+02  0.11157168149E+03  0.92622631869E+02  0.15304326599E+03  0.00000000000E+00 0. -1.
          1    1    1    2  502    0  0.22869139757E+02  0.20862917907E+02  0.13434629469E+04  0.13438195372E+04  0.00000000000E+00 0. -1.
         22    1    3    3    0    0 -0.86856029486E+02 -0.57318239876E+02  0.33582573686E+03  0.35157968658E+03  0.00000000000E+00 0.  1.
         22    1    3    3    0    0  0.15047649634E+02 -0.75116359522E+02  0.57233528648E+03  0.57743967596E+03  0.00000000000E+00 0.  1.
</event>
<event>
 7    1  0.5127424E-006  0.1582273E+03  0.7818608E-02  0.1358191E+00
          2   -1    0    0  502    0  0.00000000000E+00  0.00000000000E+00  0.14594214626E+04  0.14594214626E+04  0.00000000000E+00 0. -1.
          1   -1    0    0  501    0 -0.00000000000E+00 -0.00000000000E+00 -0.31353569652E+03  0.31353569652E+03  0.00000000000E+00 0. -1.
         25    2    1    2    0    0 -0.10315493502E+03  0.90008012981E+02 -0.46797998924E+01  0.18544339158E+03  0.12499987174E+03 0.  0.
          2    1    1    2  501    0  0.11544839500E+03 -0.11897498371E+03 -0.18681311722E+03  0.24976492833E+03  0.00000000000E+00 0. -1.
          1    1    1    2  502    0 -0.12293459985E+02  0.28966970728E+02  0.13373786832E+04  0.13377488392E+04  0.00000000000E+00 0. -1.
         22    1    3    3    0    0 -0.41077162396E+02  0.84855506193E+02 -0.51586649830E+02  0.10746614649E+03  0.00000000000E+00 0. -1.
         22    1    3    3    0    0 -0.62077772624E+02  0.51525067882E+01  0.46906849937E+02  0.77977245086E+02  0.00000000000E+00 0. -1.
</event>
<event>
 7    1  0.5127424E-006  0.9934693E+02  0.7818608E-02  0.1378600E+00
          2   -1    0    0  502    0  0.00000000000E+00  0.00000000000E+00  0.15573892100E+04  0.15573892100E+04  0.00000000000E+00 0. -1.
          1   -1    0    0  501    0 -0.00000000000E+00 -0.00000000000E+00 -0.21310021588E+03  0.21310021588E+03  0.00000000000E+00 0. -1.
         25    2    1    2    0    0 -0.51361323775E+02 -0.63130682261E+02  0.51036507702E+03  0.53171482834E+03  0.12499871283E+03 0.  0.
          2    1    1    2  501    0 -0.40521674930E+02  0.12170067092E+02 -0.19751613036E+03  0.20199687726E+03  0.00000000000E+00 0. -1.
          1    1    1    2  502    0  0.91882998705E+02  0.50960615169E+02  0.10314400474E+04  0.10367777203E+04  0.00000000000E+00 0. -1.
         22    1    3    3    0    0  0.12342761238E+02 -0.62778059623E+02  0.39301011736E+03  0.39818385310E+03  0.00000000000E+00 0.  1.
         22    1    3    3    0    0 -0.63704085013E+02 -0.35262263800E+00  0.11735495966E+03  0.13353097524E+03  0.00000000000E+00 0.  1.
</event>
<event>
 7    1  0.5127424E-006  0.5139955E+02  0.7818608E-02  0.1563893E+00
          2   -1    0    0  502    0  0.00000000000E+00  0.00000000000E+00  0.64295871352E+03  0.64295871352E+03  0.00000000000E+00 0. -1.
          1   -1    0    0  501    0 -0.00000000000E+00 -0.00000000000E+00 -0.29728552903E+04  0.29728552903E+04  0.00000000000E+00 0. -1.
         25    2    1    2    0    0 -0.65158987976E+02 -0.21676863148E+02 -0.38418376863E+03  0.40980219114E+03  0.12500035069E+03 0.  0.
          2    1    1    2  501    0  0.43975393257E+02  0.26002559961E+02 -0.25754234529E+04  0.25759301097E+04  0.00000000000E+00 0. -1.
          1    1    1    2  502    0  0.21183594719E+02 -0.43256968125E+01  0.62971064474E+03  0.63008170298E+03  0.00000000000E+00 0. -1.
         22    1    3    3    0    0  0.99922637586E+01 -0.19485337359E+02 -0.28247337290E+03  0.28332089599E+03  0.00000000000E+00 0. -1.
         22    1    3    3    0    0 -0.75151251735E+02 -0.21915257887E+01 -0.10171039573E+03  0.12648129515E+03  0.00000000000E+00 0. -1.
</event>
<event>
 7    1  0.5127424E-006  0.5077658E+02  0.7818608E-02  0.1517161E+00
          2   -1    0    0  502    0  0.00000000000E+00  0.00000000000E+00  0.10064792474E+04  0.10064792474E+04  0.00000000000E+00 0. -1.
          1   -1    0    0  501    0 -0.00000000000E+00 -0.00000000000E+00 -0.66934231462E+02  0.66934231462E+02  0.00000000000E+00 0. -1.
         25    2    1    2    0    0 -0.54278350767E+01 -0.67157624744E+02  0.27467541376E+03  0.30921294705E+03  0.12500582285E+03 0.  0.
          2    1    1    2  501    0 -0.16722805901E+02  0.47429159953E+02 -0.36540069612E+02  0.62163929560E+02  0.00000000000E+00 0. -1.
          1    1    1    2  502    0  0.22150640978E+02  0.19728464790E+02  0.70140967180E+03  0.70203660226E+03  0.00000000000E+00 0. -1.
         22    1    3    3    0    0 -0.70323588002E+01 -0.20058500605E+02  0.25852288295E+03  0.25939521685E+03  0.00000000000E+00 0.  1.
         22    1    3    3    0    0  0.16045237235E+01 -0.47099124138E+02  0.16152530813E+02  0.49817730204E+02  0.00000000000E+00 0.  1.
</event>
<event>
 7    1  0.6303462E-006  0.1739629E+03  0.7818608E-02  0.1316187E+00
          2   -1    0    0  502    0  0.00000000000E+00  0.00000000000E+00  0.13523947000E+04  0.13523947000E+04  0.00000000000E+00 0. -1.
          1   -1    0    0  501    0 -0.00000000000E+00 -0.00000000000E+00 -0.12588038750E+04  0.12588038750E+04  0.00000000000E+00 0. -1.
         25    2    1    2    0    0 -0.13215301399E+03  0.56649059098E+02 -0.16693854295E+03  0.25331422433E+03  0.12500433642E+03 0.  0.
          2    1    1    2  501    0  0.17269354383E+03 -0.49025461058E+02 -0.10406655714E+04  0.10560356942E+04  0.00000000000E+00 0. -1.
          1    1    1    2  502    0 -0.40540529838E+02 -0.76235980399E+01  0.13011949394E+04  0.13018486564E+04  0.00000000000E+00 0. -1.
         22    1    3    3    0    0 -0.74443781628E+02 -0.11976683919E+02 -0.14112884208E+03  0.16000833618E+03  0.00000000000E+00 0.  1.
         22    1    3    3    0    0 -0.57709232361E+02  0.68625743017E+02 -0.25809700871E+02  0.93305888149E+02  0.00000000000E+00 0.  1.
</event>
<event>
 7    1  0.5127424E-006  0.1230506E+03  0.7818608E-02  0.1411036E+00
          2   -1    0    0  502    0  0.00000000000E+00  0.00000000000E+00  0.40856690342E+03  0.40856690342E+03  0.00000000000E+00 0. -1.
          1   -1    0    0  501    0 -0.00000000000E+00 -0.00000000000E+00 -0.74989579437E+03  0.74989579437E+03  0.00000000000E+00 0. -1.
         25    2    1    2    0    0 -0.10932975030E+03  0.61304498905E+02 -0.56124345708E+03  0.58849832788E+03  0.12499931166E+03 0.  0.
          2    1    1    2  501    0  0.17054837121E+02  0.20112267789E+02 -0.16436249922E+03  0.16646441642E+03  0.00000000000E+00 0. -1.
          1    1    1    2  502    0  0.92274913182E+02 -0.81416766694E+02  0.38427706535E+03  0.40349995348E+03  0.00000000000E+00 0. -1.
         22    1    3    3    0    0 -0.10632987259E+03  0.92551837044E+02 -0.50243830992E+03  0.52183918943E+03  0.00000000000E+00 0.  1.
         22    1    3    3    0    0 -0.29998777085E+01 -0.31247338139E+02 -0.58805147163E+02  0.66659138457E+02  0.00000000000E+00 0.  1.
</event>
<event>
 7    1  0.5127424E-006  0.1163525E+03  0.7818608E-02  0.1385722E+00
          2   -1    0    0  502    0  0.00000000000E+00  0.00000000000E+00  0.26273303804E+04  0.26273303804E+04  0.00000000000E+00 0. -1.
          1   -1    0    0  501    0 -0.00000000000E+00 -0.00000000000E+00 -0.24804212883E+04  0.24804212883E+04  0.00000000000E+00 0. -1.
         25    2    1    2    0    0  0.12436567294E+02 -0.92454918985E+02 -0.13021800952E+03  0.20318238265E+03  0.12499508136E+03 0.  0.
          2    1    1    2  501    0 -0.24750883972E+02 -0.23447423703E+02 -0.23122844965E+04  0.23125358334E+04  0.00000000000E+00 0. -1.
          1    1    1    2  502    0  0.12314316678E+02  0.11590234269E+03  0.25894115981E+04  0.25920334527E+04  0.00000000000E+00 0. -1.
         22    1    3    3    0    0 -0.21036927853E+02 -0.10679508055E+03 -0.12602892102E+03  0.16652636577E+03  0.00000000000E+00 0.  1.
         22    1    3    3    0    0  0.33473495147E+02  0.14340161561E+02 -0.41890884942E+01  0.36656016878E+02  0.00000000000E+00 0.  1.
</event>
<event>
 7    1  0.5127424E-006  0.1597556E+03  0.7818608E-02  0.1308210E+00
          2   -1    0    0  502    0  0.00000000000E+00  0.00000000000E+00  0.18936557412E+03  0.18936557412E+03  0.00000000000E+00 0. -1.
          1   -1    0    0  501    0 -0.00000000000E+00 -0.00000000000E+00 -0.96840776714E+03  0.96840776714E+03  0.00000000000E+00 0. -1.
         25    2    1    2    0    0  0.11244382971E+03 -0.67977618299E+02 -0.21785793654E+03  0.28346190966E+03  0.12499600907E+03 0.  0.
          2    1    1    2  501    0 -0.15934716840E+03  0.56532952563E+02 -0.70375874014E+03  0.72378440099E+03  0.00000000000E+00 0. -1.
          1    1    1    2  502    0  0.46903338691E+02  0.11444665737E+02  0.14257448366E+03  0.15052703061E+03  0.00000000000E+00 0. -1.
         22    1    3    3    0    0  0.10121220523E+03 -0.50029882005E+02 -0.67334208908E+02  0.13145643868E+03  0.00000000000E+00 0. -1.
         22    1    3    3    0    0  0.11231624478E+02 -0.17947736294E+02 -0.15052372763E+03  0.15200547097E+03  0.00000000000E+00 0. -1.
</event>
<event>
 7    1  0.5127424E-006  0.9142960E+02  0.7818608E-02  0.1395729E+00
          2   -1    0    0  502    0  0.00000000000E+00  0.00000000000E+00  0.41733182561E+03  0.41733182561E+03  0.00000000000E+00 0. -1.
          1   -1    0    0  501    0 -0.00000000000E+00 -0.00000000000E+00 -0.18136188364E+03  0.18136188364E+03  0.00000000000E+00 0. -1.
         25    2    1    2    0    0  0.10212228842E+03  0.47817730810E+02  0.19815945013E+03  0.26001500840E+03  0.12500055897E+03 0.  0.
          2    1    1    2  501    0 -0.65037708295E+02 -0.62911933166E+02 -0.13431840085E+03  0.16195446163E+03  0.00000000000E+00 0. -1.
          1    1    1    2  502    0 -0.37084580124E+02  0.15094202357E+02  0.17212889269E+03  0.17672423922E+03  0.00000000000E+00 0. -1.
         22    1    3    3    0    0  0.10668398827E+02  0.63460018232E+02  0.12944737915E+03  0.14456006577E+03  0.00000000000E+00 0.  1.
         22    1    3    3    0    0  0.91453889592E+02 -0.15642287422E+02  0.68712070987E+02  0.11545494263E+03  0.00000000000E+00 0.  1.
</event>
<event>
 7    1  0.5127424E-006  0.9290334E+02  0.7818608E-02  0.1400298E+00
          2   -1    0    0  502    0  0.00000000000E+00  0.00000000000E+00  0.77497009626E+03  0.77497009626E+03  0.00000000000E+00 0. -1.
          1   -1    0    0  501    0 -0.00000000000E+00 -0.00000000000E+00 -0.13340991236E+03  0.13340991236E+03  0.00000000000E+00 0. -1.
         25    2    1    2    0    0  0.68570893648E+02  0.22991535605E+02  0.16495443887E+03  0.21924064288E+03  0.12500365763E+03 0.  0.
          2    1    1    2  501    0  0.27936390765E+02 -0.25758916762E+02 -0.98713772687E+02  0.10577510406E+03  0.00000000000E+00 0. -1.
          1    1    1    2  502    0 -0.96507284412E+02  0.27673811570E+01  0.57531951771E+03  0.58336426168E+03  0.00000000000E+00 0. -1.
         22    1    3    3    0    0  0.35418154640E+02  0.59154964912E+02  0.29168406982E+02  0.74863552665E+02  0.00000000000E+00 0.  1.
         22    1    3    3    0    0  0.33152739008E+02 -0.36163429307E+02  0.13578603189E+03  0.14437709021E+03  0.00000000000E+00 0.  1.
</event>
<event>
 7    1  0.5127424E-006  0.1128259E+03  0.7818608E-02  0.1303320E+00
          2   -1    0    0  502    0  0.00000000000E+00  0.00000000000E+00  0.25376012154E+04  0.25376012154E+04  0.00000000000E+00 0. -1.
          1   -1    0    0  501    0 -0.00000000000E+00 -0.00000000000E+00 -0.52835802169E+03  0.52835802169E+03  0.00000000000E+00 0. -1.
         25    2    1    2    0    0  0.62555184422E+02  0.14613867221E+02  0.14416041102E+04  0.14484382919E+04  0.12499743411E+03 0.  0.
          2    1    1    2  501    0 -0.10446500037E+03  0.43296292715E+02 -0.51766146194E+03  0.52986875209E+03  0.00000000000E+00 0. -1.
          1    1    1    2  502    0  0.41909815946E+02 -0.57910159936E+02  0.10853005454E+04  0.10876521931E+04  0.00000000000E+00 0. -1.
         22    1    3    3    0    0  0.94369308978E+02  0.36825179305E+02  0.10915331628E+04  0.10962236569E+04  0.00000000000E+00 0.  1.
         22    1    3    3    0    0 -0.31814124556E+02 -0.22211312084E+02  0.35007094741E+03  0.35221463503E+03  0.00000000000E+00 0.  1.
</event>
<event>
 7    1  0.5127424E-006  0.5039182E+02  0.7818608E-02  0.1471801E+00
          2   -1    0    0  502    0  0.00000000000E+00  0.00000000000E+00  0.27821791001E+03  0.27821791001E+03  0.00000000000E+00 0. -1.
          1   -1    0    0  501    0 -0.00000000000E+00 -0.00000000000E+00 -0.11139282655E+04  0.11139282655E+04  0.00000000000E+00 0. -1.
         25    2    1    2    0    0  0.94980921380E+01 -0.21467721278E+02  0.14784009087E+03  0.19501808940E+03  0.12499714363E+03 0.  0.
          2    1    1    2  501    0 -0.49187587677E+02  0.11508415584E+02 -0.10858103722E+04  0.10869848328E+04  0.00000000000E+00 0. -1.
          1    1    1    2  502    0  0.39689495539E+02  0.99593056941E+01  0.10225992580E+03  0.11014325332E+03  0.00000000000E+00 0. -1.
         22    1    3    3    0    0 -0.22111859606E+00  0.42607126446E+00 -0.22749664054E+02  0.22754727964E+02  0.00000000000E+00 0. -1.
         22    1    3    3    0    0  0.97192107341E+01 -0.21893792542E+02  0.17058975492E+03  0.17226336144E+03  0.00000000000E+00 0. -1.
</event>
<event>
 7    1  0.5127424E-006  0.1318895E+03  0.7818608E-02  0.1260827E+00
          2   -1    0    0  502    0  0.00000000000E+00  0.00000000000E+00  0.27964440300E+03  0.27964440300E+03  0.00000000000E+00 0. -1.
          1   -1    0    0  501    0 -0.00000000000E+00 -0.00000000000E+00 -0.19241573281E+04  0.19241573281E+04  0.00000000000E+00 0. -1.
         25    2    1    2    0    0 -0.57596388167E+02 -0.19144772443E+03 -0.30491294493E+03  0.38544349655E+03  0.12500083969E+03 0.  0.
          2    1    1    2  501    0 -0.82962218747E+01  0.12794425512E+03 -0.15675189512E+04  0.15727537068E+04  0.00000000000E+00 0. -1.
          1    1    1    2  502    0  0.65892610041E+02  0.63503469312E+02  0.22791897109E+03  0.24560452775E+03  0.00000000000E+00 0. -1.
         22    1    3    3    0    0 -0.80569539280E+02 -0.71186241205E+02 -0.18557666611E+03  0.21447058214E+03  0.00000000000E+00 0.  1.
         22    1    3    3    0    0  0.22973151113E+02 -0.12026148323E+03 -0.11933627882E+03  0.17097291441E+03  0.00000000000E+00 0.  1.
</event>
<event>
 7    1  0.5127424E-006  0.6575238E+02  0.7818608E-02  0.1410071E+00
          2   -1    0    0  502    0  0.00000000000E+00  0.00000000000E+00  0.67050631672E+03  0.67050631672E+03  0.00000000000E+00 0. -1.
          1   -1    0    0  501    0 -0.00000000000E+00 -0.00000000000E+00 -0.16612263719E+03  0.16612263719E+03  0.00000000000E+00 0. -1.
         25    2    1    2    0    0 -0.36179614560E+02  0.14627057498E+02 -0.77497034333E+02  0.15216316257E+03  0.12499968957E+03 0.  0.
          2    1    1    2  501    0 -0.23392011249E+02 -0.43875471055E+02 -0.37037228129E+02  0.61999995307E+02  0.00000000000E+00 0. -1.
          1    1    1    2  502    0  0.59571625809E+02  0.29248413557E+02  0.61891794200E+03  0.62246579603E+03  0.00000000000E+00 0. -1.
         22    1    3    3    0    0 -0.80441415596E+02  0.37453274635E+01 -0.28954797255E+02  0.85575867538E+02  0.00000000000E+00 0. -1.
         22    1    3    3    0    0  0.44261801036E+02  0.10881730035E+02 -0.48542237077E+02  0.66587295034E+02  0.00000000000E+00 0. -1.
</event>
<event>
 7    1  0.5127424E-006  0.1241301E+03  0.7818608E-02  0.1390793E+00
          2   -1    0    0  502    0  0.00000000000E+00  0.00000000000E+00  0.30024148944E+04  0.30024148944E+04  0.00000000000E+00 0. -1.
          1   -1    0    0  501    0 -0.00000000000E+00 -0.00000000000E+00 -0.20875078909E+04  0.20875078909E+04  0.00000000000E+00 0. -1.
         25    2    1    2    0    0 -0.70368138370E+02  0.63006218817E+02  0.10916511494E+03  0.19095465756E+03  0.12500080166E+03 0.  0.
          2    1    1    2  501    0 -0.23314199772E+02  0.19940332869E+02 -0.20451257762E+04  0.20453558637E+04  0.00000000000E+00 0. -1.
          1    1    1    2  502    0  0.93682338142E+02 -0.82946551686E+02  0.28508676648E+04  0.28536122640E+04  0.00000000000E+00 0. -1.
         22    1    3    3    0    0  0.10385538833E+02  0.64343410159E+02  0.84081532092E+02  0.10638438742E+03  0.00000000000E+00 0. -1.
         22    1    3    3    0    0 -0.80753677203E+02 -0.13371913423E+01  0.25083582846E+02  0.84570270136E+02  0.00000000000E+00 0. -1.
</event>
<event>
 7    1  0.5127424E-006  0.1438892E+03  0.7818608E-02  0.1269798E+00
          2   -1    0    0  502    0  0.00000000000E+00  0.00000000000E+00  0.11641648276E+03  0.11641648276E+03  0.00000000000E+00 0. -1.
          1   -1    0    0  501    0 -0.00000000000E+00 -0.00000000000E+00 -0.71880662106E+03  0.71880662106E+03  0.00000000000E+00 0. -1.
         25    2    1    2    0    0 -0.12234304031E+03 -0.14135781132E+03 -0.99358659772E+02  0.24586331512E+03  0.12500710426E+03 0.  0.
          2    1    1    2  501    0  0.19774580456E+02  0.74272385905E+02 -0.44880752202E+03  0.45534120521E+03  0.00000000000E+00 0. -1.
          1    1    1    2  502    0  0.10256845986E+03  0.67085425420E+02 -0.54223956507E+02  0.13401858349E+03  0.00000000000E+00 0. -1.
         22    1    3    3    0    0 -0.25631613940E+02  0.22252587046E+02 -0.23206315447E+02  0.41118005059E+02  0.00000000000E+00 0. -1.
         22    1    3    3    0    0 -0.96711426375E+02 -0.16361039837E+03 -0.76152344325E+02  0.20474531006E+03  0.00000000000E+00 0. -1.
</event>
<event>
 7    1  0.5127424E-006  0.3511875E+03  0.7818608E-02  0.1236841E+00
          2   -1    0    0  502    0  0.00000000000E+00  0.00000000000E+00  0.30623051545E+04  0.30623051545E+04  0.00000000000E+00 0. -1.
          1   -1    0    0  501    0 -0.00000000000E+00 -0.00000000000E+00 -0.21350334728E+03  0.21350334728E+03  0.00000000000E+00 0. -1.
         25    2    1    2    0    0  0.21626886041E+03  0.22603912376E+03  0.12936543851E+04  0.13367990324E+04  0.12499631766E+03 0.  0.
          2    1    1    2  501    0 -0.24093066382E+03 -0.26210694054E+03 -0.26274028299E+02  0.35698453413E+03  0.00000000000E+00 0. -1.
          1    1    1    2  502    0  0.24661803405E+02  0.36067816780E+02  0.15814214503E+04  0.15820249352E+04  0.00000000000E+00 0. -1.
         22    1    3    3    0    0  0.11142747635E+03  0.11081871843E+03  0.40175855414E+03  0.43140098130E+03  0.00000000000E+00 0.  1.
         22    1    3    3    0    0  0.10484138406E+03  0.11522040533E+03  0.89189583100E+03  0.90539805112E+03  0.00000000000E+00 0.  1.
</event>
<event>
 7    1  0.5127424E-006  0.7946503E+02  0.7818608E-02  0.1435735E+00
          2   -1    0    0  502    0  0.00000000000E+00  0.00000000000E+00  0.17535993988E+04  0.17535993988E+04  0.00000000000E+00 0. -1.
          1   -1    0    0  501    0 -0.00000000000E+00 -0.00000000000E+00 -0.84273252542E+02  0.84273252542E+02  0.00000000000E+00 0. -1.
         25    2    1    2    0    0 -0.13336089184E+02  0.77828864237E+02  0.89808088800E+03  0.91016997097E+03  0.12499964514E+03 0.  0.
          2    1    1    2  501    0 -0.32166737156E+02 -0.10380189312E+02 -0.72527215289E+02  0.80016524962E+02  0.00000000000E+00 0. -1.
          1    1    1    2  502    0  0.45502826340E+02 -0.67448674925E+02  0.84377247358E+03  0.84768615544E+03  0.00000000000E+00 0. -1.
         22    1    3    3    0    0  0.31076760389E+02  0.94207418885E+02  0.54846368567E+03  0.55736273405E+03  0.00000000000E+00 0. -1.
         22    1    3    3    0    0 -0.44412849573E+02 -0.16378554648E+02  0.34961720233E+03  0.35280723692E+03  0.00000000000E+00 0. -1.
</event>
<event>
 7    1  0.5127424E-006  0.7401597E+02  0.7818608E-02  0.1352827E+00
          2   -1    0    0  502    0  0.00000000000E+00  0.00000000000E+00  0.10921136252E+04  0.10921136252E+04  0.00000000000E+00 0. -1.
          1   -1    0    0  501    0 -0.00000000000E+00 -0.00000000000E+00 -0.15976306587E+03  0.15976306587E+03  0.00000000000E+00 0. -1.
         25    2    1    2    0    0 -0.66720882142E+02 -0.47989384320E+02  0.48408994172E+03  0.50667931651E+03  0.12500480384E+03 0.  0.
          2    1    1    2  501    0 -0.29224961911E+01  0.73958254172E+02 -0.13674366010E+03  0.15549016986E+03  0.00000000000E+00 0. -1.
          1    1    1    2  502    0  0.69643378333E+02 -0.25968869852E+02  0.58500427772E+03  0.58970720472E+03  0.00000000000E+00 0. -1.
         22    1    3    3    0    0 -0.23425063726E+02  0.10815730821E+02  0.37204364693E+03  0.37293724521E+03  0.00000000000E+00 0.  1.
         22    1    3    3    0    0 -0.43295818416E+02 -0.58805115140E+02  0.11204629478E+03  0.13374207129E+03  0.00000000000E+00 0.  1.
</event>
<event>
 7    1  0.5127424E-006  0.1426080E+03  0.7818608E-02  0.1284180E+00
          2   -1    0    0  502    0  0.00000000000E+00  0.00000000000E+00  0.12655063636E+04  0.12655063636E+04  0.00000000000E+00 0. -1.
          1   -1    0    0  501    0 -0.00000000000E+00 -0.00000000000E+00 -0.81085679384E+03  0.81085679384E+03  0.00000000000E+00 0. -1.
         25    2    1    2    0    0 -0.16608323428E+03 -0.17292918096E+02 -0.40482095154E+03  0.45540006008E+03  0.12500610460E+03 0.  0.
          2    1    1    2  501    0  0.11828736090E+03  0.65078983121E+02 -0.36781914094E+03  0.39181385151E+03  0.00000000000E+00 0. -1.
          1    1    1    2  502    0  0.47795873372E+02 -0.47786065025E+02  0.12272896622E+04  0.12291492458E+04  0.00000000000E+00 0. -1.
         22    1    3    3    0    0 -0.15473507169E+03 -0.39140410274E+02 -0.39951255120E+03  0.43021528645E+03  0.00000000000E+00 0.  1.
         22    1    3    3    0    0 -0.11348162592E+02  0.21847492179E+02 -0.53084003426E+01  0.25184773632E+02  0.00000000000E+00 0.  1.
</event>
<event>
 7    1  0.5127424E-006  0.8485860E+02  0.7818608E-02  0.1347605E+00
          2   -1    0    0  502    0  0.00000000000E+00  0.00000000000E+00  0.15937908727E+04  0.15937908727E+04  0.00000000000E+00 0. -1.
          1   -1    0    0  501    0 -0.00000000000E+00 -0.00000000000E+00 -0.24355695085E+04  0.24355695085E+04  0.00000000000E+00 0. -1.
         25    2    1    2    0    0 -0.42384666621E+02 -0.83896037316E+02  0.29905826744E+03  0.33748419562E+03  0.12499891969E+03 0.  0.
          2    1    1    2  501    0  0.78972050120E+02  0.31148087205E+02 -0.24148024902E+04  0.24162942401E+04  0.00000000000E+00 0. -1.
          1    1    1    2  502    0 -0.36587383499E+02  0.52747950111E+02  0.12739655870E+04  0.12755819455E+04  0.00000000000E+00 0. -1.
         22    1    3    3    0    0 -0.67697730081E+00  0.12596062451E+02 -0.66129636285E+01  0.14242555090E+02  0.00000000000E+00 0. -1.
         22    1    3    3    0    0 -0.41707689320E+02 -0.96492099767E+02  0.30567123107E+03  0.32324164053E+03  0.00000000000E+00 0. -1.
</event>
<event>
 7    1  0.5127424E-006  0.1140312E+03  0.7818608E-02  0.1315013E+00
          2   -1    0    0  502    0  0.00000000000E+00  0.00000000000E+00  0.49925167618E+03  0.49925167618E+03  0.00000000000E+00 0. -1.
          1   -1    0    0  501    0 -0.00000000000E+00 -0.00000000000E+00 -0.12888515725E+04  0.12888515725E+04  0.00000000000E+00 0. -1.
         25    2    1    2    0    0 -0.40221667326E+02  0.98159662871E+02 -0.27429280110E+03  0.31955272616E+03  0.12499720845E+03 0.  0.
          2    1    1    2  501    0 -0.54225980557E+02 -0.33233779770E+02 -0.98399730849E+03  0.98605052822E+03  0.00000000000E+00 0. -1.
          1    1    1    2  502    0  0.94447647882E+02 -0.64925883102E+02  0.46869021327E+03  0.48249999430E+03  0.00000000000E+00 0. -1.
         22    1    3    3    0    0  0.35591815908E+02  0.63202400285E+02 -0.17739125657E+03  0.19164805939E+03  0.00000000000E+00 0.  1.
         22    1    3    3    0    0 -0.75813483233E+02  0.34957262586E+02 -0.96901544532E+02  0.12790466676E+03  0.00000000000E+00 0.  1.
</event>
<event>
 7    1  0.5127424E-006  0.8236836E+02  0.7818608E-02  0.1451434E+00
          2   -1    0    0  502    0  0.00000000000E+00  0.00000000000E+00  0.15179307633E+04  0.15179307633E+04  0.00000000000E+00 0. -1.
          1   -1    0    0  501    0 -0.00000000000E+00 -0.00000000000E+00 -0.24010700116E+04  0.24010700116E+04  0.00000000000E+00 0. -1.
         25    2    1    2    0    0 -0.44053847221E+02 -0.45565613154E+02  0.63145879329E+03  0.64682467829E+03  0.12499996106E+03 0.  0.
          2    1    1    2  501    0  0.72394399342E+02  0.39339571808E+02 -0.23924381900E+04  0.23938565212E+04  0.00000000000E+00 0. -1.
          1    1    1    2  502    0 -0.28340552121E+02  0.62260413458E+01  0.87784014835E+03  0.87831957540E+03  0.00000000000E+00 0. -1.
         22    1    3    3    0    0  0.32602653431E+02 -0.22934813254E+02  0.39945583090E+03  0.40143978317E+03  0.00000000000E+00 0.  1.
         22    1    3    3    0    0 -0.76656500652E+02 -0.22630799900E+02  0.23200296239E+03  0.24538489513E+03  0.00000000000E+00 0.  1.
</event>
<event>
 7    1  0.5127424E-006  0.8333425E+02  0.7818608E-02  0.1321942E+00
          2   -1    0    0  502    0  0.00000000000E+00  0.00000000000E+00  0.66638543612E+03  0.66638543612E+03  0.00000000000E+00 0. -1.
          1   -1    0    0  501    0 -0.00000000000E+00 -0.00000000000E+00 -0.19251620744E+03  0.19251620744E+03  0.00000000000E+00 0. -1.
         25    2    1    2    0    0 -0.97774952004E+02  0.40902380270E+01  0.65330030484E+02  0.17166621580E+03  0.12499842190E+03 0.  0.
          2    1    1    2  501    0  0.49223481669E+02  0.65321509135E+02 -0.12370127259E+03  0.14829651225E+03  0.00000000000E+00 0. -1.
          1    1    1    2  502    0  0.48551470334E+02 -0.69411747162E+02  0.53224047079E+03  0.53893891552E+03  0.00000000000E+00 0. -1.
         22    1    3    3    0    0  0.24399927918E+02 -0.20653772643E+02  0.24824036231E+01  0.32063953820E+02  0.00000000000E+00 0.  1.
         22    1    3    3    0    0 -0.12217487992E+03  0.24744010670E+02  0.62847626861E+02  0.13960226198E+03  0.00000000000E+00 0.  1.
</event>
<event>
 7    1  0.5127424E-006  0.1502544E+03  0.7818608E-02  0.1298997E+00
          2   -1    0    0  502    0  0.00000000000E+00  0.00000000000E+00  0.29226501171E+04  0.29226501171E+04  0.00000000000E+00 0. -1.
          1   -1    0    0  501    0 -0.00000000000E+00 -0.00000000000E+00 -0.66386210901E+03  0.66386210901E+03  0.00000000000E+00 0. -1.
         25    2    1    2    0    0  0.16243017237E+03 -0.10237749883E+03  0.12118439002E+04  0.12333110244E+04  0.12500292498E+03 0.  0.
          2    1    1    2  501    0 -0.10665969274E+03  0.10545715961E+03 -0.64404990899E+03  0.66128495207E+03  0.00000000000E+00 0. -1.
          1    1    1    2  502    0 -0.55770479631E+02 -0.30796607751E+01  0.16909940169E+04  0.16919162497E+04  0.00000000000E+00 0. -1.
         22    1    3    3    0    0  0.82820459546E+02 -0.98751277411E+02  0.97356020888E+03  0.98205423660E+03  0.00000000000E+00 0. -1.
         22    1    3    3    0    0  0.79609712829E+02 -0.36262214187E+01  0.23828369130E+03  0.25125678777E+03  0.00000000000E+00 0. -1.
</event>
<event>
 7    1  0.5127424E-006  0.8333729E+02  0.7818608E-02  0.1328106E+00
          2   -1    0    0  502    0  0.00000000000E+00  0.00000000000E+00  0.60646147847E+03  0.60646147847E+03  0.00000000000E+00 0. -1.
          1   -1    0    0  501    0 -0.00000000000E+00 -0.00000000000E+00 -0.10582031413E+04  0.10582031413E+04  0.00000000000E+00 0. -1.
         25    2    1    2    0    0 -0.60955148124E+01  0.63566684864E+01 -0.70376447874E+03  0.71483300881E+03  0.12499690563E+03 0.  0.
          2    1    1    2  501    0 -0.77423115559E+02 -0.15788518358E+01 -0.34163851413E+03  0.35030516116E+03  0.00000000000E+00 0. -1.
          1    1    1    2  502    0  0.83518630372E+02 -0.47778166506E+01  0.59366133007E+03  0.59952644976E+03  0.00000000000E+00 0. -1.
         22    1    3    3    0    0  0.19201139797E+02  0.25514570716E+01 -0.12407757640E+02  0.23003177006E+02  0.00000000000E+00 0. -1.
         22    1    3    3    0    0 -0.25296654610E+02  0.38052114148E+01 -0.69135672110E+03  0.69182983180E+03  0.00000000000E+00 0. -1.
</event>
<event>
 7    1  0.5127424E-006  0.8119506E+02  0.7818608E-02  0.1467461E+00
          2   -1    0    0  502    0  0.00000000000E+00  0.00000000000E+00  0.70838146821E+03  0.70838146821E+03  0.00000000000E+00 0. -1.
          1   -1    0    0  501    0 -0.00000000000E+00 -0.00000000000E+00 -0.75482089988E+03  0.75482089988E+03  0.00000000000E+00 0. -1.
         25    2    1    2    0    0  0.23921356700E+02 -0.10149756258E+03  0.24357719051E+03  0.29296633960E+03  0.12500176755E+03 0.  0.
          2    1    1    2  501    0 -0.28728066534E+02  0.75744048563E+02 -0.72748621371E+03  0.73198268684E+03  0.00000000000E+00 0. -1.
          1    1    1    2  502    0  0.48067098343E+01  0.25753514020E+02  0.43746959153E+03  0.43825334164E+03  0.00000000000E+00 0. -1.
         22    1    3    3    0    0  0.59716135893E+02 -0.62822946241E+01  0.10662730493E+03  0.12237183609E+03  0.00000000000E+00 0.  1.
         22    1    3    3    0    0 -0.35794779193E+02 -0.95215267959E+02  0.13694988558E+03  0.17059450352E+03  0.00000000000E+00 0.  1.
</event>
<event>
 7    1  0.5127424E-006  0.8487462E+02  0.7818608E-02  0.1331955E+00
          2   -1    0    0  502    0  0.00000000000E+00  0.00000000000E+00  0.13154253712E+03  0.13154253712E+03  0.00000000000E+00 0. -1.
          1   -1    0    0  501    0 -0.00000000000E+00 -0.00000000000E+00 -0.16998342406E+04  0.16998342406E+04  0.00000000000E+00 0. -1.
         25    2    1    2    0    0 -0.92519944997E+02 -0.29079269483E+02 -0.41528657686E+03  0.44440173240E+03  0.12499765878E+03 0.  0.
          2    1    1    2  501    0  0.18110993633E+02  0.71239413762E+02 -0.12531372926E+04  0.12552912556E+04  0.00000000000E+00 0. -1.
          1    1    1    2  502    0  0.74408951365E+02 -0.42160144279E+02  0.10013216601E+03  0.13168378973E+03  0.00000000000E+00 0. -1.
         22    1    3    3    0    0 -0.82133128432E+02 -0.72998680243E+02 -0.33144030733E+03  0.34918094941E+03  0.00000000000E+00 0. -1.
         22    1    3    3    0    0 -0.10386816566E+02  0.43919410759E+02 -0.83846269527E+02  0.95220782991E+02  0.00000000000E+00 0. -1.
</event>
<event>
 7    1  0.5127424E-006  0.8507384E+02  0.7818608E-02  0.1430937E+00
          2   -1    0    0  502    0  0.00000000000E+00  0.00000000000E+00  0.10888233359E+04  0.10888233359E+04  0.00000000000E+00 0. -1.
          1   -1    0    0  501    0 -0.00000000000E+00 -0.00000000000E+00 -0.15472208529E+04  0.15472208529E+04  0.00000000000E+00 0. -1.
         25    2    1    2    0    0 -0.25710882805E+02 -0.57892429580E+02  0.11915078604E+03  0.18393866947E+03  0.12499576558E+03 0.  0.
          2    1    1    2  501    0  0.73004756034E+01  0.84960140399E+02 -0.15133404311E+04  0.15157410012E+04  0.00000000000E+00 0. -1.
          1    1    1    2  502    0  0.18410407201E+02 -0.27067710819E+02  0.93579212796E+03  0.93636451813E+03  0.00000000000E+00 0. -1.
         22    1    3    3    0    0 -0.61413562990E+02 -0.14090039088E+02  0.10989372333E+03  0.12667590674E+03  0.00000000000E+00 0.  1.
         22    1    3    3    0    0  0.35702680185E+02 -0.43802390492E+02  0.92570627094E+01  0.57262762728E+02  0.00000000000E+00 0.  1.
</event>
<event>
 7    1  0.5127424E-006  0.7033276E+02  0.7818608E-02  0.1391776E+00
          2   -1    0    0  502    0  0.00000000000E+00  0.00000000000E+00  0.79352099314E+03  0.79352099314E+03  0.00000000000E+00 0. -1.
          1   -1    0    0  501    0 -0.00000000000E+00 -0.00000000000E+00 -0.12705197813E+04  0.12705197813E+04  0.00000000000E+00 0. -1.
         25    2    1    2    0    0 -0.11920150595E+03 -0.51630918647E+01 -0.23529508184E+02  0.17439807972E+03  0.12500158366E+03 0.  0.
          2    1    1    2  501    0  0.68535364032E+02 -0.12688140098E+02 -0.11695123115E+04  0.11715874409E+04  0.00000000000E+00 0. -1.
          1    1    1    2  502    0  0.50666141918E+02  0.17851231963E+02  0.71604303155E+03  0.71805525376E+03  0.00000000000E+00 0. -1.
         22    1    3    3    0    0 -0.78393413960E+02 -0.23413668259E+02  0.44394279305E+02  0.93083721718E+02  0.00000000000E+00 0.  1.
         22    1    3    3    0    0 -0.40808091990E+02  0.18250576395E+02 -0.67923787489E+02  0.81314358003E+02  0.00000000000E+00 0.  1.
</event>
<event>
 7    1  0.5127424E-006  0.6197159E+02  0.7818608E-02  0.1416144E+00
          2   -1    0    0  502    0  0.00000000000E+00  0.00000000000E+00  0.10647090409E+04  0.10647090409E+04  0.00000000000E+00 0. -1.
          1   -1    0    0  501    0 -0.00000000000E+00 -0.00000000000E+00 -0.62282146584E+03  0.62282146584E+03  0.00000000000E+00 0. -1.
         25    2    1    2    0    0  0.66940675765E+02 -0.86316072780E+02  0.30796755274E+03  0.34985801869E+03  0.12500040482E+03 0.  0.
          2    1    1    2  501    0 -0.34316096575E+02  0.36809676797E+02 -0.59962611835E+03  0.60173418433E+03  0.00000000000E+00 0. -1.
          1    1    1    2  502    0 -0.32624579190E+02  0.49506395983E+02  0.73354614064E+03  0.73593830370E+03  0.00000000000E+00 0. -1.
         22    1    3    3    0    0  0.99904846834E+02 -0.41481911121E+02  0.17526912278E+03  0.20596357147E+03  0.00000000000E+00 0.  1.
         22    1    3    3    0    0 -0.32964171069E+02 -0.44834161658E+02  0.13269842996E+03  0.14389444722E+03  0.00000000000E+00 0.  1.
</event>
<event>
 7    1  0.5127424E-006  0.7756989E+02  0.7818608E-02  0.1485239E+00
          2   -1    0    0  502    0  0.00000000000E+00  0.00000000000E+00  0.15326040220E+02  0.15326040220E+02  0.00000000000E+00 0. -1.
          1   -1    0    0  501    0 -0.00000000000E+00 -0.00000000000E+00 -0.31887539319E+04  0.31887539319E+04  0.00000000000E+00 0. -1.
         25    2    1    2    0    0 -0.59402906139E+02  0.64314045116E+02 -0.82733398384E+03  0.84129343205E+03  0.12501246472E+03 0.  0.
          2    1    1    2  501    0  0.65176883148E+02 -0.40842900598E+02 -0.23348703642E+04  0.23361369366E+04  0.00000000000E+00 0. -1.
          1    1    1    2  502    0 -0.57739770085E+01 -0.23471144518E+02 -0.11223543596E+02  0.26649603493E+02  0.00000000000E+00 0. -1.
         22    1    3    3    0    0 -0.59982578884E+02  0.95902935698E+02 -0.73617434125E+03  0.74481403287E+03  0.00000000000E+00 0.  1.
         22    1    3    3    0    0  0.57967274503E+00 -0.31588890582E+02 -0.91159642590E+02  0.96479399178E+02  0.00000000000E+00 0.  1.
</event>
<event>
 7    1  0.5127424E-006  0.3462423E+02  0.7818608E-02  0.1584663E+00
          2   -1    0    0  502    0  0.00000000000E+00  0.00000000000E+00  0.17718972228E+04  0.17718972228E+04  0.00000000000E+00 0. -1.
          1   -1    0    0  501    0 -0.00000000000E+00 -0.00000000000E+00 -0.45990162334E+02  0.45990162334E+02  0.00000000000E+00 0. -1.
         25    2    1    2    0    0 -0.98987355304E+01 -0.56593792485E+02  0.47177737961E+03  0.49142759680E+03  0.12500537855E+03 0.  0.
          2    1    1    2  501    0  0.16299042185E+02  0.23019534669E+02 -0.30403457693E+02  0.41472014567E+02  0.00000000000E+00 0. -1.
          1    1    1    2  502    0 -0.64003066549E+01  0.33574257816E+02  0.12845331385E+04  0.12849877737E+04  0.00000000000E+00 0. -1.
         22    1    3    3    0    0  0.93117944315E+01 -0.85529274698E+01 -0.36761028562E+01  0.13167225070E+02  0.00000000000E+00 0. -1.
         22    1    3    3    0    0 -0.19210529962E+02 -0.48040865015E+02  0.47545348247E+03  0.47826037173E+03  0.00000000000E+00 0. -1.
</event>
<event>
 7    1  0.5127424E-006  0.2532510E+03  0.7818608E-02  0.1340455E+00
          2   -1    0    0  502    0  0.00000000000E+00  0.00000000000E+00  0.20766819487E+04  0.20766819487E+04  0.00000000000E+00 0. -1.
          1   -1    0    0  501    0 -0.00000000000E+00 -0.00000000000E+00 -0.14311856581E+04  0.14311856581E+04  0.00000000000E+00 0. -1.
         25    2    1    2    0    0 -0.67526502592E+02  0.25622172742E+03 -0.17131878503E+03  0.33937961058E+03  0.12497596496E+03 0.  0.
          2    1    1    2  501    0 -0.15091609939E+02 -0.17191593325E+02 -0.11676993527E+04  0.11679234075E+04  0.00000000000E+00 0. -1.
          1    1    1    2  502    0  0.82618112531E+02 -0.23903013410E+03  0.19845144283E+04  0.20005645887E+04  0.00000000000E+00 0. -1.
         22    1    3    3    0    0 -0.23629215620E+02  0.13231093680E+03 -0.15160828790E+02  0.13525669875E+03  0.00000000000E+00 0. -1.
         22    1    3    3    0    0 -0.43897286972E+02  0.12391079062E+03 -0.15615795624E+03  0.20412291182E+03  0.00000000000E+00 0. -1.
</event>
<event>
 7    1  0.5127424E-006  0.1526303E+03  0.7818608E-02  0.1219204E+00
          2   -1    0    0  502    0  0.00000000000E+00  0.00000000000E+00  0.56852428112E+03  0.56852428112E+03  0.00000000000E+00 0. -1.
          1   -1    0    0  501    0 -0.00000000000E+00 -0.00000000000E+00 -0.14977674117E+04  0.14977674117E+04  0.00000000000E+00 0. -1.
         25    2    1    2    0    0  0.20528029607E+03 -0.13199550969E+03 -0.92169917104E+03  0.96162395288E+03  0.12501380057E+03 0.  0.
          2    1    1    2  501    0 -0.12053609688E+03  0.60291126821E+01 -0.53879656249E+03  0.55214765833E+03  0.00000000000E+00 0. -1.
          1    1    1    2  502    0 -0.84744199181E+02  0.12596639701E+03  0.53125260293E+03  0.55252008162E+03  0.00000000000E+00 0. -1.
         22    1    3    3    0    0  0.12059396138E+03 -0.11260451081E+02 -0.32108847822E+03  0.34317271471E+03  0.00000000000E+00 0. -1.
         22    1    3    3    0    0  0.84686334681E+02 -0.12073505861E+03 -0.60061069282E+03  0.61845123817E+03  0.00000000000E+00 0. -1.
</event>
<event>
 7    1  0.5127424E-006  0.8842529E+02  0.7818608E-02  0.1389155E+00
          2   -1    0    0  502    0  0.00000000000E+00  0.00000000000E+00  0.63101155415E+03  0.63101155415E+03  0.00000000000E+00 0. -1.
          1   -1    0    0  501    0 -0.00000000000E+00 -0.00000000000E+00 -0.28961342844E+03  0.28961342844E+03  0.00000000000E+00 0. -1.
         25    2    1    2    0    0 -0.44179175900E+02  0.10033698234E+03 -0.62964380985E+02  0.17778259166E+03  0.12499130776E+03 0.  0.
          2    1    1    2  501    0 -0.19180480315E+02 -0.39195069223E+02 -0.16297357644E+03  0.16871434703E+03  0.00000000000E+00 0. -1.
          1    1    1    2  502    0  0.63359656215E+02 -0.61141913118E+02  0.56733608313E+03  0.57412804390E+03  0.00000000000E+00 0. -1.
         22    1    3    3    0    0 -0.13404853486E+02  0.12027653535E+02 -0.80624749198E+02  0.82611771133E+02  0.00000000000E+00 0. -1.
         22    1    3    3    0    0 -0.30774322414E+02  0.88309328807E+02  0.17660368213E+02  0.95170820527E+02  0.00000000000E+00 0. -1.
</event>
<event>
 7    1  0.5127424E-006  0.1504149E+03  0.7818608E-02  0.1328508E+00
          2   -1    0    0  502    0  0.00000000000E+00  0.00000000000E+00  0.14558878611E+04  0.14558878611E+04  0.00000000000E+00 0. -1.
          1   -1    0    0  501    0 -0.00000000000E+00 -0.00000000000E+00 -0.20845894349E+03  0.20845894349E+03  0.00000000000E+00 0. -1.
         25    2    1    2    0    0  0.16520933769E+03 -0.53329161312E+01  0.53196284630E+03  0.57090663267E+03  0.12500939220E+03 0.  0.
          2    1    1    2  501    0 -0.14621090122E+03 -0.32967401815E+02 -0.15866526657E+03  0.21826393205E+03  0.00000000000E+00 0. -1.
          1    1    1    2  502    0 -0.18998436469E+02  0.38300317946E+02  0.87413133793E+03  0.87517623991E+03  0.00000000000E+00 0. -1.
         22    1    3    3    0    0  0.14594033363E+03 -0.36779885973E+02  0.49980887185E+03  0.52197724986E+03  0.00000000000E+00 0.  1.
         22    1    3    3    0    0  0.19269004067E+02  0.31446969841E+02  0.32153974442E+02  0.48929382812E+02  0.00000000000E+00 0.  1.
</event>
<event>
 7    1  0.5127424E-006  0.4968550E+02  0.7818608E-02  0.1562025E+00
          2   -1    0    0  502    0  0.00000000000E+00  0.00000000000E+00  0.87241761094E+02  0.87241761094E+02  0.00000000000E+00 0. -1.
          1   -1    0    0  501    0 -0.00000000000E+00 -0.00000000000E+00 -0.72870727157E+03  0.72870727157E+03  0.00000000000E+00 0. -1.
         25    2    1    2    0    0 -0.56834867190E+01 -0.70611933720E+02 -0.20607161799E+02  0.14515086816E+03  0.12500308878E+03 0.  0.
          2    1    1    2  501    0 -0.20134890757E+01  0.49328990022E+02 -0.63954551115E+03  0.64144825530E+03  0.00000000000E+00 0. -1.
          1    1    1    2  502    0  0.76969757948E+01  0.21282943698E+02  0.18687162476E+02  0.29349909203E+02  0.00000000000E+00 0. -1.
         22    1    3    3    0    0  0.15299494776E+02 -0.14869240090E+02 -0.66577644024E+02  0.69912456151E+02  0.00000000000E+00 0. -1.
         22    1    3    3    0    0 -0.20982981495E+02 -0.55742693630E+02  0.45970482225E+02  0.75238412008E+02  0.00000000000E+00 0. -1.
</event>
<event>
 7    1  0.5127424E-006  0.8185187E+02  0.7818608E-02  0.1359261E+00
          2   -1    0    0  502    0  0.00000000000E+00  0.00000000000E+00  0.10126790967E+03  0.10126790967E+03  0.00000000000E+00 0. -1.
          1   -1    0    0  501    0 -0.00000000000E+00 -0.00000000000E+00 -0.61160033963E+03  0.61160033963E+03  0.00000000000E+00 0. -1.
         25    2    1    2    0    0 -0.32326643987E+02  0.55528937490E+02 -0.12855510364E+03  0.19046959067E+03  0.12499510186E+03 0.  0.
          2    1    1    2  501    0 -0.20786383919E+02 -0.84046022117E+02 -0.43405419257E+03  0.44260462004E+03  0.00000000000E+00 0. -1.
          1    1    1    2  502    0  0.53113027905E+02  0.28517084627E+02  0.52276866251E+02  0.79794038587E+02  0.00000000000E+00 0. -1.
         22    1    3    3    0    0 -0.41347829133E+02  0.15553727990E+02  0.10579255359E+02  0.45425566285E+02  0.00000000000E+00 0. -1.
         22    1    3    3    0    0  0.90211851462E+01  0.39975209499E+02 -0.13913435900E+03  0.14504402438E+03  0.00000000000E+00 0. -1.
</event>
<event>
 7    1  0.5127424E-006  0.6978685E+02  0.7818608E-02  0.1526326E+00
          2   -1    0    0  502    0  0.00000000000E+00  0.00000000000E+00  0.19130049723E+04  0.19130049723E+04  0.00000000000E+00 0. -1.
          1   -1    0    0  501    0 -0.00000000000E+00 -0.00000000000E+00 -0.88029363791E+03  0.88029363791E+03  0.00000000000E+00 0. -1.
         25    2    1    2    0    0 -0.84303871053E+02 -0.15269717234E+02  0.83122323077E+02  0.17284769937E+03  0.12500679839E+03 0.  0.
          2    1    1    2  501    0  0.14753368371E+02  0.13947220758E+02 -0.83462973066E+03  0.83487662211E+03  0.00000000000E+00 0. -1.
          1    1    1    2  502    0  0.69550502682E+02  0.13224964762E+01  0.17842187420E+04  0.17855742888E+04  0.00000000000E+00 0. -1.
         22    1    3    3    0    0 -0.90765162843E+02  0.27527660026E+02  0.21017468583E+02  0.97148447430E+02  0.00000000000E+00 0.  1.
         22    1    3    3    0    0  0.64612917896E+01 -0.42797377261E+02  0.62104854493E+02  0.75699251936E+02  0.00000000000E+00 0.  1.
</event>
<event>
 7    1  0.5127424E-006  0.5357888E+02  0.7818608E-02  0.1496399E+00
          2   -1    0    0  502    0  0.00000000000E+00  0.00000000000E+00  0.11086807276E+03  0.11086807276E+03  0.00000000000E+00 0. -1.
          1   -1    0    0  501    0 -0.00000000000E+00 -0.00000000000E+00 -0.60988476298E+03  0.60988476298E+03  0.00000000000E+00 0. -1.
         25    2    1    2    0    0  0.83018341757E+02  0.42060261387E+01 -0.20783516609E+03  0.25637849887E+03  0.12499897078E+03 0.  0.
          2    1    1    2  501    0 -0.50849088235E+02 -0.78870561914E+01 -0.37292148659E+03  0.37645487192E+03  0.00000000000E+00 0. -1.
          1    1    1    2  502    0 -0.32169253522E+02  0.36810300527E+01  0.81739962463E+02  0.87919464955E+02  0.00000000000E+00 0. -1.
         22    1    3    3    0    0  0.93421351218E+02  0.41671174119E+02 -0.18469540586E+03  0.21113130645E+03  0.00000000000E+00 0.  1.
         22    1    3    3    0    0 -0.10403009461E+02 -0.37465147980E+02 -0.23139760229E+02  0.45247192426E+02  0.00000000000E+00 0.  1.
</event>
<event>
 7    1  0.5127424E-006  0.4922580E+02  0.7818608E-02  0.1462177E+00
          2   -1    0    0  502    0  0.00000000000E+00  0.00000000000E+00  0.80471504366E+03  0.80471504366E+03  0.00000000000E+00 0. -1.
          1   -1    0    0  501    0 -0.00000000000E+00 -0.00000000000E+00 -0.56978465661E+02  0.56978465661E+02  0.00000000000E+00 0. -1.
         25    2    1    2    0    0 -0.91488260254E+01  0.16692983643E+01  0.79101701867E+02  0.14821280060E+03  0.12499386965E+03 0.  0.
          2    1    1    2  501    0 -0.16413127341E+02  0.41783472574E+02  0.19934570196E+01  0.44935767495E+02  0.00000000000E+00 0. -1.
          1    1    1    2  502    0  0.25561953366E+02 -0.43452770938E+02  0.66664141911E+03  0.66854494123E+03  0.00000000000E+00 0. -1.
         22    1    3    3    0    0 -0.19171533276E+02  0.40734677431E+02  0.94790165573E+02  0.10493825386E+03  0.00000000000E+00 0.  1.
         22    1    3    3    0    0  0.10022707250E+02 -0.39065379067E+02 -0.15688463706E+02  0.43274546742E+02  0.00000000000E+00 0.  1.
</event>
<event>
 7    1  0.5127424E-006  0.6971595E+02  0.7818608E-02  0.1383699E+00
          2   -1    0    0  502    0  0.00000000000E+00  0.00000000000E+00  0.28661043672E+03  0.28661043672E+03  0.00000000000E+00 0. -1.
          1   -1    0    0  501    0 -0.00000000000E+00 -0.00000000000E+00 -0.91417172090E+02  0.91417172090E+02  0.00000000000E+00 0. -1.
         25    2    1    2    0    0 -0.17036439922E+02  0.25855919440E+02  0.94813290541E+02  0.15991619841E+03  0.12499944638E+03 0.  0.
          2    1    1    2  501    0 -0.29547150751E+01  0.57765468914E+02 -0.27476353839E+02  0.64035378974E+02  0.00000000000E+00 0. -1.
          1    1    1    2  502    0  0.19991154997E+02 -0.83621388354E+02  0.12785632793E+03  0.15407603142E+03  0.00000000000E+00 0. -1.
         22    1    3    3    0    0  0.32962363340E+02  0.91561671971E+01  0.10119133555E+03  0.10681778496E+03  0.00000000000E+00 0. -1.
         22    1    3    3    0    0 -0.49998803262E+02  0.16699752243E+02 -0.63780450065E+01  0.53098413448E+02  0.00000000000E+00 0. -1.
</event>
<event>
 7    1  0.5127424E-006  0.5212161E+03  0.7818608E-02  0.1154133E+00
          2   -1    0    0  502    0  0.00000000000E+00  0.00000000000E+00  0.55623202329E+03  0.55623202329E+03  0.00000000000E+00 0. -1.
          1   -1    0    0  501    0 -0.00000000000E+00 -0.00000000000E+00 -0.15549286461E+04  0.15549286461E+04  0.00000000000E+00 0. -1.
         25    2    1    2    0    0  0.93076767324E+02 -0.55403318295E+03 -0.70794507568E+03  0.91237451909E+03  0.12499992186E+03 0.  0.
          2    1    1    2  501    0 -0.75454559944E+02  0.48333264535E+03 -0.66049981399E+03  0.82192690731E+03  0.00000000000E+00 0. -1.
          1    1    1    2  502    0 -0.17622207380E+02  0.70700537604E+02  0.36974826684E+03  0.37685924301E+03  0.00000000000E+00 0. -1.
         22    1    3    3    0    0 -0.39592048935E+01 -0.16792924748E+03 -0.13930127240E+03  0.21822179533E+03  0.00000000000E+00 0.  1.
         22    1    3    3    0    0  0.97035972217E+02 -0.38610393547E+03 -0.56864380328E+03  0.69415272376E+03  0.00000000000E+00 0.  1.
</event>
<event>
 7    1  0.5127424E-006  0.4002615E+02  0.7818608E-02  0.1571377E+00
          2   -1    0    0  502    0  0.00000000000E+00  0.00000000000E+00  0.15390290081E+03  0.15390290081E+03  0.00000000000E+00 0. -1.
          1   -1    0    0  501    0 -0.00000000000E+00 -0.00000000000E+00 -0.14316558872E+03  0.14316558872E+03  0.00000000000E+00 0. -1.
         25    2    1    2    0    0 -0.14543044209E+02  0.54934414851E+02  0.84551728222E+01  0.13756864969E+03  0.12499741342E+03 0.  0.
          2    1    1    2  501    0  0.20844352313E+02 -0.16348151162E+02 -0.71362328252E+02  0.76120502910E+02  0.00000000000E+00 0. -1.
          1    1    1    2  502    0 -0.63013081041E+01 -0.38586263689E+02  0.73644467520E+02  0.83379336923E+02  0.00000000000E+00 0. -1.
         22    1    3    3    0    0  0.48818231855E+02  0.48153053944E+02  0.22779454724E+02  0.72255379890E+02  0.00000000000E+00 0.  1.
         22    1    3    3    0    0 -0.63361276064E+02  0.67813609071E+01 -0.14324281902E+02  0.65313269802E+02  0.00000000000E+00 0.  1.
</event>
<event>
 7    1  0.5127424E-006  0.7456224E+02  0.7818608E-02  0.1374351E+00
          2   -1    0    0  502    0  0.00000000000E+00  0.00000000000E+00  0.51170361633E+03  0.51170361633E+03  0.00000000000E+00 0. -1.
          1   -1    0    0  501    0 -0.00000000000E+00 -0.00000000000E+00 -0.44779093137E+03  0.44779093137E+03  0.00000000000E+00 0. -1.
         25    2    1    2    0    0 -0.63476367580E+02 -0.15014125064E+01 -0.31286254935E+03  0.34284380979E+03  0.12500959819E+03 0.  0.
          2    1    1    2  501    0  0.13120026417E+02  0.56878175058E+02 -0.10980038479E+03  0.12435186525E+03  0.00000000000E+00 0. -1.
          1    1    1    2  502    0  0.50356341163E+02 -0.55376762552E+02  0.48657561911E+03  0.49229887267E+03  0.00000000000E+00 0. -1.
         22    1    3    3    0    0 -0.24721530056E+02  0.16397048650E+02 -0.29513297835E+03  0.29662011423E+03  0.00000000000E+00 0.  1.
         22    1    3    3    0    0 -0.38754837524E+02 -0.17898461156E+02 -0.17729571003E+02  0.46223695560E+02  0.00000000000E+00 0.  1.
</event>
<event>
 7    1  0.5127424E-006  0.8812761E+02  0.7818608E-02  0.1349871E+00
          2   -1    0    0  502    0  0.00000000000E+00  0.00000000000E+00  0.26401643663E+03  0.26401643663E+03  0.00000000000E+00 0. -1.
          1   -1    0    0  501    0 -0.00000000000E+00 -0.00000000000E+00 -0.13281212522E+03  0.13281212522E+03  0.00000000000E+00 0. -1.
         25    2    1    2    0    0 -0.64503405574E+02 -0.26331953161E+02  0.88154135194E+02  0.16807745310E+03  0.12499927040E+03 0.  0.
          2    1    1    2  501    0 -0.36156626358E+02  0.48667136101E+02 -0.58343552722E+02  0.84141321062E+02  0.00000000000E+00 0. -1.
          1    1    1    2  502    0  0.10066003193E+03 -0.22335182940E+02  0.10139372894E+03  0.14460978768E+03  0.00000000000E+00 0. -1.
         22    1    3    3    0    0 -0.53497098694E+02 -0.28565893276E+02 -0.16477581016E+02  0.62844733299E+02  0.00000000000E+00 0.  1.
         22    1    3    3    0    0 -0.11006306880E+02  0.22339401151E+01  0.10463171621E+03  0.10523271980E+03  0.00000000000E+00 0.  1.
</event>
<event>
 7    1  0.5127424E-006  0.1342664E+03  0.7818608E-02  0.1228265E+00
          2   -1    0    0  502    0  0.00000000000E+00  0.00000000000E+00  0.62354806848E+02  0.62354806848E+02  0.00000000000E+00 0. -1.
          1   -1    0    0  501    0 -0.00000000000E+00 -0.00000000000E+00 -0.17091804146E+04  0.17091804146E+04  0.00000000000E+00 0. -1.
         25    2    1    2    0    0 -0.20960298289E+03 -0.30242996077E+02 -0.62416650464E+03  0.67086344061E+03  0.12500352467E+03 0.  0.
          2    1    1    2  501    0  0.11439950426E+03 -0.50478448227E+02 -0.94592317283E+03  0.95415196337E+03  0.00000000000E+00 0. -1.
          1    1    1    2  502    0  0.95203478632E+02  0.80721444304E+02 -0.76735930268E+02  0.14651981746E+03  0.00000000000E+00 0. -1.
         22    1    3    3    0    0 -0.20597962229E+03 -0.50697547508E+02 -0.47444216103E+03  0.51970492617E+03  0.00000000000E+00 0. -1.
         22    1    3    3    0    0 -0.36233605919E+01  0.20454551431E+02 -0.14972434361E+03  0.15115851443E+03  0.00000000000E+00 0. -1.
</event>
<event>
 7    1  0.5127424E-006  0.8218385E+02  0.7818608E-02  0.1474105E+00
          2   -1    0    0  502    0  0.00000000000E+00  0.00000000000E+00  0.13938357541E+04  0.13938357541E+04  0.00000000000E+00 0. -1.
          1   -1    0    0  501    0 -0.00000000000E+00 -0.00000000000E+00 -0.10559556189E+04  0.10559556189E+04  0.00000000000E+00 0. -1.
         25    2    1    2    0    0  0.24378316831E+02 -0.78535045167E+02  0.35941675901E+02  0.15387130270E+03  0.12499007192E+03 0.  0.
          2    1    1    2  501    0 -0.24398329327E+02 -0.37278148174E+01 -0.99553524562E+03  0.99584115217E+03  0.00000000000E+00 0. -1.
          1    1    1    2  502    0  0.20012496081E-01  0.82262859985E+02  0.12974737049E+04  0.13000789182E+04  0.00000000000E+00 0. -1.
         22    1    3    3    0    0  0.53543937795E+02 -0.94363771857E+02  0.47898161160E+02  0.11859893995E+03  0.00000000000E+00 0. -1.
         22    1    3    3    0    0 -0.29165620964E+02  0.15828726689E+02 -0.11956485259E+02  0.35272362758E+02  0.00000000000E+00 0. -1.
</event>
<event>
 7    1  0.5127424E-006  0.1834093E+03  0.7818608E-02  0.1275326E+00
          2   -1    0    0  502    0  0.00000000000E+00  0.00000000000E+00  0.15553374573E+03  0.15553374573E+03  0.00000000000E+00 0. -1.
          1   -1    0    0  501    0 -0.00000000000E+00 -0.00000000000E+00 -0.57415786889E+03  0.57415786889E+03  0.00000000000E+00 0. -1.
         25    2    1    2    0    0 -0.15920292784E+03 -0.95459724476E+02 -0.24790876197E+03  0.33397856879E+03  0.12499919569E+03 0.  0.
          2    1    1    2  501    0  0.12252354040E+03  0.13931551643E+03 -0.24161811919E+03  0.30463116484E+03  0.00000000000E+00 0. -1.
          1    1    1    2  502    0  0.36679387441E+02 -0.43855791958E+02  0.70902758005E+02  0.91081880987E+02  0.00000000000E+00 0. -1.
         22    1    3    3    0    0 -0.47479954953E+02 -0.50823165403E+02 -0.18620091840E+03  0.19876650190E+03  0.00000000000E+00 0.  1.
         22    1    3    3    0    0 -0.11172297289E+03 -0.44636559073E+02 -0.61707843565E+02  0.13521206689E+03  0.00000000000E+00 0.  1.
</event>
<event>
 7    1  0.5127424E-006  0.1141891E+03  0.7818608E-02  0.1426717E+00
          2   -1    0    0  502    0  0.00000000000E+00  0.00000000000E+00  0.33954288578E+03  0.33954288578E+03  0.00000000000E+00 0. -1.
          1   -1    0    0  501    0 -0.00000000000E+00 -0.00000000000E+00 -0.25915094259E+03  0.25915094259E+03  0.00000000000E+00 0. -1.
         25    2    1    2    0    0 -0.10812617317E+03  0.60177961179E+02 -0.43598636573E+02  0.18121659781E+03  0.12500383143E+03 0.  0.
          2    1    1    2  501    0  0.26505646907E+00 -0.25181405158E+02 -0.13364153686E+03  0.13599350644E+03  0.00000000000E+00 0. -1.
          1    1    1    2  502    0  0.10786111670E+03 -0.34996556020E+02  0.25763211662E+03  0.28148372412E+03  0.00000000000E+00 0. -1.
         22    1    3    3    0    0 -0.35417241863E+02  0.99989348236E+01 -0.78130702144E+02  0.86364149601E+02  0.00000000000E+00 0.  1.
         22    1    3    3    0    0 -0.72708931309E+02  0.50179026355E+02  0.34532065570E+02  0.94852448206E+02  0.00000000000E+00 0.  1.
</event>
<event>
 7    1  0.5127424E-006  0.6060714E+02  0.7818608E-02  0.1431620E+00
          2   -1    0    0  502    0  0.00000000000E+00  0.00000000000E+00  0.17457656760E+03  0.17457656760E+03  0.00000000000E+00 0. -1.
          1   -1    0    0  501    0 -0.00000000000E+00 -0.00000000000E+00 -0.28579525163E+04  0.28579525163E+04  0.00000000000E+00 0. -1.
         25    2    1    2    0    0 -0.65023042968E+02  0.79434616982E+02 -0.58024245516E+03  0.60236594585E+03  0.12500228581E+03 0.  0.
          2    1    1    2  501    0  0.28582296187E+02 -0.51833958656E+02 -0.22630587405E+04  0.22638327169E+04  0.00000000000E+00 0. -1.
          1    1    1    2  502    0  0.36440746781E+02 -0.27600658326E+02  0.15992524702E+03  0.16633042115E+03  0.00000000000E+00 0. -1.
         22    1    3    3    0    0 -0.34827191563E+02 -0.16619018966E+02 -0.33563110454E+03  0.33784221672E+03  0.00000000000E+00 0. -1.
         22    1    3    3    0    0 -0.30195851405E+02  0.96053635949E+02 -0.24461135062E+03  0.26452372913E+03  0.00000000000E+00 0. -1.
</event>
<event>
 7    1  0.5127424E-006  0.8676986E+02  0.7818608E-02  0.1328325E+00
          2   -1    0    0  502    0  0.00000000000E+00  0.00000000000E+00  0.57340237526E+03  0.57340237526E+03  0.00000000000E+00 0. -1.
          1   -1    0    0  501    0 -0.00000000000E+00 -0.00000000000E+00 -0.67702627543E+03  0.67702627543E+03  0.00000000000E+00 0. -1.
         25    2    1    2    0    0 -0.22380216580E+02 -0.10311139802E+03  0.32172774838E+02  0.16671183818E+03  0.12499966022E+03 0.  0.
          2    1    1    2  501    0 -0.50249937643E+02  0.54638248421E+02 -0.60344116863E+03  0.60798983414E+03  0.00000000000E+00 0. -1.
          1    1    1    2  502    0  0.72630154223E+02  0.48473149601E+02  0.46764449362E+03  0.47572697837E+03  0.00000000000E+00 0. -1.
         22    1    3    3    0    0  0.89917650191E+01 -0.12498876272E+03  0.23562133096E+02  0.12750771255E+03  0.00000000000E+00 0.  1.
         22    1    3    3    0    0 -0.31371981599E+02  0.21877364696E+02  0.86106417420E+01  0.39204125634E+02  0.00000000000E+00 0.  1.
</event>
<event>
 7    1  0.5127424E-006  0.5286130E+02  0.7818608E-02  0.1470310E+00
          2   -1    0    0  502    0  0.00000000000E+00  0.00000000000E+00  0.49258823917E+03  0.49258823917E+03  0.00000000000E+00 0. -1.
          1   -1    0    0  501    0 -0.00000000000E+00 -0.00000000000E+00 -0.11150447467E+04  0.11150447467E+04  0.00000000000E+00 0. -1.
         25    2    1    2    0    0 -0.13235756072E+02 -0.79516227687E+02 -0.43201186485E+03  0.45690850776E+03  0.12503246534E+03 0.  0.
          2    1    1    2  501    0  0.27860126804E+02  0.42902404190E+02 -0.66879679095E+03  0.67075028926E+03  0.00000000000E+00 0. -1.
          1    1    1    2  502    0 -0.14624370732E+02  0.36613823498E+02  0.47835214823E+03  0.47997418890E+03  0.00000000000E+00 0. -1.
         22    1    3    3    0    0  0.32003518054E+02 -0.77853281651E+02 -0.37382995394E+03  0.38318950024E+03  0.00000000000E+00 0.  1.
         22    1    3    3    0    0 -0.45239274125E+02 -0.16629460362E+01 -0.58181910912E+02  0.73719007524E+02  0.00000000000E+00 0.  1.
</event>
<event>
 7    1  0.5127424E-006  0.1100568E+03  0.7818608E-02  0.1409247E+00
          2   -1    0    0  502    0  0.00000000000E+00  0.00000000000E+00  0.12252732320E+03  0.12252732320E+03  0.00000000000E+00 0. -1.
          1   -1    0    0  501    0 -0.00000000000E+00 -0.00000000000E+00 -0.50278497814E+03  0.50278497814E+03  0.00000000000E+00 0. -1.
         25    2    1    2    0    0 -0.87103944454E+02 -0.56721418925E+01 -0.21130829529E+03  0.26057186757E+03  0.12500892838E+03 0.  0.
          2    1    1    2  501    0 -0.25890843426E+02  0.14950622658E+02 -0.23273929922E+03  0.23465173832E+03  0.00000000000E+00 0. -1.
          1    1    1    2  502    0  0.11299478788E+03 -0.92784807657E+01  0.63789939581E+02  0.13008869545E+03  0.00000000000E+00 0. -1.
         22    1    3    3    0    0 -0.59093158006E+02 -0.22507101006E+02 -0.21819537553E+03  0.22717348617E+03  0.00000000000E+00 0. -1.
         22    1    3    3    0    0 -0.28010786447E+02  0.16834959113E+02  0.68870802333E+01  0.33398381396E+02  0.00000000000E+00 0. -1.
</event>
<event>
 7    1  0.5127424E-006  0.7252447E+02  0.7818608E-02  0.1409622E+00
          2   -1    0    0  502    0  0.00000000000E+00  0.00000000000E+00  0.25386184861E+04  0.25386184861E+04  0.00000000000E+00 0. -1.
          1   -1    0    0  501    0 -0.00000000000E+00 -0.00000000000E+00 -0.20448254488E+04  0.20448254488E+04  0.00000000000E+00 0. -1.
         25    2    1    2    0    0 -0.82030679583E+02 -0.29345437267E+02  0.11167225410E+03  0.18890503772E+03  0.12499693540E+03 0.  0.
          2    1    1    2  501    0  0.11008343109E+02  0.43877175191E+02 -0.20054038146E+04  0.20059139687E+04  0.00000000000E+00 0. -1.
          1    1    1    2  502    0  0.71022336474E+02 -0.14531737924E+02  0.23875245978E+04  0.23886249284E+04  0.00000000000E+00 0. -1.
         22    1    3    3    0    0  0.23517421475E+02 -0.28898112729E+02  0.29484735619E+01  0.37374637503E+02  0.00000000000E+00 0. -1.
         22    1    3    3    0    0 -0.10554810106E+03 -0.44732453870E+00  0.10872378054E+03  0.15153040022E+03  0.00000000000E+00 0. -1.
</event>
<event>
 7    1  0.5127424E-006  0.3438344E+02  0.7818608E-02  0.1565683E+00
          2   -1    0    0  502    0  0.00000000000E+00  0.00000000000E+00  0.66598641431E+03  0.66598641431E+03  0.00000000000E+00 0. -1.
          1   -1    0    0  501    0 -0.00000000000E+00 -0.00000000000E+00 -0.43691795301E+03  0.43691795301E+03  0.00000000000E+00 0. -1.
         25    2    1    2    0    0  0.48289950336E+02  0.29517955572E+02  0.74285167410E+01  0.13741484481E+03  0.12499771081E+03 0.  0.
          2    1    1    2  501    0 -0.14027730954E+02 -0.28715160647E+02 -0.37074207903E+03  0.37211695319E+03  0.00000000000E+00 0. -1.
          1    1    1    2  502    0 -0.34262219382E+02 -0.80279492479E+00  0.59238202359E+03  0.59337256933E+03  0.00000000000E+00 0. -1.
         22    1    3    3    0    0 -0.12402797343E+00  0.35293441755E+02 -0.50555247436E+02  0.61656106406E+02  0.00000000000E+00 0.  1.
         22    1    3    3    0    0  0.48413978310E+02 -0.57754861837E+01  0.57983764177E+02  0.75758738404E+02  0.00000000000E+00 0.  1.
</event>
<event>
 7    1  0.5127424E-006  0.3211358E+02  0.7818608E-02  0.1605588E+00
          2   -1    0    0  502    0  0.00000000000E+00  0.00000000000E+00  0.29317635115E+02  0.29317635115E+02  0.00000000000E+00 0. -1.
          1   -1    0    0  501    0 -0.00000000000E+00 -0.00000000000E+00 -0.10125266136E+04  0.10125266136E+04  0.00000000000E+00 0. -1.
         25    2    1    2    0    0 -0.55196172592E+02 -0.39723531680E+01 -0.20007006389E+03  0.24231964006E+03  0.12501352101E+03 0.  0.
          2    1    1    2  501    0  0.30924455108E+02 -0.73721976243E+01 -0.76818353863E+03  0.76884108907E+03  0.00000000000E+00 0. -1.
          1    1    1    2  502    0  0.24271717484E+02  0.11344550792E+02 -0.14955375920E+02  0.30683519537E+02  0.00000000000E+00 0. -1.
         22    1    3    3    0    0 -0.39371980482E+02  0.25895873244E+02 -0.20299407105E+03  0.20839227908E+03  0.00000000000E+00 0. -1.
         22    1    3    3    0    0 -0.15824192110E+02 -0.29868226412E+02  0.29240071674E+01  0.33927360977E+02  0.00000000000E+00 0. -1.
</event>
<event>
 7    1  0.5127424E-006  0.1850151E+03  0.7818608E-02  0.1257314E+00
          2   -1    0    0  502    0  0.00000000000E+00  0.00000000000E+00  0.22431682256E+03  0.22431682256E+03  0.00000000000E+00 0. -1.
          1   -1    0    0  501    0 -0.00000000000E+00 -0.00000000000E+00 -0.80934278809E+03  0.80934278809E+03  0.00000000000E+00 0. -1.
         25    2    1    2    0    0  0.11926151742E+03 -0.66827577639E+02  0.20469625081E+02  0.18637089723E+03  0.12500348441E+03 0.  0.
          2    1    1    2  501    0 -0.13934168498E+03  0.13130346031E+03 -0.70304312551E+03  0.72864692423E+03  0.00000000000E+00 0. -1.
          1    1    1    2  502    0  0.20080167561E+02 -0.64475882671E+02  0.97547534902E+02  0.11864178918E+03  0.00000000000E+00 0. -1.
         22    1    3    3    0    0  0.99080074977E+02 -0.87613972581E+02 -0.22885330346E+02  0.13422670298E+03  0.00000000000E+00 0.  1.
         22    1    3    3    0    0  0.20181442443E+02  0.20786394942E+02  0.43354955427E+02  0.52144194249E+02  0.00000000000E+00 0.  1.
</event>
<event>
 7    1  0.5127424E-006  0.7692871E+02  0.7818608E-02  0.1350903E+00
          2   -1    0    0  502    0  0.00000000000E+00  0.00000000000E+00  0.50339143012E+02  0.50339143012E+02  0.00000000000E+00 0. -1.
          1   -1    0    0  501    0 -0.00000000000E+00 -0.00000000000E+00 -0.73085250034E+03  0.73085250034E+03  0.00000000000E+00 0. -1.
         25    2    1    2    0    0  0.37500663590E+02 -0.64464304548E+02 -0.45077052489E+03  0.47368939523E+03  0.12500252281E+03 0.  0.
          2    1    1    2  501    0 -0.80779024333E+02  0.86391492355E+00 -0.21432452027E+03  0.22904365765E+03  0.00000000000E+00 0. -1.
          1    1    1    2  502    0  0.43278360743E+02  0.63600389625E+02 -0.15418312166E+02  0.78458590473E+02  0.00000000000E+00 0. -1.
         22    1    3    3    0    0  0.76262045976E+02 -0.72806517199E+02 -0.34397005990E+03  0.35976671707E+03  0.00000000000E+00 0. -1.
         22    1    3    3    0    0 -0.38761382386E+02  0.83422126510E+01 -0.10680046499E+03  0.11392267815E+03  0.00000000000E+00 0. -1.
</event>
<event>
 7    1  0.5127424E-006  0.6796995E+02  0.7818608E-02  0.1438098E+00
          2   -1    0    0  502    0  0.00000000000E+00  0.00000000000E+00  0.21910195769E+04  0.21910195769E+04  0.00000000000E+00 0. -1.
          1   -1    0    0  501    0 -0.00000000000E+00 -0.00000000000E+00 -0.12563149555E+02  0.12563149555E+02  0.00000000000E+00 0. -1.
         25    2    1    2    0    0 -0.37292220523E+00 -0.33867415912E+02  0.12201177364E+04  0.12269716557E+04  0.12500004995E+03 0.  0.
          2    1    1    2  501    0 -0.83017782141E+01  0.71707455512E+02  0.14149094800E+03  0.15884132669E+03  0.00000000000E+00 0. -1.
          1    1    1    2  502    0  0.86747004193E+01 -0.37840039601E+02  0.81684774296E+03  0.81776974400E+03  0.00000000000E+00 0. -1.
         22    1    3    3    0    0  0.56738343779E+02 -0.17650931513E+02  0.85465325053E+03  0.85671639046E+03  0.00000000000E+00 0. -1.
         22    1    3    3    0    0 -0.57111265985E+02 -0.16216484399E+02  0.36546448582E+03  0.37025526527E+03  0.00000000000E+00 0. -1.
</event>
<event>
 7    1  0.5127424E-006  0.9250415E+02  0.7818608E-02  0.1390122E+00
          2   -1    0    0  502    0  0.00000000000E+00  0.00000000000E+00  0.26187736228E+04  0.26187736228E+04  0.00000000000E+00 0. -1.
          1   -1    0    0  501    0 -0.00000000000E+00 -0.00000000000E+00 -0.28527057567E+03  0.28527057567E+03  0.00000000000E+00 0. -1.
         25    2    1    2    0    0  0.14738952927E+02  0.10390510102E+03  0.83888368661E+03  0.85461275447E+03  0.12499445461E+03 0.  0.
          2    1    1    2  501    0  0.23988250301E+02 -0.89301004145E+02 -0.26945114687E+03  0.28487545708E+03  0.00000000000E+00 0. -1.
          1    1    1    2  502    0 -0.38727203228E+02 -0.14604096876E+02  0.17640705074E+04  0.17645559870E+04  0.00000000000E+00 0. -1.
         22    1    3    3    0    0 -0.21403530322E+02  0.55356974314E+02  0.12725495870E+03  0.14041485046E+03  0.00000000000E+00 0.  1.
         22    1    3    3    0    0  0.36142483250E+02  0.48548126707E+02  0.71162872792E+03  0.71419790401E+03  0.00000000000E+00 0.  1.
</event>
<event>
 7    1  0.5127424E-006  0.3061293E+03  0.7818608E-02  0.1237295E+00
          2   -1    0    0  502    0  0.00000000000E+00  0.00000000000E+00  0.24822323370E+04  0.24822323370E+04  0.00000000000E+00 0. -1.
          1   -1    0    0  501    0 -0.00000000000E+00 -0.00000000000E+00 -0.62912139898E+03  0.62912139898E+03  0.00000000000E+00 0. -1.
         25    2    1    2    0    0  0.20737466436E+02  0.35343848140E+03 -0.22896799174E+03  0.43976518172E+03  0.12497308176E+03 0.  0.
          2    1    1    2  501    0 -0.99024824635E+01 -0.48900266112E+02 -0.28279478092E+03  0.28716229436E+03  0.00000000000E+00 0. -1.
          1    1    1    2  502    0 -0.10834983973E+02 -0.30453821528E+03  0.23648737107E+04  0.23844262599E+04  0.00000000000E+00 0. -1.
         22    1    3    3    0    0 -0.38628290931E+02  0.27154847747E+03 -0.16969179693E+03  0.32253065966E+03  0.00000000000E+00 0. -1.
         22    1    3    3    0    0  0.59365757367E+02  0.81890003931E+02 -0.59276194813E+02  0.11723452206E+03  0.00000000000E+00 0. -1.
</event>
<event>
 7    1  0.5127424E-006  0.1507791E+03  0.7818608E-02  0.1276090E+00
          2   -1    0    0  502    0  0.00000000000E+00  0.00000000000E+00  0.41207215947E+03  0.41207215947E+03  0.00000000000E+00 0. -1.
          1   -1    0    0  501    0 -0.00000000000E+00 -0.00000000000E+00 -0.18849667063E+03  0.18849667063E+03  0.00000000000E+00 0. -1.
         25    2    1    2    0    0  0.70791122426E+02  0.76935575833E+02  0.52726569970E+02  0.17127463957E+03  0.12499778052E+03 0.  0.
          2    1    1    2  501    0  0.25715243122E+02  0.64070402998E+02 -0.92467090755E+02  0.11539693732E+03  0.00000000000E+00 0. -1.
          1    1    1    2  502    0 -0.96506365548E+02 -0.14100597883E+03  0.26331600962E+03  0.31389725322E+03  0.00000000000E+00 0. -1.
         22    1    3    3    0    0  0.27206688140E+02  0.37803153226E+02 -0.40135268988E+02  0.61482697485E+02  0.00000000000E+00 0. -1.
         22    1    3    3    0    0  0.43584434286E+02  0.39132422607E+02  0.92861838957E+02  0.10979194208E+03  0.00000000000E+00 0. -1.
</event>
<event>
 7    1  0.5127424E-006  0.3113344E+02  0.7818608E-02  0.1613050E+00
          2   -1    0    0  502    0  0.00000000000E+00  0.00000000000E+00  0.16109581320E+03  0.16109581320E+03  0.00000000000E+00 0. -1.
          1   -1    0    0  501    0 -0.00000000000E+00 -0.00000000000E+00 -0.15066366376E+04  0.15066366376E+04  0.00000000000E+00 0. -1.
         25    2    1    2    0    0 -0.28366815097E+00  0.46685036942E+02 -0.98269327330E+03  0.99171420432E+03  0.12502567944E+03 0.  0.
          2    1    1    2  501    0  0.16870661890E+02 -0.20353338906E+02 -0.51754592783E+03  0.51822067216E+03  0.00000000000E+00 0. -1.
          1    1    1    2  502    0 -0.16586993740E+02 -0.26331698036E+02  0.15469837676E+03  0.15779757430E+03  0.00000000000E+00 0. -1.
         22    1    3    3    0    0 -0.26625323021E+02 -0.35445738121E+02 -0.24315861981E+03  0.24716679098E+03  0.00000000000E+00 0. -1.
         22    1    3    3    0    0  0.26341654870E+02  0.82130775064E+02 -0.73953465349E+03  0.74454741334E+03  0.00000000000E+00 0. -1.
</event>
<event>
 7    1  0.5127424E-006  0.2817068E+02  0.7818608E-02  0.1679051E+00
          2   -1    0    0  502    0  0.00000000000E+00  0.00000000000E+00  0.45450951562E+03  0.45450951562E+03  0.00000000000E+00 0. -1.
          1   -1    0    0  501    0 -0.00000000000E+00 -0.00000000000E+00 -0.36945120343E+02  0.36945120343E+02  0.00000000000E+00 0. -1.
         25    2    1    2    0    0 -0.12368038231E+02  0.44500132105E+02  0.15522204663E+03  0.20457392201E+03  0.12499350256E+03 0.  0.
          2    1    1    2  501    0  0.10643582860E+02 -0.24487620313E+02  0.31212678636E+01  0.26882554152E+02  0.00000000000E+00 0. -1.
          1    1    1    2  502    0  0.17244553702E+01 -0.20012511792E+02  0.25922108079E+03  0.25999815980E+03  0.00000000000E+00 0. -1.
         22    1    3    3    0    0 -0.11521474616E+02 -0.16517237942E+02 -0.14104727254E+02  0.24586721161E+02  0.00000000000E+00 0. -1.
         22    1    3    3    0    0 -0.84656361491E+00  0.61017370047E+02  0.16932677388E+03  0.17998720085E+03  0.00000000000E+00 0. -1.
</event>
<event>
 7    1  0.5127424E-006  0.6461556E+02  0.7818608E-02  0.1474350E+00
          2   -1    0    0  502    0  0.00000000000E+00  0.00000000000E+00  0.17960826000E+03  0.17960826000E+03  0.00000000000E+00 0. -1.
          1   -1    0    0  501    0 -0.00000000000E+00 -0.00000000000E+00 -0.15345105759E+03  0.15345105759E+03  0.00000000000E+00 0. -1.
         25    2    1    2    0    0  0.56738205784E+01 -0.53371004742E+02 -0.49160458138E+01  0.13611953460E+03  0.12499481512E+03 0.  0.
          2    1    1    2  501    0  0.31237016540E+02 -0.25054865028E+01 -0.69427055457E+02  0.76171810365E+02  0.00000000000E+00 0. -1.
          1    1    1    2  502    0 -0.36910837118E+02  0.55876491245E+02  0.10050030368E+03  0.12076797262E+03  0.00000000000E+00 0. -1.
         22    1    3    3    0    0 -0.57781507792E+02 -0.13156764845E+02  0.83064830318E+01  0.59839792481E+02  0.00000000000E+00 0.  1.
         22    1    3    3    0    0  0.63455328370E+02 -0.40214239897E+02 -0.13222528846E+02  0.76279742121E+02  0.00000000000E+00 0.  1.
</event>
<event>
 7    1  0.7019338E-006  0.4060207E+02  0.7818608E-02  0.1521244E+00
          2   -1    0    0  502    0  0.00000000000E+00  0.00000000000E+00  0.11417669471E+04  0.11417669471E+04  0.00000000000E+00 0. -1.
          1   -1    0    0  501    0 -0.00000000000E+00 -0.00000000000E+00 -0.23535823470E+04  0.23535823470E+04  0.00000000000E+00 0. -1.
         25    2    1    2    0    0  0.22226906428E+02 -0.74606901210E+01 -0.42025767432E+03  0.43907947298E+03  0.12499829399E+03 0.  0.
          2    1    1    2  501    0 -0.77880022246E+01  0.40542555518E+02 -0.19234045640E+04  0.19238475689E+04  0.00000000000E+00 0. -1.
          1    1    1    2  502    0 -0.14438904203E+02 -0.33081865397E+02  0.11318468384E+04  0.11324222523E+04  0.00000000000E+00 0. -1.
         22    1    3    3    0    0  0.63257828540E+02  0.30704608177E+02 -0.20875474996E+03  0.22027907632E+03  0.00000000000E+00 0.  1.
         22    1    3    3    0    0 -0.41030922112E+02 -0.38165298298E+02 -0.21150292436E+03  0.21880039665E+03  0.00000000000E+00 0.  1.
</event>
<event>
 7    1  0.5127424E-006  0.7284242E+02  0.7818608E-02  0.1371303E+00
          2   -1    0    0  502    0  0.00000000000E+00  0.00000000000E+00  0.11160084012E+04  0.11160084012E+04  0.00000000000E+00 0. -1.
          1   -1    0    0  501    0 -0.00000000000E+00 -0.00000000000E+00 -0.13687480152E+04  0.13687480152E+04  0.00000000000E+00 0. -1.
         25    2    1    2    0    0  0.13123263282E+03  0.25033460164E+02  0.22222426299E+03  0.28785046464E+03  0.12500235551E+03 0.  0.
          2    1    1    2  501    0 -0.70389662373E+02 -0.17811039695E+02 -0.13338562358E+04  0.13358309756E+04  0.00000000000E+00 0. -1.
          1    1    1    2  502    0 -0.60842970447E+02 -0.72224204688E+01  0.85889235884E+03  0.86107497611E+03  0.00000000000E+00 0. -1.
         22    1    3    3    0    0 -0.96070903349E+01 -0.18100491492E+02  0.81854114965E+02  0.84380211623E+02  0.00000000000E+00 0.  1.
         22    1    3    3    0    0  0.14083972315E+03  0.43133951655E+02  0.14037014803E+03  0.20347025301E+03  0.00000000000E+00 0.  1.
</event>
<event>
 7    1  0.5127424E-006  0.2806394E+03  0.7818608E-02  0.1229808E+00
          2   -1    0    0  502    0  0.00000000000E+00  0.00000000000E+00  0.57768693168E+03  0.57768693168E+03  0.00000000000E+00 0. -1.
          1   -1    0    0  501    0 -0.00000000000E+00 -0.00000000000E+00 -0.32681865599E+04  0.32681865599E+04  0.00000000000E+00 0. -1.
         25    2    1    2    0    0  0.96848673877E+02  0.20977785361E+03 -0.32625595041E+03  0.41887764509E+03  0.12501649043E+03 0.  0.
          2    1    1    2  501    0 -0.10754009547E+03 -0.26756896860E+03 -0.28867886827E+04  0.29011561356E+04  0.00000000000E+00 0. -1.
          1    1    1    2  502    0  0.10691421592E+02  0.57791114990E+02  0.52254500482E+03  0.52583971088E+03  0.00000000000E+00 0. -1.
         22    1    3    3    0    0  0.30422518234E+02  0.42742120285E+02 -0.75937427143E+01  0.53010219681E+02  0.00000000000E+00 0. -1.
         22    1    3    3    0    0  0.66426155643E+02  0.16703573332E+03 -0.31866220770E+03  0.36586742541E+03  0.00000000000E+00 0. -1.
</event>
<event>
 7    1  0.5127424E-006  0.7401652E+02  0.7818608E-02  0.1427853E+00
          2   -1    0    0  502    0  0.00000000000E+00  0.00000000000E+00  0.22353571099E+04  0.22353571099E+04  0.00000000000E+00 0. -1.
          1   -1    0    0  501    0 -0.00000000000E+00 -0.00000000000E+00 -0.19850689814E+03  0.19850689814E+03  0.00000000000E+00 0. -1.
         25    2    1    2    0    0 -0.16347706146E+02 -0.48787194289E+02  0.15186304135E+02  0.13602542400E+03  0.12499941727E+03 0.  0.
          2    1    1    2  501    0 -0.38491910158E+02 -0.13786743317E+01 -0.13474875176E+03  0.14014547439E+03  0.00000000000E+00 0. -1.
          1    1    1    2  502    0  0.54839616305E+02  0.50165868620E+02  0.21564126594E+04  0.21576931096E+04  0.00000000000E+00 0. -1.
         22    1    3    3    0    0  0.49874688591E+02 -0.46300050984E+02  0.15321504358E+02  0.69756202441E+02  0.00000000000E+00 0. -1.
         22    1    3    3    0    0 -0.66222394737E+02 -0.24871433049E+01 -0.13520022356E+00  0.66269221556E+02  0.00000000000E+00 0. -1.
</event>
<event>
 7    1  0.5453798E-006  0.5722808E+02  0.7818608E-02  0.1413115E+00
          2   -1    0    0  502    0  0.00000000000E+00  0.00000000000E+00  0.69375939648E+03  0.69375939648E+03  0.00000000000E+00 0. -1.
          1   -1    0    0  501    0 -0.00000000000E+00 -0.00000000000E+00 -0.10262348708E+04  0.10262348708E+04  0.00000000000E+00 0. -1.
         25    2    1    2    0    0 -0.20130598826E+02  0.41613238816E+02 -0.48457891448E+03  0.50257229414E+03  0.12500113527E+03 0.  0.
          2    1    1    2  501    0 -0.36431316867E+02 -0.50319742726E+02 -0.52964496849E+03  0.53327582920E+03  0.00000000000E+00 0. -1.
          1    1    1    2  502    0  0.56561915693E+02  0.87065039094E+01  0.68174840868E+03  0.68414614393E+03  0.00000000000E+00 0. -1.
         22    1    3    3    0    0 -0.60514695367E+02  0.62973131145E+02 -0.33258064345E+03  0.34385684230E+03  0.00000000000E+00 0. -1.
         22    1    3    3    0    0  0.40384096541E+02 -0.21359892329E+02 -0.15199827104E+03  0.15871545184E+03  0.00000000000E+00 0. -1.
</event>
<event>
 7    1  0.5127424E-006  0.1058930E+03  0.7818608E-02  0.1451995E+00
          2   -1    0    0  502    0  0.00000000000E+00  0.00000000000E+00  0.56639549865E+02  0.56639549865E+02  0.00000000000E+00 0. -1.
          1   -1    0    0  501    0 -0.00000000000E+00 -0.00000000000E+00 -0.18057363496E+04  0.18057363496E+04  0.00000000000E+00 0. -1.
         25    2    1    2    0    0 -0.30945284294E+02 -0.11540846901E+03 -0.11274732245E+04  0.11406566085E+04  0.12499960492E+03 0.  0.
          2    1    1    2  501    0 -0.11751901554E+02  0.19160486891E+02 -0.61585799460E+03  0.61626804312E+03  0.00000000000E+00 0. -1.
          1    1    1    2  502    0  0.42697185848E+02  0.96247982122E+02 -0.57655805849E+01  0.10545124779E+03  0.00000000000E+00 0. -1.
         22    1    3    3    0    0 -0.60547356735E+02 -0.83234915217E+02 -0.10113807886E+04  0.10166047084E+04  0.00000000000E+00 0. -1.
         22    1    3    3    0    0  0.29602072441E+02 -0.32173553797E+02 -0.11609243593E+03  0.12405190018E+03  0.00000000000E+00 0. -1.
</event>
<event>
 7    1  0.5127424E-006  0.7975718E+02  0.7818608E-02  0.1429151E+00
          2   -1    0    0  502    0  0.00000000000E+00  0.00000000000E+00  0.64299573964E+03  0.64299573964E+03  0.00000000000E+00 0. -1.
          1   -1    0    0  501    0 -0.00000000000E+00 -0.00000000000E+00 -0.25546363129E+03  0.25546363129E+03  0.00000000000E+00 0. -1.
         25    2    1    2    0    0 -0.32051469994E+02 -0.67426688085E+02  0.30961252346E+02  0.14885269898E+03  0.12499948741E+03 0.  0.
          2    1    1    2  501    0  0.32943173135E+02 -0.12940125893E+02 -0.19197182317E+03  0.19520727549E+03  0.00000000000E+00 0. -1.
          1    1    1    2  502    0 -0.89170314088E+00  0.80366813978E+02  0.54854267917E+03  0.55439939646E+03  0.00000000000E+00 0. -1.
         22    1    3    3    0    0 -0.60013097807E+02 -0.71259649293E+02 -0.15545667161E+02  0.94451984062E+02  0.00000000000E+00 0. -1.
         22    1    3    3    0    0  0.27961627813E+02  0.38329612083E+01  0.46506919507E+02  0.54400714918E+02  0.00000000000E+00 0. -1.
</event>
<event>
 7    1  0.5127424E-006  0.6484808E+02  0.7818608E-02  0.1413525E+00
          2   -1    0    0  502    0  0.00000000000E+00  0.00000000000E+00  0.15824232156E+02  0.15824232156E+02  0.00000000000E+00 0. -1.
          1   -1    0    0  501    0 -0.00000000000E+00 -0.00000000000E+00 -0.13006732335E+04  0.13006732335E+04  0.00000000000E+00 0. -1.
         25    2    1    2    0    0 -0.55251797318E+01 -0.50142322364E+01 -0.43807376055E+03  0.45561997651E+03  0.12500109273E+03 0.  0.
          2    1    1    2  501    0 -0.28246132092E+02 -0.58373192241E+02 -0.61030625319E+03  0.61374179933E+03  0.00000000000E+00 0. -1.
          1    1    1    2  502    0  0.33771311824E+02  0.63387424477E+02 -0.23646898763E+03  0.24713568984E+03  0.00000000000E+00 0. -1.
         22    1    3    3    0    0  0.51856766762E+01  0.59285533758E+02 -0.22998953494E+03  0.23756441640E+03  0.00000000000E+00 0.  1.
         22    1    3    3    0    0 -0.10710856408E+02 -0.64299765994E+02 -0.20808422560E+03  0.21805556011E+03  0.00000000000E+00 0.  1.
</event>
<event>
 7    1  0.5127424E-006  0.7215892E+02  0.7818608E-02  0.1390158E+00
          2   -1    0    0  502    0  0.00000000000E+00  0.00000000000E+00  0.19032831088E+03  0.19032831088E+03  0.00000000000E+00 0. -1.
          1   -1    0    0  501    0 -0.00000000000E+00 -0.00000000000E+00 -0.35340808050E+03  0.35340808050E+03  0.00000000000E+00 0. -1.
         25    2    1    2    0    0  0.42988991738E+01 -0.10659401328E+03 -0.11733325400E+03  0.20192273330E+03  0.12499973411E+03 0.  0.
          2    1    1    2  501    0 -0.32741585854E+02  0.41732686210E+02 -0.18128543048E+03  0.18888630402E+03  0.00000000000E+00 0. -1.
          1    1    1    2  502    0  0.28442686680E+02  0.64861327073E+02  0.13553891487E+03  0.15292735406E+03  0.00000000000E+00 0. -1.
         22    1    3    3    0    0 -0.31147617553E+02 -0.12130302172E+03 -0.97546972386E+02  0.15874510695E+03  0.00000000000E+00 0.  1.
         22    1    3    3    0    0  0.35446516726E+02  0.14709008442E+02 -0.19786281614E+02  0.43177626353E+02  0.00000000000E+00 0.  1.
</event>
<event>
 7    1  0.5127424E-006  0.1162487E+03  0.7818608E-02  0.1427465E+00
          2   -1    0    0  502    0  0.00000000000E+00  0.00000000000E+00  0.57263951438E+02  0.57263951438E+02  0.00000000000E+00 0. -1.
          1   -1    0    0  501    0 -0.00000000000E+00 -0.00000000000E+00 -0.59648554547E+03  0.59648554547E+03  0.00000000000E+00 0. -1.
         25    2    1    2    0    0  0.10947255552E+03  0.17515417052E+00 -0.37775519526E+03  0.41268614193E+03  0.12500637227E+03 0.  0.
          2    1    1    2  501    0  0.63849251175E+01 -0.23753152282E+02 -0.10895082578E+03  0.11169271216E+03  0.00000000000E+00 0. -1.
          1    1    1    2  502    0 -0.11585748064E+03  0.23577998112E+02 -0.52515572999E+02  0.12937064282E+03  0.00000000000E+00 0. -1.
         22    1    3    3    0    0  0.68668375523E+02  0.21277261042E+01 -0.56798059516E+02  0.89139736258E+02  0.00000000000E+00 0. -1.
         22    1    3    3    0    0  0.40804179998E+02 -0.19525719337E+01 -0.32095713574E+03  0.32354640568E+03  0.00000000000E+00 0. -1.
</event>
<event>
 7    1  0.5127424E-006  0.1537911E+03  0.7818608E-02  0.1226594E+00
          2   -1    0    0  502    0  0.00000000000E+00  0.00000000000E+00  0.13381905398E+04  0.13381905398E+04  0.00000000000E+00 0. -1.
          1   -1    0    0  501    0 -0.00000000000E+00 -0.00000000000E+00 -0.11565076129E+03  0.11565076129E+03  0.00000000000E+00 0. -1.
         25    2    1    2    0    0  0.12762847688E+03  0.13997512053E+03  0.95855371100E+02  0.24636457116E+03  0.12500074911E+03 0.  0.
          2    1    1    2  501    0 -0.16756432936E+02 -0.13905660404E+03  0.93599194358E+02  0.16845867849E+03  0.00000000000E+00 0. -1.
          1    1    1    2  502    0 -0.11087204395E+03 -0.91851648683E+00  0.10330852130E+04  0.10390180514E+04  0.00000000000E+00 0. -1.
         22    1    3    3    0    0  0.28138134482E+02  0.10424403279E+03  0.89872082418E+02  0.14048332351E+03  0.00000000000E+00 0.  1.
         22    1    3    3    0    0  0.99490342400E+02  0.35731087735E+02  0.59832886816E+01  0.10588124766E+03  0.00000000000E+00 0.  1.
</event>
<event>
 7    1  0.5127424E-006  0.9722139E+02  0.7818608E-02  0.1345208E+00
          2   -1    0    0  502    0  0.00000000000E+00  0.00000000000E+00  0.70022474092E+03  0.70022474092E+03  0.00000000000E+00 0. -1.
          1   -1    0    0  501    0 -0.00000000000E+00 -0.00000000000E+00 -0.13798759629E+04  0.13798759629E+04  0.00000000000E+00 0. -1.
         25    2    1    2    0    0 -0.13371808338E+03 -0.75088184729E+02  0.75087953780E+02  0.21161823047E+03  0.12500125342E+03 0.  0.
          2    1    1    2  501    0  0.81541223516E+02  0.51658859947E+02 -0.13083595055E+04  0.13119154716E+04  0.00000000000E+00 0. -1.
          1    1    1    2  502    0  0.52176859865E+02  0.23429324783E+02  0.55362032973E+03  0.55656700177E+03  0.00000000000E+00 0. -1.
         22    1    3    3    0    0 -0.44356566112E+01  0.12835267978E+02 -0.23243363934E+02  0.26919753354E+02  0.00000000000E+00 0.  1.
         22    1    3    3    0    0 -0.12928242677E+03 -0.87923452707E+02  0.98331317714E+02  0.18469847712E+03  0.00000000000E+00 0.  1.
</event>
<event>
 7    1  0.5127424E-006  0.1359534E+03  0.7818608E-02  0.1252391E+00
          2   -1    0    0  502    0  0.00000000000E+00  0.00000000000E+00  0.52583272102E+02  0.52583272102E+02  0.00000000000E+00 0. -1.
          1   -1    0    0  501    0 -0.00000000000E+00 -0.00000000000E+00 -0.25125508172E+04  0.25125508172E+04  0.00000000000E+00 0. -1.
         25    2    1    2    0    0 -0.32631341940E+02 -0.10767908101E+03 -0.17405612930E+03  0.24203298835E+03  0.12499936936E+03 0.  0.
          2    1    1    2  501    0 -0.26285622867E+01 -0.96458683872E+02 -0.16797181261E+04  0.16824874948E+04  0.00000000000E+00 0. -1.
          1    1    1    2  502    0  0.35259904226E+02  0.20413776488E+03 -0.60619328965E+03  0.64061360609E+03  0.00000000000E+00 0. -1.
         22    1    3    3    0    0 -0.48482915244E+02 -0.88611562163E+02 -0.44934155063E+02  0.11055170876E+03  0.00000000000E+00 0.  1.
         22    1    3    3    0    0  0.15851573304E+02 -0.19067518848E+02 -0.12912197424E+03  0.13148127959E+03  0.00000000000E+00 0.  1.
</event>
<event>
 7    1  0.5127424E-006  0.7844577E+02  0.7818608E-02  0.1373841E+00
          2   -1    0    0  502    0  0.00000000000E+00  0.00000000000E+00  0.16921290739E+04  0.16921290739E+04  0.00000000000E+00 0. -1.
          1   -1    0    0  501    0 -0.00000000000E+00 -0.00000000000E+00 -0.27467495658E+03  0.27467495658E+03  0.00000000000E+00 0. -1.
         25    2    1    2    0    0 -0.96956012724E+02  0.85818718444E+02  0.44051692263E+01  0.18002359719E+03  0.12499507666E+03 0.  0.
          2    1    1    2  501    0  0.51383089487E+02 -0.53767130524E+02 -0.17895921170E+03  0.19379764101E+03  0.00000000000E+00 0. -1.
          1    1    1    2  502    0  0.45572923237E+02 -0.32051587920E+02  0.15920081598E+04  0.15929827923E+04  0.00000000000E+00 0. -1.
         22    1    3    3    0    0 -0.99545655942E+02  0.93202190862E+01  0.19865589301E+02  0.10193549793E+03  0.00000000000E+00 0.  1.
         22    1    3    3    0    0  0.25896432179E+01  0.76498499358E+02 -0.15460420075E+02  0.78088099253E+02  0.00000000000E+00 0.  1.
</event>
<event>
 7    1  0.5127424E-006  0.8265758E+02  0.7818608E-02  0.1353092E+00
          2   -1    0    0  502    0  0.00000000000E+00  0.00000000000E+00  0.86205954662E+03  0.86205954662E+03  0.00000000000E+00 0. -1.
          1   -1    0    0  501    0 -0.00000000000E+00 -0.00000000000E+00 -0.61484778457E+02  0.61484778457E+02  0.00000000000E+00 0. -1.
         25    2    1    2    0    0  0.66366129838E+02 -0.39670707932E+01  0.27724701195E+03  0.31130043319E+03  0.12498741229E+03 0.  0.
          2    1    1    2  501    0  0.14217800880E+01  0.62876009172E+02 -0.16480830339E+02  0.65015627019E+02  0.00000000000E+00 0. -1.
          1    1    1    2  502    0 -0.67787909926E+02 -0.58908938378E+02  0.53980858655E+03  0.54722826487E+03  0.00000000000E+00 0. -1.
         22    1    3    3    0    0 -0.68784262590E+01 -0.42033280376E+02  0.34216460085E+02  0.54634014567E+02  0.00000000000E+00 0. -1.
         22    1    3    3    0    0  0.73244556097E+02  0.38066209583E+02  0.24303055187E+03  0.25666641863E+03  0.00000000000E+00 0. -1.
</event>
<event>
 7    1  0.5127424E-006  0.9875811E+02  0.7818608E-02  0.1363257E+00
          2   -1    0    0  502    0  0.00000000000E+00  0.00000000000E+00  0.11794260740E+04  0.11794260740E+04  0.00000000000E+00 0. -1.
          1   -1    0    0  501    0 -0.00000000000E+00 -0.00000000000E+00 -0.14132976273E+03  0.14132976273E+03  0.00000000000E+00 0. -1.
         25    2    1    2    0    0 -0.56188088829E+02 -0.39859578509E+02  0.47459609940E+03  0.49559203583E+03  0.12499648431E+03 0.  0.
          2    1    1    2  501    0  0.98756871769E+02  0.17001097153E+02 -0.11065080583E+03  0.14928348153E+03  0.00000000000E+00 0. -1.
          1    1    1    2  502    0 -0.42568782940E+02  0.22858481356E+02  0.67415101772E+03  0.67588031940E+03  0.00000000000E+00 0. -1.
         22    1    3    3    0    0 -0.46781947406E+02 -0.39545204305E+02  0.48056109806E+03  0.48444952550E+03  0.00000000000E+00 0. -1.
         22    1    3    3    0    0 -0.94061414238E+01 -0.31437420354E+00 -0.59649986577E+01  0.11142510337E+02  0.00000000000E+00 0. -1.
</event>
<event>
 7    1  0.5127424E-006  0.1423098E+03  0.7818608E-02  0.1292316E+00
          2   -1    0    0  502    0  0.00000000000E+00  0.00000000000E+00  0.59302587538E+03  0.59302587538E+03  0.00000000000E+00 0. -1.
          1   -1    0    0  501    0 -0.00000000000E+00 -0.00000000000E+00 -0.70974727026E+03  0.70974727026E+03  0.00000000000E+00 0. -1.
         25    2    1    2    0    0  0.17387753109E+03 -0.65598577502E+02 -0.32755741527E+03  0.39680577015E+03  0.12499755891E+03 0.  0.
          2    1    1    2  501    0 -0.12530851662E+03  0.25872598331E+02 -0.33392758917E+03  0.35760208402E+03  0.00000000000E+00 0. -1.
          1    1    1    2  502    0 -0.48569014474E+02  0.39725979172E+02  0.54476360957E+03  0.54836529148E+03  0.00000000000E+00 0. -1.
         22    1    3    3    0    0  0.17397452383E+03 -0.51358555011E+02 -0.33483465728E+03  0.38081371276E+03  0.00000000000E+00 0.  1.
         22    1    3    3    0    0 -0.96992735622E-01 -0.14240022492E+02  0.72772420067E+01  0.15992057384E+02  0.00000000000E+00 0.  1.
</event>
<event>
 7    1  0.5127424E-006  0.6911495E+02  0.7818608E-02  0.1468263E+00
          2   -1    0    0  502    0  0.00000000000E+00  0.00000000000E+00  0.69892339448E+03  0.69892339448E+03  0.00000000000E+00 0. -1.
          1   -1    0    0  501    0 -0.00000000000E+00 -0.00000000000E+00 -0.82781651047E+03  0.82781651047E+03  0.00000000000E+00 0. -1.
         25    2    1    2    0    0  0.66416081176E+02  0.64684526169E+02 -0.33861952355E+03  0.37266981870E+03  0.12499771308E+03 0.  0.
          2    1    1    2  501    0 -0.29993035045E+02 -0.60666521044E+01 -0.46992681979E+03  0.47092207675E+03  0.00000000000E+00 0. -1.
          1    1    1    2  502    0 -0.36423046131E+02 -0.58617874064E+02  0.67965322734E+03  0.68314800950E+03  0.00000000000E+00 0. -1.
         22    1    3    3    0    0  0.23383695124E+02 -0.24356002609E+02 -0.20424406881E+02  0.39460973850E+02  0.00000000000E+00 0. -1.
         22    1    3    3    0    0  0.43032386051E+02  0.89040528778E+02 -0.31819511667E+03  0.33320884485E+03  0.00000000000E+00 0. -1.
</event>
<event>
 7    1  0.5127424E-006  0.9182826E+02  0.7818608E-02  0.1399710E+00
          2   -1    0    0  502    0  0.00000000000E+00  0.00000000000E+00  0.13616431049E+04  0.13616431049E+04  0.00000000000E+00 0. -1.
          1   -1    0    0  501    0 -0.00000000000E+00 -0.00000000000E+00 -0.50204703438E+03  0.50204703438E+03  0.00000000000E+00 0. -1.
         25    2    1    2    0    0 -0.55473432936E+02  0.11037920336E+03  0.22299058654E+03  0.28391717299E+03  0.12499315637E+03 0.  0.
          2    1    1    2  501    0  0.11077226553E+01 -0.38607963601E+02 -0.46895967609E+03  0.47054753182E+03  0.00000000000E+00 0. -1.
          1    1    1    2  502    0  0.54365710280E+02 -0.71771239756E+02  0.11055651601E+04  0.11092254345E+04  0.00000000000E+00 0. -1.
         22    1    3    3    0    0 -0.49191882906E+02  0.19394212520E+02  0.12233986796E+02  0.54273817408E+02  0.00000000000E+00 0. -1.
         22    1    3    3    0    0 -0.62815500292E+01  0.90984990837E+02  0.21075659974E+03  0.22964335559E+03  0.00000000000E+00 0. -1.
</event>
<event>
 7    1  0.5127424E-006  0.1996366E+03  0.7818608E-02  0.1220420E+00
          2   -1    0    0  502    0  0.00000000000E+00  0.00000000000E+00  0.32825345154E+03  0.32825345154E+03  0.00000000000E+00 0. -1.
          1   -1    0    0  501    0 -0.00000000000E+00 -0.00000000000E+00 -0.13605979425E+04  0.13605979425E+04  0.00000000000E+00 0. -1.
         25    2    1    2    0    0  0.76782001665E+02  0.19924012954E+03 -0.29782342400E+03  0.38718362055E+03  0.12498103513E+03 0.  0.
          2    1    1    2  501    0 -0.14463531576E+03 -0.13845367027E+03 -0.10005948116E+04  0.10204306788E+04  0.00000000000E+00 0. -1.
          1    1    1    2  502    0  0.67853314095E+02 -0.60786459271E+02  0.26607374458E+03  0.28123709467E+03  0.00000000000E+00 0. -1.
         22    1    3    3    0    0  0.75690567600E+02  0.18478161898E+03 -0.30966430062E+03  0.36846341449E+03  0.00000000000E+00 0. -1.
         22    1    3    3    0    0  0.10914340649E+01  0.14458510562E+02  0.11840876622E+02  0.18720206066E+02  0.00000000000E+00 0. -1.
</event>
<event>
 7    1  0.5127424E-006  0.6905962E+02  0.7818608E-02  0.1418057E+00
          2   -1    0    0  502    0  0.00000000000E+00  0.00000000000E+00  0.13292146906E+04  0.13292146906E+04  0.00000000000E+00 0. -1.
          1   -1    0    0  501    0 -0.00000000000E+00 -0.00000000000E+00 -0.85919944363E+02  0.85919944363E+02  0.00000000000E+00 0. -1.
         25    2    1    2    0    0 -0.74163368988E+02  0.23322078948E+02  0.81503516834E+03  0.82822259773E+03  0.12500488432E+03 0.  0.
          2    1    1    2  501    0  0.42478516516E+02 -0.54564034328E+02 -0.63057742942E+02  0.93583850917E+02  0.00000000000E+00 0. -1.
          1    1    1    2  502    0  0.31684852472E+02  0.31241955380E+02  0.49131732087E+03  0.49332818634E+03  0.00000000000E+00 0. -1.
         22    1    3    3    0    0 -0.95441697099E+02  0.54162681284E+02  0.60671575591E+03  0.61656039612E+03  0.00000000000E+00 0.  1.
         22    1    3    3    0    0  0.21278328111E+02 -0.30840602336E+02  0.20831941243E+03  0.21166220162E+03  0.00000000000E+00 0.  1.
</event>
<event>
 7    1  0.5127424E-006  0.1555870E+03  0.7818608E-02  0.1319344E+00
          2   -1    0    0  502    0  0.00000000000E+00  0.00000000000E+00  0.17546281019E+04  0.17546281019E+04  0.00000000000E+00 0. -1.
          1   -1    0    0  501    0 -0.00000000000E+00 -0.00000000000E+00 -0.11052707345E+04  0.11052707345E+04  0.00000000000E+00 0. -1.
         25    2    1    2    0    0  0.14053076151E+03 -0.32947107406E+02  0.17526200075E+03  0.25918330602E+03  0.12499924158E+03 0.  0.
          2    1    1    2  501    0 -0.13543541034E+03  0.77492588407E+02 -0.10572556590E+04  0.10687082765E+04  0.00000000000E+00 0. -1.
          1    1    1    2  502    0 -0.50953511604E+01 -0.44545481001E+02  0.15313510257E+04  0.15320072540E+04  0.00000000000E+00 0. -1.
         22    1    3    3    0    0  0.70158803320E+02  0.29798313552E+01  0.16523455469E+03  0.17953716925E+03  0.00000000000E+00 0.  1.
         22    1    3    3    0    0  0.70371958186E+02 -0.35926938761E+02  0.10027446058E+02  0.79646136768E+02  0.00000000000E+00 0.  1.
</event>
<event>
 7    1  0.5127424E-006  0.1867901E+03  0.7818608E-02  0.1334001E+00
          2   -1    0    0  502    0  0.00000000000E+00  0.00000000000E+00  0.18498935694E+04  0.18498935694E+04  0.00000000000E+00 0. -1.
          1   -1    0    0  501    0 -0.00000000000E+00 -0.00000000000E+00 -0.10701402839E+04  0.10701402839E+04  0.00000000000E+00 0. -1.
         25    2    1    2    0    0 -0.97037343182E+02  0.12908688950E+03  0.10369837218E+03  0.22903559287E+03  0.12499711755E+03 0.  0.
          2    1    1    2  501    0  0.95949551003E+02 -0.16187545647E+03 -0.99852276660E+03  0.10160992546E+04  0.00000000000E+00 0. -1.
          1    1    1    2  502    0  0.10877921795E+01  0.32788566971E+02  0.16745776799E+04  0.16748990058E+04  0.00000000000E+00 0. -1.
         22    1    3    3    0    0 -0.62414004775E+02  0.27357265044E+02  0.10062797588E+03  0.12153154929E+03  0.00000000000E+00 0.  1.
         22    1    3    3    0    0 -0.34623338407E+02  0.10172962446E+03  0.30703963076E+01  0.10750404359E+03  0.00000000000E+00 0.  1.
</event>
<event>
 7    1  0.5127424E-006  0.1159169E+03  0.7818608E-02  0.1326573E+00
          2   -1    0    0  502    0  0.00000000000E+00  0.00000000000E+00  0.25575015565E+04  0.25575015565E+04  0.00000000000E+00 0. -1.
          1   -1    0    0  501    0 -0.00000000000E+00 -0.00000000000E+00 -0.12525685463E+03  0.12525685463E+03  0.00000000000E+00 0. -1.
         25    2    1    2    0    0 -0.11202399145E+03 -0.89173037377E+02  0.46440931505E+02  0.19566187426E+03  0.12500241463E+03 0.  0.
          2    1    1    2  501    0  0.55596972144E+02  0.90013190576E+02  0.53079815165E+01  0.10593192369E+03  0.00000000000E+00 0. -1.
          1    1    1    2  502    0  0.56427019308E+02 -0.84015319921E+00  0.23804957888E+04  0.23811646131E+04  0.00000000000E+00 0. -1.
         22    1    3    3    0    0  0.52191191717E+01 -0.71242623501E+02  0.15754349108E+02  0.73150188817E+02  0.00000000000E+00 0. -1.
         22    1    3    3    0    0 -0.11724311062E+03 -0.17930413876E+02  0.30686582397E+02  0.12251168544E+03  0.00000000000E+00 0. -1.
</event>
<event>
 7    1  0.5127424E-006  0.1289835E+03  0.7818608E-02  0.1355013E+00
          2   -1    0    0  502    0  0.00000000000E+00  0.00000000000E+00  0.16078112439E+04  0.16078112439E+04  0.00000000000E+00 0. -1.
          1   -1    0    0  501    0 -0.00000000000E+00 -0.00000000000E+00 -0.11156327756E+04  0.11156327756E+04  0.00000000000E+00 0. -1.
         25    2    1    2    0    0  0.78245646988E+02  0.86545687871E+02  0.30075573754E+03  0.34597567636E+03  0.12503046674E+03 0.  0.
          2    1    1    2  501    0 -0.53552569832E+02 -0.11757092257E+03 -0.10888972137E+04  0.10965345145E+04  0.00000000000E+00 0. -1.
          1    1    1    2  502    0 -0.24693077155E+02  0.31025234702E+02  0.12803199444E+04  0.12809338287E+04  0.00000000000E+00 0. -1.
         22    1    3    3    0    0 -0.74132482614E+01 -0.25420312036E+02  0.25716361335E+02  0.36911783404E+02  0.00000000000E+00 0. -1.
         22    1    3    3    0    0  0.85658895249E+02  0.11196599991E+03  0.27503937620E+03  0.30906389296E+03  0.00000000000E+00 0. -1.
</event>
<event>
 7    1  0.5127424E-006  0.9340306E+02  0.7818608E-02  0.1434224E+00
          2   -1    0    0  502    0  0.00000000000E+00  0.00000000000E+00  0.22093122551E+04  0.22093122551E+04  0.00000000000E+00 0. -1.
          1   -1    0    0  501    0 -0.00000000000E+00 -0.00000000000E+00 -0.25725823863E+03  0.25725823863E+03  0.00000000000E+00 0. -1.
         25    2    1    2    0    0 -0.10522961935E+03 -0.38117728049E+02  0.89264571696E+03  0.90827704246E+03  0.12499830346E+03 0.  0.
          2    1    1    2  501    0  0.92476827989E+02  0.11977472566E+02 -0.24055936828E+03  0.25800045200E+03  0.00000000000E+00 0. -1.
          1    1    1    2  502    0  0.12752791361E+02  0.26140255483E+02  0.12999676678E+04  0.13002929993E+04  0.00000000000E+00 0. -1.
         22    1    3    3    0    0 -0.18708897659E+02  0.41225499048E+02  0.36081216630E+03  0.36364128474E+03  0.00000000000E+00 0. -1.
         22    1    3    3    0    0 -0.86520721691E+02 -0.79343227097E+02  0.53183355067E+03  0.54463575772E+03  0.00000000000E+00 0. -1.
</event>
<event>
 7    1  0.5127424E-006  0.1471398E+03  0.7818608E-02  0.1294709E+00
          2   -1    0    0  502    0  0.00000000000E+00  0.00000000000E+00  0.76577917662E+03  0.76577917662E+03  0.00000000000E+00 0. -1.
          1   -1    0    0  501    0 -0.00000000000E+00 -0.00000000000E+00 -0.84677301546E+02  0.84677301546E+02  0.00000000000E+00 0. -1.
         25    2    1    2    0    0 -0.46488167205E+02 -0.12803366235E+03  0.14241010059E+03  0.23336642128E+03  0.12500192578E+03 0.  0.
          2    1    1    2  501    0  0.10562502482E+03  0.12301485831E+03  0.14063576846E+03  0.21463392231E+03  0.00000000000E+00 0. -1.
          1    1    1    2  502    0 -0.59136857617E+02  0.50188040371E+01  0.39805600602E+03  0.40245613457E+03  0.00000000000E+00 0. -1.
         22    1    3    3    0    0  0.49369391494E+01  0.23737254258E+02  0.24028413135E+02  0.34134956360E+02  0.00000000000E+00 0.  1.
         22    1    3    3    0    0 -0.51425106354E+02 -0.15177091661E+03  0.11838168745E+03  0.19923146492E+03  0.00000000000E+00 0.  1.
</event>
<event>
 7    1  0.5127424E-006  0.1775510E+03  0.7818608E-02  0.1340073E+00
          2   -1    0    0  502    0  0.00000000000E+00  0.00000000000E+00  0.16054798450E+04  0.16054798450E+04  0.00000000000E+00 0. -1.
          1   -1    0    0  501    0 -0.00000000000E+00 -0.00000000000E+00 -0.28985307011E+03  0.28985307011E+03  0.00000000000E+00 0. -1.
         25    2    1    2    0    0  0.55004830838E+02 -0.19138873613E+03  0.69703095923E+03  0.73561360139E+03  0.12498012922E+03 0.  0.
          2    1    1    2  501    0  0.21705142604E+01  0.32665498696E+02 -0.26152949480E+03  0.26357052678E+03  0.00000000000E+00 0. -1.
          1    1    1    2  502    0 -0.57175345099E+02  0.15872323743E+03  0.88012531048E+03  0.89614878694E+03  0.00000000000E+00 0. -1.
         22    1    3    3    0    0  0.72026495157E+02 -0.17736127613E+03  0.46963971220E+03  0.50715510207E+03  0.00000000000E+00 0. -1.
         22    1    3    3    0    0 -0.17021664319E+02 -0.14027459996E+02  0.22739124703E+03  0.22845849933E+03  0.00000000000E+00 0. -1.
</event>
<event>
 7    1  0.6003629E-006  0.4537203E+02  0.7818608E-02  0.1486694E+00
          2   -1    0    0  502    0  0.00000000000E+00  0.00000000000E+00  0.12625803709E+04  0.12625803709E+04  0.00000000000E+00 0. -1.
          1   -1    0    0  501    0 -0.00000000000E+00 -0.00000000000E+00 -0.40872110713E+03  0.40872110713E+03  0.00000000000E+00 0. -1.
         25    2    1    2    0    0  0.29290687916E+02 -0.34195292947E+02 -0.11779119754E+03  0.17755859361E+03  0.12500010195E+03 0.  0.
          2    1    1    2  501    0 -0.46488696088E+02 -0.29180193079E+01 -0.25862569566E+03  0.26278691778E+03  0.00000000000E+00 0. -1.
          1    1    1    2  502    0  0.17198008173E+02  0.37113312255E+02  0.12302761569E+04  0.12309559666E+04  0.00000000000E+00 0. -1.
         22    1    3    3    0    0  0.12195101689E+02 -0.42287445143E+01  0.26352453605E+02  0.29343731807E+02  0.00000000000E+00 0. -1.
         22    1    3    3    0    0  0.17095586227E+02 -0.29966548432E+02 -0.14414365114E+03  0.14821486180E+03  0.00000000000E+00 0. -1.
</event>
<event>
 7    1  0.5127424E-006  0.1493118E+03  0.7818608E-02  0.1298232E+00
          2   -1    0    0  502    0  0.00000000000E+00  0.00000000000E+00  0.14507742179E+04  0.14507742179E+04  0.00000000000E+00 0. -1.
          1   -1    0    0  501    0 -0.00000000000E+00 -0.00000000000E+00 -0.14786859091E+03  0.14786859091E+03  0.00000000000E+00 0. -1.
         25    2    1    2    0    0 -0.32092489628E+02  0.15014160369E+03  0.49628573815E+03  0.53431931266E+03  0.12500065979E+03 0.  0.
          2    1    1    2  501    0  0.56584101720E+02 -0.16078250380E+01 -0.11622691416E+03  0.12927892807E+03  0.00000000000E+00 0. -1.
          1    1    1    2  502    0 -0.24491612092E+02 -0.14853377865E+03  0.92284680302E+03  0.93504456809E+03  0.00000000000E+00 0. -1.
         22    1    3    3    0    0  0.24005803543E+02  0.80825462295E+02  0.37149135032E+03  0.38093944050E+03  0.00000000000E+00 0. -1.
         22    1    3    3    0    0 -0.56098293171E+02  0.69316141395E+02  0.12479438782E+03  0.15337987217E+03  0.00000000000E+00 0. -1.
</event>
<event>
 7    1  0.5127424E-006  0.4534997E+02  0.7818608E-02  0.1596705E+00
          2   -1    0    0  502    0  0.00000000000E+00  0.00000000000E+00  0.37022365812E+02  0.37022365812E+02  0.00000000000E+00 0. -1.
          1   -1    0    0  501    0 -0.00000000000E+00 -0.00000000000E+00 -0.10519235436E+04  0.10519235436E+04  0.00000000000E+00 0. -1.
         25    2    1    2    0    0 -0.31657268995E+02 -0.42466630385E+02 -0.32648040170E+03  0.35358287422E+03  0.12500319544E+03 0.  0.
          2    1    1    2  501    0 -0.67434265387E+01  0.18841795535E+02 -0.68996059735E+03  0.69025076093E+03  0.00000000000E+00 0. -1.
          1    1    1    2  502    0  0.38400695533E+02  0.23624834850E+02  0.15398212737E+01  0.45112274258E+02  0.00000000000E+00 0. -1.
         22    1    3    3    0    0  0.40649116925E+02 -0.12145598519E+02 -0.20245420987E+03  0.20685157327E+03  0.00000000000E+00 0.  1.
         22    1    3    3    0    0 -0.72306385919E+02 -0.30321031866E+02 -0.12402619183E+03  0.14673130095E+03  0.00000000000E+00 0.  1.
</event>
<event>
 7    1  0.5127424E-006  0.5527901E+02  0.7818608E-02  0.1442198E+00
          2   -1    0    0  502    0  0.00000000000E+00  0.00000000000E+00  0.57211491641E+03  0.57211491641E+03  0.00000000000E+00 0. -1.
          1   -1    0    0  501    0 -0.00000000000E+00 -0.00000000000E+00 -0.10499851763E+04  0.10499851763E+04  0.00000000000E+00 0. -1.
         25    2    1    2    0    0  0.85731189825E+02  0.33290140334E+02 -0.17601748886E+02  0.15618753036E+03  0.12500661073E+03 0.  0.
          2    1    1    2  501    0 -0.30977930557E+02 -0.34402325453E+02 -0.96104053526E+03  0.96215490572E+03  0.00000000000E+00 0. -1.
          1    1    1    2  502    0 -0.54753259268E+02  0.11121851193E+01  0.50077202425E+03  0.50375765664E+03  0.00000000000E+00 0. -1.
         22    1    3    3    0    0  0.44537231991E+02  0.74703721787E+02  0.16536643964E+02  0.88530625638E+02  0.00000000000E+00 0. -1.
         22    1    3    3    0    0  0.41193957834E+02 -0.41413581453E+02 -0.34138392850E+02  0.67656904727E+02  0.00000000000E+00 0. -1.
</event>
<event>
 7    1  0.5127424E-006  0.1627202E+03  0.7818608E-02  0.1263276E+00
          2   -1    0    0  502    0  0.00000000000E+00  0.00000000000E+00  0.50357363333E+02  0.50357363333E+02  0.00000000000E+00 0. -1.
          1   -1    0    0  501    0 -0.00000000000E+00 -0.00000000000E+00 -0.14582863011E+04  0.14582863011E+04  0.00000000000E+00 0. -1.
         25    2    1    2    0    0  0.69992196271E+02  0.88173833022E+02 -0.32721097632E+03  0.36792026305E+03  0.12499905827E+03 0.  0.
          2    1    1    2  501    0 -0.13112223602E+03 -0.12699487995E+03 -0.10434210890E+04  0.10592678175E+04  0.00000000000E+00 0. -1.
          1    1    1    2  502    0  0.61130039749E+02  0.38821046931E+02 -0.37296872447E+02  0.81455583841E+02  0.00000000000E+00 0. -1.
         22    1    3    3    0    0  0.32262592363E+02  0.20734544720E+01 -0.23157008544E+03  0.23381590739E+03  0.00000000000E+00 0. -1.
         22    1    3    3    0    0  0.37729603909E+02  0.86100378550E+02 -0.95640890883E+02  0.13410435566E+03  0.00000000000E+00 0. -1.
</event>
<event>
 7    1  0.5127424E-006  0.7622120E+02  0.7818608E-02  0.1426884E+00
          2   -1    0    0  502    0  0.00000000000E+00  0.00000000000E+00  0.30750548400E+03  0.30750548400E+03  0.00000000000E+00 0. -1.
          1   -1    0    0  501    0 -0.00000000000E+00 -0.00000000000E+00 -0.32478657226E+03  0.32478657226E+03  0.00000000000E+00 0. -1.
         25    2    1    2    0    0  0.27187464764E+02  0.29909932583E+02 -0.17435689723E+03  0.21831041823E+03  0.12500139515E+03 0.  0.
          2    1    1    2  501    0  0.32546823590E+02  0.18984905404E+02 -0.12030096603E+03  0.12606365371E+03  0.00000000000E+00 0. -1.
          1    1    1    2  502    0 -0.59734288355E+02 -0.48894837987E+02  0.27737677500E+03  0.28791798432E+03  0.00000000000E+00 0. -1.
         22    1    3    3    0    0 -0.33263692120E+02 -0.13153230100E+02 -0.12289231542E+03  0.12799219455E+03  0.00000000000E+00 0.  1.
         22    1    3    3    0    0  0.60451156884E+02  0.43063162683E+02 -0.51464581808E+02  0.90318223684E+02  0.00000000000E+00 0.  1.
</event>
<event>
 7    1  0.5127424E-006  0.1612964E+03  0.7818608E-02  0.1367723E+00
          2   -1    0    0  502    0  0.00000000000E+00  0.00000000000E+00  0.42256515631E+03  0.42256515631E+03  0.00000000000E+00 0. -1.
          1   -1    0    0  501    0 -0.00000000000E+00 -0.00000000000E+00 -0.77028518018E+03  0.77028518018E+03  0.00000000000E+00 0. -1.
         25    2    1    2    0    0  0.11104266864E+02 -0.14519682254E+03 -0.27578490944E+03  0.33598545322E+03  0.12499394578E+03 0.  0.
          2    1    1    2  501    0 -0.23172487283E+02 -0.16596886716E+02 -0.44715919421E+03  0.44806669792E+03  0.00000000000E+00 0. -1.
          1    1    1    2  502    0  0.12068220419E+02  0.16179370926E+03  0.37522407978E+03  0.40879818535E+03  0.00000000000E+00 0. -1.
         22    1    3    3    0    0 -0.31005567073E+02 -0.68744446370E+02 -0.21958745812E+03  0.23217621725E+03  0.00000000000E+00 0. -1.
         22    1    3    3    0    0  0.42109833936E+02 -0.76452376172E+02 -0.56197451320E+02  0.10380923596E+03  0.00000000000E+00 0. -1.
</event>
<event>
 7    1  0.5127424E-006  0.7038635E+02  0.7818608E-02  0.1518351E+00
          2   -1    0    0  502    0  0.00000000000E+00  0.00000000000E+00  0.69179570363E+03  0.69179570363E+03  0.00000000000E+00 0. -1.
          1   -1    0    0  501    0 -0.00000000000E+00 -0.00000000000E+00 -0.30729391253E+04  0.30729391253E+04  0.00000000000E+00 0. -1.
         25    2    1    2    0    0 -0.54866634275E+02  0.29533179770E+02  0.62084075503E+02  0.15285314168E+03  0.12500837662E+03 0.  0.
          2    1    1    2  501    0  0.49520645410E+02 -0.50077340727E+02 -0.30269520526E+04  0.30277712535E+04  0.00000000000E+00 0. -1.
          1    1    1    2  502    0  0.53459888653E+01  0.20544160958E+02  0.58372455549E+03  0.58411043376E+03  0.00000000000E+00 0. -1.
         22    1    3    3    0    0 -0.47149563278E+02  0.56156211846E+02  0.88248355028E+02  0.11473610422E+03  0.00000000000E+00 0.  1.
         22    1    3    3    0    0 -0.77170709973E+01 -0.26623032076E+02 -0.26164279525E+02  0.38117037460E+02  0.00000000000E+00 0.  1.
</event>
<event>
 7    1  0.5127424E-006  0.4114419E+02  0.7818608E-02  0.1501776E+00
          2   -1    0    0  502    0  0.00000000000E+00  0.00000000000E+00  0.33582082896E+03  0.33582082896E+03  0.00000000000E+00 0. -1.
          1   -1    0    0  501    0 -0.00000000000E+00 -0.00000000000E+00 -0.11843705786E+04  0.11843705786E+04  0.00000000000E+00 0. -1.
         25    2    1    2    0    0 -0.57566975179E+02  0.56307453312E+02  0.23013673376E+02  0.15046227602E+03  0.12499912565E+03 0.  0.
          2    1    1    2  501    0  0.24269971133E+02 -0.33018145863E+02 -0.11186114483E+04  0.11193617832E+04  0.00000000000E+00 0. -1.
          1    1    1    2  502    0  0.33297004046E+02 -0.23289307448E+02  0.24704802527E+03  0.25036734833E+03  0.00000000000E+00 0. -1.
         22    1    3    3    0    0 -0.78202766590E+02  0.68796180404E+02  0.48913549803E+02  0.11507007645E+03  0.00000000000E+00 0. -1.
         22    1    3    3    0    0  0.20635791411E+02 -0.12488727093E+02 -0.25899876427E+02  0.35392199571E+02  0.00000000000E+00 0. -1.
</event>
<event>
 7    1  0.5127424E-006  0.5439638E+02  0.7818608E-02  0.1459796E+00
          2   -1    0    0  502    0  0.00000000000E+00  0.00000000000E+00  0.52424634274E+03  0.52424634274E+03  0.00000000000E+00 0. -1.
          1   -1    0    0  501    0 -0.00000000000E+00 -0.00000000000E+00 -0.18344104206E+03  0.18344104206E+03  0.00000000000E+00 0. -1.
         25    2    1    2    0    0 -0.38540883357E+02 -0.13069159100E+02 -0.94358242957E+02  0.16181596643E+03  0.12499890547E+03 0.  0.
          2    1    1    2  501    0  0.37594434826E+02  0.54390549685E+02 -0.34372695238E+02  0.74519498139E+02  0.00000000000E+00 0. -1.
          1    1    1    2  502    0  0.94644853095E+00 -0.41321390585E+02  0.46953623888E+03  0.47135192023E+03  0.00000000000E+00 0. -1.
         22    1    3    3    0    0 -0.78085930761E+02  0.10188430440E+02 -0.83288713900E+02  0.11462210328E+03  0.00000000000E+00 0.  1.
         22    1    3    3    0    0  0.39545047404E+02 -0.23257589540E+02 -0.11069529058E+02  0.47193863149E+02  0.00000000000E+00 0.  1.
</event>
<event>
 7    1  0.5127424E-006  0.5920058E+02  0.7818608E-02  0.1413667E+00
          2   -1    0    0  502    0  0.00000000000E+00  0.00000000000E+00  0.14210753467E+03  0.14210753467E+03  0.00000000000E+00 0. -1.
          1   -1    0    0  501    0 -0.00000000000E+00 -0.00000000000E+00 -0.13257837547E+04  0.13257837547E+04  0.00000000000E+00 0. -1.
         25    2    1    2    0    0 -0.51457184837E+02 -0.52060644950E+01 -0.13505715358E+03  0.19115489598E+03  0.12499925818E+03 0.  0.
          2    1    1    2  501    0  0.12956146564E+02  0.52114112908E+02 -0.11539369407E+04  0.11551857884E+04  0.00000000000E+00 0. -1.
          1    1    1    2  502    0  0.38501038272E+02 -0.46908048413E+02  0.10531787424E+03  0.12155060505E+03  0.00000000000E+00 0. -1.
         22    1    3    3    0    0 -0.79624385430E+02  0.31024129704E+02 -0.10857599458E+03  0.13817121979E+03  0.00000000000E+00 0.  1.
         22    1    3    3    0    0  0.28167200593E+02 -0.36230194199E+02 -0.26481159003E+02  0.52983676194E+02  0.00000000000E+00 0.  1.
</event>
<event>
 7    1  0.5127424E-006  0.1010280E+03  0.7818608E-02  0.1301845E+00
          2   -1    0    0  502    0  0.00000000000E+00  0.00000000000E+00  0.15407298579E+04  0.15407298579E+04  0.00000000000E+00 0. -1.
          1   -1    0    0  501    0 -0.00000000000E+00 -0.00000000000E+00 -0.46938200631E+02  0.46938200631E+02  0.00000000000E+00 0. -1.
         25    2    1    2    0    0  0.64420072602E+02  0.19362417783E+02  0.68130417132E+03  0.69593473073E+03  0.12499970640E+03 0.  0.
          2    1    1    2  501    0 -0.90693611383E+02  0.57174136373E+02  0.39091582060E+02  0.11411557652E+03  0.00000000000E+00 0. -1.
          1    1    1    2  502    0  0.26273538782E+02 -0.76536554155E+02  0.77339590391E+03  0.77761775130E+03  0.00000000000E+00 0. -1.
         22    1    3    3    0    0  0.38010300303E+02  0.59824821686E+02  0.57266905839E+03  0.57703868385E+03  0.00000000000E+00 0. -1.
         22    1    3    3    0    0  0.26409772299E+02 -0.40462403903E+02  0.10863511292E+03  0.11889604687E+03  0.00000000000E+00 0. -1.
</event>
<event>
 7    1  0.5127424E-006  0.4792225E+02  0.7818608E-02  0.1479049E+00
          2   -1    0    0  502    0  0.00000000000E+00  0.00000000000E+00  0.23207565572E+04  0.23207565572E+04  0.00000000000E+00 0. -1.
          1   -1    0    0  501    0 -0.00000000000E+00 -0.00000000000E+00 -0.55782765045E+02  0.55782765045E+02  0.00000000000E+00 0. -1.
         25    2    1    2    0    0  0.58949118090E+02 -0.30577383367E+02  0.19616577040E+03  0.24189713680E+03  0.12499296146E+03 0.  0.
          2    1    1    2  501    0 -0.46705196088E+02 -0.84130301165E+01 -0.15507298390E+02  0.49926252820E+02  0.00000000000E+00 0. -1.
          1    1    1    2  502    0 -0.12243922003E+02  0.38990413484E+02  0.20843153202E+04  0.20847159327E+04  0.00000000000E+00 0. -1.
         22    1    3    3    0    0  0.47746822356E+02 -0.53940755826E+01  0.20683399846E+03  0.21234207783E+03  0.00000000000E+00 0. -1.
         22    1    3    3    0    0  0.11202295735E+02 -0.25183307785E+02 -0.10668228060E+02  0.29555058969E+02  0.00000000000E+00 0. -1.
</event>
<event>
 7    1  0.5127424E-006  0.8620032E+02  0.7818608E-02  0.1394321E+00
          2   -1    0    0  502    0  0.00000000000E+00  0.00000000000E+00  0.13680894078E+04  0.13680894078E+04  0.00000000000E+00 0. -1.
          1   -1    0    0  501    0 -0.00000000000E+00 -0.00000000000E+00 -0.17790773641E+03  0.17790773641E+03  0.00000000000E+00 0. -1.
         25    2    1    2    0    0 -0.11440517162E+03  0.44498070171E+02  0.17996574643E+03  0.25116004904E+03  0.12500031522E+03 0.  0.
          2    1    1    2  501    0  0.71457737524E+02 -0.44528342968E+02 -0.12941724731E+03  0.15439496585E+03  0.00000000000E+00 0. -1.
          1    1    1    2  502    0  0.42947434091E+02  0.30272796529E-01  0.11396331722E+04  0.11404421293E+04  0.00000000000E+00 0. -1.
         22    1    3    3    0    0 -0.48754525134E+02 -0.42826156572E+02  0.80640456719E+02  0.10350829275E+03  0.00000000000E+00 0. -1.
         22    1    3    3    0    0 -0.65650646481E+02  0.87324226743E+02  0.99325289707E+02  0.14765175629E+03  0.00000000000E+00 0. -1.
</event>
<event>
 7    1  0.5127424E-006  0.6796601E+02  0.7818608E-02  0.1452955E+00
          2   -1    0    0  502    0  0.00000000000E+00  0.00000000000E+00  0.53602770907E+03  0.53602770907E+03  0.00000000000E+00 0. -1.
          1   -1    0    0  501    0 -0.00000000000E+00 -0.00000000000E+00 -0.28018140232E+03  0.28018140232E+03  0.00000000000E+00 0. -1.
         25    2    1    2    0    0  0.25964519984E+02 -0.65068744175E+02  0.56198065536E+02  0.15392541374E+03  0.12500685044E+03 0.  0.
          2    1    1    2  501    0 -0.34670301055E+02 -0.26897143199E+01 -0.22727964979E+03  0.22992456055E+03  0.00000000000E+00 0. -1.
          1    1    1    2  502    0  0.87057810709E+01  0.67758458495E+02  0.42692789100E+03  0.43235913710E+03  0.00000000000E+00 0. -1.
         22    1    3    3    0    0  0.51719975849E+02  0.68061261752E+01 -0.97114127066E+01  0.53062140854E+02  0.00000000000E+00 0.  1.
         22    1    3    3    0    0 -0.25755455865E+02 -0.71874870350E+02  0.65909478243E+02  0.10086327288E+03  0.00000000000E+00 0.  1.
</event>
<event>
 7    1  0.5127424E-006  0.5210612E+02  0.7818608E-02  0.1436319E+00
          2   -1    0    0  502    0  0.00000000000E+00  0.00000000000E+00  0.86609916921E+03  0.86609916921E+03  0.00000000000E+00 0. -1.
          1   -1    0    0  501    0 -0.00000000000E+00 -0.00000000000E+00 -0.55292475318E+03  0.55292475318E+03  0.00000000000E+00 0. -1.
         25    2    1    2    0    0 -0.51498815397E+02  0.88256263588E+02  0.15570720957E+03  0.22430258838E+03  0.12500247993E+03 0.  0.
          2    1    1    2  501    0  0.31765476070E+02 -0.40880172813E+02 -0.51635683571E+03  0.51894567710E+03  0.00000000000E+00 0. -1.
          1    1    1    2  502    0  0.19733339327E+02 -0.47376090775E+02  0.67382404217E+03  0.67577565690E+03  0.00000000000E+00 0. -1.
         22    1    3    3    0    0 -0.61560552655E+02 -0.78671409188E+01  0.81565078360E+02  0.10249124625E+03  0.00000000000E+00 0. -1.
         22    1    3    3    0    0  0.10061737257E+02  0.96123404507E+02  0.74142131214E+02  0.12181134213E+03  0.00000000000E+00 0. -1.
</event>
<event>
 7    1  0.5127424E-006  0.8928858E+02  0.7818608E-02  0.1448334E+00
          2   -1    0    0  502    0  0.00000000000E+00  0.00000000000E+00  0.74247845416E+03  0.74247845416E+03  0.00000000000E+00 0. -1.
          1   -1    0    0  501    0 -0.00000000000E+00 -0.00000000000E+00 -0.32071137476E+02  0.32071137476E+02  0.00000000000E+00 0. -1.
         25    2    1    2    0    0  0.10461204532E+03 -0.36768161237E+02  0.46904397791E+03  0.49792048743E+03  0.12500792326E+03 0.  0.
          2    1    1    2  501    0 -0.81573629327E+02  0.21962252609E+02  0.92513891546E+02  0.12528135404E+03  0.00000000000E+00 0. -1.
          1    1    1    2  502    0 -0.23038415995E+02  0.14805908628E+02  0.14884944723E+03  0.15134775017E+03  0.00000000000E+00 0. -1.
         22    1    3    3    0    0  0.11567877107E+03 -0.60961425508E+02  0.43766890591E+03  0.45678435248E+03  0.00000000000E+00 0. -1.
         22    1    3    3    0    0 -0.11066725745E+02  0.24193264271E+02  0.31375072006E+02  0.41136134945E+02  0.00000000000E+00 0. -1.
</event>
<event>
 7    1  0.5127424E-006  0.3337661E+02  0.7818608E-02  0.1603638E+00
          2   -1    0    0  502    0  0.00000000000E+00  0.00000000000E+00  0.15232058148E+04  0.15232058148E+04  0.00000000000E+00 0. -1.
          1   -1    0    0  501    0 -0.00000000000E+00 -0.00000000000E+00 -0.12359720663E+03  0.12359720663E+03  0.00000000000E+00 0. -1.
         25    2    1    2    0    0  0.53551352765E+02 -0.14919759686E+02  0.45102477258E+03  0.47131631366E+03  0.12500150170E+03 0.  0.
          2    1    1    2  501    0 -0.27707238075E+02  0.18423393508E+02 -0.11084787784E+03  0.11573402478E+03  0.00000000000E+00 0. -1.
          1    1    1    2  502    0 -0.25844114690E+02 -0.35036338221E+01  0.10594317134E+04  0.10597526830E+04  0.00000000000E+00 0. -1.
         22    1    3    3    0    0 -0.30771473836E+02  0.14669784888E+02  0.50402316902E+02  0.60848005224E+02  0.00000000000E+00 0.  1.
         22    1    3    3    0    0  0.84322826601E+02 -0.29589544574E+02  0.40062245568E+03  0.41046830844E+03  0.00000000000E+00 0.  1.
</event>
<event>
 7    1  0.5127424E-006  0.3597833E+02  0.7818608E-02  0.1546724E+00
          2   -1    0    0  502    0  0.00000000000E+00  0.00000000000E+00  0.25218302810E+04  0.25218302810E+04  0.00000000000E+00 0. -1.
          1   -1    0    0  501    0 -0.00000000000E+00 -0.00000000000E+00 -0.61339339483E+02  0.61339339483E+02  0.00000000000E+00 0. -1.
         25    2    1    2    0    0  0.10615786648E+01 -0.42655257858E+02  0.39625398136E+03  0.41768756632E+03  0.12500034940E+03 0.  0.
          2    1    1    2  501    0  0.27517786542E+02  0.23396979947E+02 -0.44020733701E+02  0.56942710178E+02  0.00000000000E+00 0. -1.
          1    1    1    2  502    0 -0.28579365207E+02  0.19258277911E+02  0.21082576939E+04  0.21085393440E+04  0.00000000000E+00 0. -1.
         22    1    3    3    0    0  0.55380807518E+02 -0.14656743675E+01  0.10679292584E+03  0.12030756856E+03  0.00000000000E+00 0. -1.
         22    1    3    3    0    0 -0.54319228854E+02 -0.41189583491E+02  0.28946105552E+03  0.29737999777E+03  0.00000000000E+00 0. -1.
</event>
<event>
 7    1  0.5127424E-006  0.8110127E+02  0.7818608E-02  0.1362350E+00
          2   -1    0    0  502    0  0.00000000000E+00  0.00000000000E+00  0.11937440022E+04  0.11937440022E+04  0.00000000000E+00 0. -1.
          1   -1    0    0  501    0 -0.00000000000E+00 -0.00000000000E+00 -0.11793355419E+04  0.11793355419E+04  0.00000000000E+00 0. -1.
         25    2    1    2    0    0 -0.67479230144E+02  0.75439859313E+02 -0.65804271834E+01  0.16097505565E+03  0.12500019058E+03 0.  0.
          2    1    1    2  501    0  0.84223026560E+01 -0.80636293193E+02 -0.10932687440E+04  0.10962708122E+04  0.00000000000E+00 0. -1.
          1    1    1    2  502    0  0.59056927488E+02  0.51964338796E+01  0.11142576316E+04  0.11158336763E+04  0.00000000000E+00 0. -1.
         22    1    3    3    0    0 -0.78015185197E+01  0.89172242678E+02 -0.31454732183E+02  0.94878621049E+02  0.00000000000E+00 0.  1.
         22    1    3    3    0    0 -0.59677711624E+02 -0.13732383365E+02  0.24874305000E+02  0.66096434599E+02  0.00000000000E+00 0.  1.
</event>
<event>
 7    1  0.5127424E-006  0.9086579E+02  0.7818608E-02  0.1409524E+00
          2   -1    0    0  502    0  0.00000000000E+00  0.00000000000E+00  0.10019090915E+04  0.10019090915E+04  0.00000000000E+00 0. -1.
          1   -1    0    0  501    0 -0.00000000000E+00 -0.00000000000E+00 -0.44826254401E+03  0.44826254401E+03  0.00000000000E+00 0. -1.
         25    2    1    2    0    0  0.66180425171E+02 -0.33459146150E+02 -0.53446650303E+02  0.15485686152E+03  0.12499895997E+03 0.  0.
          2    1    1    2  501    0 -0.63723903573E+01 -0.35567164657E+02 -0.34096155540E+03  0.34287083985E+03  0.00000000000E+00 0. -1.
          1    1    1    2  502    0 -0.59808034814E+02  0.69026310807E+02  0.94805475321E+03  0.95244393415E+03  0.00000000000E+00 0. -1.
         22    1    3    3    0    0 -0.84335023431E+01 -0.35823710156E+02  0.26594556565E+02  0.45406305840E+02  0.00000000000E+00 0. -1.
         22    1    3    3    0    0  0.74613927514E+02  0.23645640056E+01 -0.80041206868E+02  0.10945055568E+03  0.00000000000E+00 0. -1.
</event>
<event>
 7    1  0.5127424E-006  0.1195385E+03  0.7818608E-02  0.1327626E+00
          2   -1    0    0  502    0  0.00000000000E+00  0.00000000000E+00  0.10708381998E+04  0.10708381998E+04  0.00000000000E+00 0. -1.
          1   -1    0    0  501    0 -0.00000000000E+00 -0.00000000000E+00 -0.30346522803E+03  0.30346522803E+03  0.00000000000E+00 0. -1.
         25    2    1    2    0    0 -0.16755106299E+03 -0.30132176604E+02  0.14273531609E+03  0.25491213419E+03  0.12500207566E+03 0.  0.
          2    1    1    2  501    0  0.11449344319E+03  0.18982481327E+02 -0.23286151635E+03  0.26017987802E+03  0.00000000000E+00 0. -1.
          1    1    1    2  502    0  0.53057619802E+02  0.11149695277E+02  0.85749917205E+03  0.85921141565E+03  0.00000000000E+00 0. -1.
         22    1    3    3    0    0 -0.17561335870E+02  0.40374330027E+02  0.42665475928E+02  0.61309296838E+02  0.00000000000E+00 0. -1.
         22    1    3    3    0    0 -0.14998972712E+03 -0.70506506631E+02  0.10006984016E+03  0.19360283735E+03  0.00000000000E+00 0. -1.
</event>
<event>
 7    1  0.5127424E-006  0.4740500E+02  0.7818608E-02  0.1538987E+00
          2   -1    0    0  502    0  0.00000000000E+00  0.00000000000E+00  0.24105614624E+03  0.24105614624E+03  0.00000000000E+00 0. -1.
          1   -1    0    0  501    0 -0.00000000000E+00 -0.00000000000E+00 -0.22629074254E+04  0.22629074254E+04  0.00000000000E+00 0. -1.
         25    2    1    2    0    0 -0.14626125332E+02 -0.31668104849E+02 -0.18039766362E+04  0.18086381853E+04  0.12499435583E+03 0.  0.
          2    1    1    2  501    0  0.67417101546E+01  0.58014835741E+02 -0.45393075089E+03  0.45767269793E+03  0.00000000000E+00 0. -1.
          1    1    1    2  502    0  0.78844151773E+01 -0.26346730892E+02  0.23605610791E+03  0.23765268842E+03  0.00000000000E+00 0. -1.
         22    1    3    3    0    0 -0.51504361279E+02 -0.52881713059E+02 -0.70838452551E+03  0.71222033865E+03  0.00000000000E+00 0. -1.
         22    1    3    3    0    0  0.36878235947E+02  0.21213608209E+02 -0.10955921107E+04  0.10964178467E+04  0.00000000000E+00 0. -1.
</event>
<event>
 7    1  0.5127424E-006  0.9913464E+02  0.7818608E-02  0.1447852E+00
          2   -1    0    0  502    0  0.00000000000E+00  0.00000000000E+00  0.19748146348E+04  0.19748146348E+04  0.00000000000E+00 0. -1.
          1   -1    0    0  501    0 -0.00000000000E+00 -0.00000000000E+00 -0.88167450673E+03  0.88167450673E+03  0.00000000000E+00 0. -1.
         25    2    1    2    0    0 -0.80625474970E+02  0.67348292438E+02  0.70287243613E+03  0.72158918074E+03  0.12500009833E+03 0.  0.
          2    1    1    2  501    0  0.88825661954E+02 -0.43992185072E+02 -0.86937827324E+03  0.87501079567E+03  0.00000000000E+00 0. -1.
          1    1    1    2  502    0 -0.82001869837E+01 -0.23356107366E+02  0.12596459652E+04  0.12598891651E+04  0.00000000000E+00 0. -1.
         22    1    3    3    0    0  0.26634390937E+02  0.12159984123E+02  0.28949374466E+03  0.29097058991E+03  0.00000000000E+00 0.  1.
         22    1    3    3    0    0 -0.10725986591E+03  0.55188308315E+02  0.41337869146E+03  0.43061859083E+03  0.00000000000E+00 0.  1.
</event>
<event>
 7    1  0.5127424E-006  0.1473999E+03  0.7818608E-02  0.1410725E+00
          2   -1    0    0  502    0  0.00000000000E+00  0.00000000000E+00  0.96068682622E+03  0.96068682622E+03  0.00000000000E+00 0. -1.
          1   -1    0    0  501    0 -0.00000000000E+00 -0.00000000000E+00 -0.63902088477E+03  0.63902088477E+03  0.00000000000E+00 0. -1.
         25    2    1    2    0    0 -0.33061726340E+00  0.12947842385E+03 -0.27719891476E+02  0.18209168657E+03  0.12499687350E+03 0.  0.
          2    1    1    2  501    0  0.94522637554E+01 -0.14957208096E+03 -0.52345964273E+03  0.54449164389E+03  0.00000000000E+00 0. -1.
          1    1    1    2  502    0 -0.91216464920E+01  0.20093657107E+02  0.87284547566E+03  0.87312438053E+03  0.00000000000E+00 0. -1.
         22    1    3    3    0    0 -0.31973012002E+02  0.11020557620E+02  0.31241117279E+02  0.46040564675E+02  0.00000000000E+00 0.  1.
         22    1    3    3    0    0  0.31642394739E+02  0.11845786623E+03 -0.58961008755E+02  0.13605112190E+03  0.00000000000E+00 0.  1.
</event>
<event>
 7    1  0.5127424E-006  0.1585769E+03  0.7818608E-02  0.1266115E+00
          2   -1    0    0  502    0  0.00000000000E+00  0.00000000000E+00  0.42746933101E+03  0.42746933101E+03  0.00000000000E+00 0. -1.
          1   -1    0    0  501    0 -0.00000000000E+00 -0.00000000000E+00 -0.14565905119E+04  0.14565905119E+04  0.00000000000E+00 0. -1.
         25    2    1    2    0    0 -0.15709263350E+03 -0.16242547953E+03 -0.64139310112E+03  0.69142632764E+03  0.12500049797E+03 0.  0.
          2    1    1    2  501    0  0.35591854970E+02  0.62907750876E+02 -0.77310825520E+03  0.77647958088E+03  0.00000000000E+00 0. -1.
          1    1    1    2  502    0  0.12150077853E+03  0.99517728655E+02  0.38538017543E+03  0.41615393440E+03  0.00000000000E+00 0. -1.
         22    1    3    3    0    0 -0.11298807329E+01  0.12652287627E+02 -0.58002398796E+01  0.13964232716E+02  0.00000000000E+00 0. -1.
         22    1    3    3    0    0 -0.15596275277E+03 -0.17507776716E+03 -0.63559286124E+03  0.67746209492E+03  0.00000000000E+00 0. -1.
</event>
<event>
 7    1  0.5127424E-006  0.7840817E+02  0.7818608E-02  0.1341391E+00
          2   -1    0    0  502    0  0.00000000000E+00  0.00000000000E+00  0.13455707044E+04  0.13455707044E+04  0.00000000000E+00 0. -1.
          1   -1    0    0  501    0 -0.00000000000E+00 -0.00000000000E+00 -0.65297862436E+03  0.65297862436E+03  0.00000000000E+00 0. -1.
         25    2    1    2    0    0  0.24007902175E+02  0.33890351323E+02  0.86656166239E+02  0.15766703443E+03  0.12499866927E+03 0.  0.
          2    1    1    2  501    0  0.55430208203E+02 -0.47949578669E+02 -0.61396134866E+03  0.61832047332E+03  0.00000000000E+00 0. -1.
          1    1    1    2  502    0 -0.79438110377E+02  0.14059227346E+02  0.12198972625E+04  0.12225618211E+04  0.00000000000E+00 0. -1.
         22    1    3    3    0    0 -0.36515655208E+01 -0.43560914596E+02  0.53262059234E+02  0.68903803706E+02  0.00000000000E+00 0.  1.
         22    1    3    3    0    0  0.27659467696E+02  0.77451265920E+02  0.33394107004E+02  0.88763230723E+02  0.00000000000E+00 0.  1.
</event>
<event>
 7    1  0.5127424E-006  0.9505424E+02  0.7818608E-02  0.1373697E+00
          2   -1    0    0  502    0  0.00000000000E+00  0.00000000000E+00  0.18345667528E+04  0.18345667528E+04  0.00000000000E+00 0. -1.
          1   -1    0    0  501    0 -0.00000000000E+00 -0.00000000000E+00 -0.14692526115E+03  0.14692526115E+03  0.00000000000E+00 0. -1.
         25    2    1    2    0    0 -0.10001631563E+03 -0.89933779839E+02  0.26052060135E+03  0.31872729599E+03  0.12499902934E+03 0.  0.
          2    1    1    2  501    0  0.20516185217E+02  0.41210460037E+02 -0.11185971586E+03  0.12096202670E+03  0.00000000000E+00 0. -1.
          1    1    1    2  502    0  0.79500130411E+02  0.48723319802E+02  0.15389806062E+04  0.15418026913E+04  0.00000000000E+00 0. -1.
         22    1    3    3    0    0  0.15536466952E+01 -0.24144803858E+02 -0.69340178612E+01  0.25168749971E+02  0.00000000000E+00 0. -1.
         22    1    3    3    0    0 -0.10156996232E+03 -0.65788975981E+02  0.26745461921E+03  0.29355854602E+03  0.00000000000E+00 0. -1.
</event>
<event>
 7    1  0.5127424E-006  0.4897513E+02  0.7818608E-02  0.1456435E+00
          2   -1    0    0  502    0  0.00000000000E+00  0.00000000000E+00  0.32537821102E+03  0.32537821102E+03  0.00000000000E+00 0. -1.
          1   -1    0    0  501    0 -0.00000000000E+00 -0.00000000000E+00 -0.89049423728E+03  0.89049423728E+03  0.00000000000E+00 0. -1.
         25    2    1    2    0    0 -0.44567705511E+02  0.38167829704E+02  0.44792906266E+02  0.14517063128E+03  0.12500017654E+03 0.  0.
          2    1    1    2  501    0  0.45651505203E+02  0.11366434080E+02 -0.83697345909E+03  0.83829459438E+03  0.00000000000E+00 0. -1.
          1    1    1    2  502    0 -0.10837996916E+01 -0.49534263784E+02  0.22706452656E+03  0.23240722263E+03  0.00000000000E+00 0. -1.
         22    1    3    3    0    0 -0.64016741725E+02  0.32400308353E+02 -0.22254767382E+02  0.75121221194E+02  0.00000000000E+00 0. -1.
         22    1    3    3    0    0  0.19449036213E+02  0.57675213512E+01  0.67047673647E+02  0.70049410088E+02  0.00000000000E+00 0. -1.
</event>
<event>
 7    1  0.5127424E-006  0.1385617E+03  0.7818608E-02  0.1278671E+00
          2   -1    0    0  502    0  0.00000000000E+00  0.00000000000E+00  0.92684909477E+03  0.92684909477E+03  0.00000000000E+00 0. -1.
          1   -1    0    0  501    0 -0.00000000000E+00 -0.00000000000E+00 -0.26937265268E+03  0.26937265268E+03  0.00000000000E+00 0. -1.
         25    2    1    2    0    0 -0.17315383133E+03  0.84103734428E+02 -0.66240663973E+02  0.23888898175E+03  0.12499773034E+03 0.  0.
          2    1    1    2  501    0  0.72753391176E+02  0.88989307142E+01 -0.99073029433E+02  0.12323843579E+03  0.00000000000E+00 0. -1.
          1    1    1    2  502    0  0.10040044016E+03 -0.93002665142E+02  0.82279013549E+03  0.83409432990E+03  0.00000000000E+00 0. -1.
         22    1    3    3    0    0 -0.51160032822E+02  0.20686462435E+02 -0.83739216172E+02  0.10028726246E+03  0.00000000000E+00 0. -1.
         22    1    3    3    0    0 -0.12199379851E+03  0.63417271993E+02  0.17498552199E+02  0.13860171930E+03  0.00000000000E+00 0. -1.
</event>
<event>
 7    1  0.5127424E-006  0.1159078E+03  0.7818608E-02  0.1277511E+00
          2   -1    0    0  502    0  0.00000000000E+00  0.00000000000E+00  0.99257335896E+03  0.99257335896E+03  0.00000000000E+00 0. -1.
          1   -1    0    0  501    0 -0.00000000000E+00 -0.00000000000E+00 -0.59668219772E+03  0.59668219772E+03  0.00000000000E+00 0. -1.
         25    2    1    2    0    0 -0.20777240920E+02  0.27130705526E+02 -0.51552001213E+02  0.13946313031E+03  0.12499834784E+03 0.  0.
          2    1    1    2  501    0 -0.82319380831E+02  0.32755469777E+02 -0.49346756097E+03  0.50135779139E+03  0.00000000000E+00 0. -1.
          1    1    1    2  502    0  0.10309662175E+03 -0.59886175303E+02  0.94091072342E+03  0.94843463499E+03  0.00000000000E+00 0. -1.
         22    1    3    3    0    0 -0.42431815545E+02 -0.29920637065E+02 -0.58300620656E+02  0.78068340969E+02  0.00000000000E+00 0. -1.
         22    1    3    3    0    0  0.21654574624E+02  0.57051342591E+02  0.67486194426E+01  0.61394789339E+02  0.00000000000E+00 0. -1.
</event>
<event>
 7    1  0.5127424E-006  0.6822564E+02  0.7818608E-02  0.1377761E+00
          2   -1    0    0  502    0  0.00000000000E+00  0.00000000000E+00  0.24768170108E+03  0.24768170108E+03  0.00000000000E+00 0. -1.
          1   -1    0    0  501    0 -0.00000000000E+00 -0.00000000000E+00 -0.25149344650E+03  0.25149344650E+03  0.00000000000E+00 0. -1.
         25    2    1    2    0    0  0.99614284765E+02  0.73831248762E+02  0.10715755786E+03  0.20611376302E+03  0.12500432822E+03 0.  0.
          2    1    1    2  501    0 -0.61443499746E+02 -0.24931883962E+02 -0.18497167390E+03  0.19649789476E+03  0.00000000000E+00 0. -1.
          1    1    1    2  502    0 -0.38170785019E+02 -0.48899364800E+02  0.74002370620E+02  0.96563489810E+02  0.00000000000E+00 0. -1.
         22    1    3    3    0    0  0.10061675233E+03  0.68509622290E+02  0.25615809614E+02  0.12439239888E+03  0.00000000000E+00 0.  1.
         22    1    3    3    0    0 -0.10024675650E+01  0.53216264724E+01  0.81541748250E+02  0.81721364142E+02  0.00000000000E+00 0.  1.
</event>
<event>
 7    1  0.5127424E-006  0.4708100E+02  0.7818608E-02  0.1567347E+00
          2   -1    0    0  502    0  0.00000000000E+00  0.00000000000E+00  0.44714292947E+03  0.44714292947E+03  0.00000000000E+00 0. -1.
          1   -1    0    0  501    0 -0.00000000000E+00 -0.00000000000E+00 -0.38970070717E+03  0.38970070717E+03  0.00000000000E+00 0. -1.
         25    2    1    2    0    0 -0.39438367389E+02  0.77398489838E+01 -0.83975003787E+02  0.15585612637E+03  0.12499616307E+03 0.  0.
          2    1    1    2  501    0  0.36625275761E+02 -0.30664339076E+02 -0.26734220574E+03  0.27157608048E+03  0.00000000000E+00 0. -1.
          1    1    1    2  502    0  0.28130916271E+01  0.22924490092E+02  0.40875943184E+03  0.40941142979E+03  0.00000000000E+00 0. -1.
         22    1    3    3    0    0 -0.38444051565E+01 -0.49376211895E+02 -0.72170951543E+02  0.87529629262E+02  0.00000000000E+00 0. -1.
         22    1    3    3    0    0 -0.35593962232E+02  0.57116060878E+02 -0.11804052243E+02  0.68326497108E+02  0.00000000000E+00 0. -1.
</event>
<event>
 7    1  0.5127424E-006  0.1915912E+03  0.7818608E-02  0.1248229E+00
          2   -1    0    0  502    0  0.00000000000E+00  0.00000000000E+00  0.40115708292E+03  0.40115708292E+03  0.00000000000E+00 0. -1.
          1   -1    0    0  501    0 -0.00000000000E+00 -0.00000000000E+00 -0.14091079484E+04  0.14091079484E+04  0.00000000000E+00 0. -1.
         25    2    1    2    0    0 -0.20567231693E+03  0.15811946447E+03  0.16185902860E+03  0.33034297979E+03  0.12500108862E+03 0.  0.
          2    1    1    2  501    0  0.14204651740E+03 -0.12576867886E+03 -0.13094360779E+04  0.13231091473E+04  0.00000000000E+00 0. -1.
          1    1    1    2  502    0  0.63625799526E+02 -0.32350785605E+02  0.13962618385E+03  0.15681290416E+03  0.00000000000E+00 0. -1.
         22    1    3    3    0    0 -0.61389947409E+02  0.29026760745E+00  0.81203836897E+02  0.10179819755E+03  0.00000000000E+00 0.  1.
         22    1    3    3    0    0 -0.14428236952E+03  0.15782919686E+03  0.80655191708E+02  0.22854478223E+03  0.00000000000E+00 0.  1.
</event>
<event>
 7    1  0.5127424E-006  0.8582048E+02  0.7818608E-02  0.1396534E+00
          2   -1    0    0  502    0  0.00000000000E+00  0.00000000000E+00  0.26718854133E+04  0.26718854133E+04  0.00000000000E+00 0. -1.
          1   -1    0    0  501    0 -0.00000000000E+00 -0.00000000000E+00 -0.61454622335E+03  0.61454622335E+03  0.00000000000E+00 0. -1.
         25    2    1    2    0    0 -0.48058733982E+02  0.10085296218E+03  0.20610195439E+04  0.20678267400E+04  0.12499961808E+03 0.  0.
          2    1    1    2  501    0  0.10984144454E+02 -0.40934889116E+02 -0.60835964198E+03  0.60983421564E+03  0.00000000000E+00 0. -1.
          1    1    1    2  502    0  0.37074589528E+02 -0.59918073059E+02  0.60467928808E+03  0.60877068104E+03  0.00000000000E+00 0. -1.
         22    1    3    3    0    0 -0.36990401892E+02  0.28598407686E+01  0.12890450354E+04  0.12895788351E+04  0.00000000000E+00 0. -1.
         22    1    3    3    0    0 -0.11068332090E+02  0.97993121407E+02  0.77197450847E+03  0.77824790494E+03  0.00000000000E+00 0. -1.
</event>
<event>
 7    1  0.5127424E-006  0.9056260E+02  0.7818608E-02  0.1347105E+00
          2   -1    0    0  502    0  0.00000000000E+00  0.00000000000E+00  0.41306459581E+03  0.41306459581E+03  0.00000000000E+00 0. -1.
          1   -1    0    0  501    0 -0.00000000000E+00 -0.00000000000E+00 -0.22424342812E+04  0.22424342812E+04  0.00000000000E+00 0. -1.
         25    2    1    2    0    0  0.14038427466E+02  0.12004752828E+03 -0.98215982669E+03  0.99743237709E+03  0.12499974090E+03 0.  0.
          2    1    1    2  501    0 -0.49634270907E+02 -0.71239003425E+02 -0.12488722317E+04  0.12518867391E+04  0.00000000000E+00 0. -1.
          1    1    1    2  502    0  0.35595843441E+02 -0.48808524850E+02  0.40166237302E+03  0.40617976078E+03  0.00000000000E+00 0. -1.
         22    1    3    3    0    0  0.29462253564E+01  0.14505866618E+03 -0.86779552204E+03  0.87984076114E+03  0.00000000000E+00 0. -1.
         22    1    3    3    0    0  0.11092202110E+02 -0.25011137902E+02 -0.11436430464E+03  0.11759161596E+03  0.00000000000E+00 0. -1.
</event>
<event>
 7    1  0.5127424E-006  0.7740826E+02  0.7818608E-02  0.1476421E+00
          2   -1    0    0  502    0  0.00000000000E+00  0.00000000000E+00  0.20504408889E+04  0.20504408889E+04  0.00000000000E+00 0. -1.
          1   -1    0    0  501    0 -0.00000000000E+00 -0.00000000000E+00 -0.34499868173E+03  0.34499868173E+03  0.00000000000E+00 0. -1.
         25    2    1    2    0    0  0.40019545577E+02 -0.82676219581E+02  0.85768927001E+03  0.87160373922E+03  0.12500109207E+03 0.  0.
          2    1    1    2  501    0 -0.15164160177E+02  0.75848233363E+02 -0.33347431986E+03  0.34232737002E+03  0.00000000000E+00 0. -1.
          1    1    1    2  502    0 -0.24855385400E+02  0.68279862179E+01  0.11812272570E+04  0.11815084614E+04  0.00000000000E+00 0. -1.
         22    1    3    3    0    0  0.12203293025E+02  0.22503854998E+02  0.45897588031E+02  0.52554090588E+02  0.00000000000E+00 0. -1.
         22    1    3    3    0    0  0.27816252552E+02 -0.10518007458E+03  0.81179168198E+03  0.81904964864E+03  0.00000000000E+00 0. -1.
</event>
<event>
 7    1  0.5127424E-006  0.1064689E+03  0.7818608E-02  0.1277453E+00
          2   -1    0    0  502    0  0.00000000000E+00  0.00000000000E+00  0.62524185415E+03  0.62524185415E+03  0.00000000000E+00 0. -1.
          1   -1    0    0  501    0 -0.00000000000E+00 -0.00000000000E+00 -0.89215562703E+03  0.89215562703E+03  0.00000000000E+00 0. -1.
         25    2    1    2    0    0 -0.22651355114E+02  0.36352915493E+02  0.29686780568E+02  0.13542722706E+03  0.12499844213E+03 0.  0.
          2    1    1    2  501    0  0.64598757355E+02  0.71694960278E+02 -0.83026987459E+03  0.83585957638E+03  0.00000000000E+00 0. -1.
          1    1    1    2  502    0 -0.41947402241E+02 -0.10804787577E+03  0.53366932114E+03  0.54611067774E+03  0.00000000000E+00 0. -1.
         22    1    3    3    0    0 -0.16879779738E+02  0.76318966904E+02  0.47312678580E+02  0.91367396962E+02  0.00000000000E+00 0.  1.
         22    1    3    3    0    0 -0.57715753760E+01 -0.39966051410E+02 -0.17625898012E+02  0.44059830099E+02  0.00000000000E+00 0.  1.
</event>
<event>
 7    1  0.5127424E-006  0.1046581E+03  0.7818608E-02  0.1333242E+00
          2   -1    0    0  502    0  0.00000000000E+00  0.00000000000E+00  0.30679285034E+03  0.30679285034E+03  0.00000000000E+00 0. -1.
          1   -1    0    0  501    0 -0.00000000000E+00 -0.00000000000E+00 -0.22065064166E+04  0.22065064166E+04  0.00000000000E+00 0. -1.
         25    2    1    2    0    0 -0.26024284853E+02 -0.19714995267E+02  0.16945224466E+03  0.21308366928E+03  0.12499856980E+03 0.  0.
          2    1    1    2  501    0 -0.70735700679E+02  0.77134741859E+02 -0.21557211350E+04  0.21582601603E+04  0.00000000000E+00 0. -1.
          1    1    1    2  502    0  0.96759985533E+02 -0.57419746593E+02  0.86555324000E+02  0.14195543742E+03  0.00000000000E+00 0. -1.
         22    1    3    3    0    0 -0.37672482739E+02 -0.68898092894E+02  0.98512021599E+02  0.12597929020E+03  0.00000000000E+00 0. -1.
         22    1    3    3    0    0  0.11648197886E+02  0.49183097627E+02  0.70940223063E+02  0.87104379077E+02  0.00000000000E+00 0. -1.
</event>
<event>
 7    1  0.5127424E-006  0.8613195E+02  0.7818608E-02  0.1400157E+00
          2   -1    0    0  502    0  0.00000000000E+00  0.00000000000E+00  0.32779712516E+03  0.32779712516E+03  0.00000000000E+00 0. -1.
          1   -1    0    0  501    0 -0.00000000000E+00 -0.00000000000E+00 -0.11950027022E+04  0.11950027022E+04  0.00000000000E+00 0. -1.
         25    2    1    2    0    0 -0.47198873210E+02  0.67731253103E+02 -0.27262083580E+03  0.31106667565E+03  0.12500040124E+03 0.  0.
          2    1    1    2  501    0  0.77669752766E+02 -0.40250133076E+02 -0.89966388628E+03  0.90390694875E+03  0.00000000000E+00 0. -1.
          1    1    1    2  502    0 -0.30470879557E+02 -0.27481120026E+02  0.30507914507E+03  0.30782620293E+03  0.00000000000E+00 0. -1.
         22    1    3    3    0    0 -0.50136994775E+02  0.62060383551E+02 -0.28563597459E+03  0.29656891177E+03  0.00000000000E+00 0. -1.
         22    1    3    3    0    0  0.29381215652E+01  0.56708695519E+01  0.13015138789E+02  0.14497763879E+02  0.00000000000E+00 0. -1.
</event>
<event>
 7    1  0.5127424E-006  0.1084412E+03  0.7818608E-02  0.1403371E+00
          2   -1    0    0  502    0  0.00000000000E+00  0.00000000000E+00  0.13707959207E+04  0.13707959207E+04  0.00000000000E+00 0. -1.
          1   -1    0    0  501    0 -0.00000000000E+00 -0.00000000000E+00 -0.19656376400E+03  0.19656376400E+03  0.00000000000E+00 0. -1.
         25    2    1    2    0    0 -0.64333654927E+02  0.53675521295E+02  0.95102174731E+02  0.17801533211E+03  0.12500061634E+03 0.  0.
          2    1    1    2  501    0 -0.31773846023E+02 -0.19894155780E+00 -0.15100027896E+03  0.15430716482E+03  0.00000000000E+00 0. -1.
          1    1    1    2  502    0  0.96107500949E+02 -0.53476579737E+02  0.12301302609E+04  0.12350371878E+04  0.00000000000E+00 0. -1.
         22    1    3    3    0    0  0.14835191488E+02 -0.24253168453E+02 -0.45351622015E+01  0.28790046590E+02  0.00000000000E+00 0. -1.
         22    1    3    3    0    0 -0.79168846414E+02  0.77928689748E+02  0.99637336932E+02  0.14922528552E+03  0.00000000000E+00 0. -1.
</event>
<event>
 7    1  0.5127424E-006  0.3931363E+02  0.7818608E-02  0.1566978E+00
          2   -1    0    0  502    0  0.00000000000E+00  0.00000000000E+00  0.22116742383E+04  0.22116742383E+04  0.00000000000E+00 0. -1.
          1   -1    0    0  501    0 -0.00000000000E+00 -0.00000000000E+00 -0.97043160746E+03  0.97043160746E+03  0.00000000000E+00 0. -1.
         25    2    1    2    0    0 -0.42057511951E+02 -0.28559948021E+02  0.21125776681E+04  0.21168831739E+04  0.12500185172E+03 0.  0.
          2    1    1    2  501    0  0.15398943627E+02  0.36171579565E+02 -0.96588867015E+03  0.96668838504E+03  0.00000000000E+00 0. -1.
          1    1    1    2  502    0  0.26658568324E+02 -0.76116315439E+01  0.94553632855E+02  0.98534286854E+02  0.00000000000E+00 0. -1.
         22    1    3    3    0    0 -0.29721686648E+02 -0.50770897333E+02  0.20207327491E+04  0.20215889558E+04  0.00000000000E+00 0.  1.
         22    1    3    3    0    0 -0.12335825303E+02  0.22210949312E+02  0.91844919005E+02  0.95294218095E+02  0.00000000000E+00 0.  1.
</event>
<event>
 7    1  0.5127424E-006  0.7903626E+02  0.7818608E-02  0.1407785E+00
          2   -1    0    0  502    0  0.00000000000E+00  0.00000000000E+00  0.28568162293E+04  0.28568162293E+04  0.00000000000E+00 0. -1.
          1   -1    0    0  501    0 -0.00000000000E+00 -0.00000000000E+00 -0.29675005938E+04  0.29675005938E+04  0.00000000000E+00 0. -1.
         25    2    1    2    0    0 -0.54459846092E+02  0.10702679319E+02 -0.16976156099E+04  0.17031161044E+04  0.12500113637E+03 0.  0.
          2    1    1    2  501    0 -0.20078401501E+02 -0.37015609501E+02 -0.12662373372E+04  0.12669373669E+04  0.00000000000E+00 0. -1.
          1    1    1    2  502    0  0.74538247594E+02  0.26312930182E+02  0.28531685826E+04  0.28542633518E+04  0.00000000000E+00 0. -1.
         22    1    3    3    0    0 -0.76951135982E+02 -0.16621958176E+02 -0.62801733537E+03  0.63293249273E+03  0.00000000000E+00 0. -1.
         22    1    3    3    0    0  0.22491289890E+02  0.27324637495E+02 -0.10695982745E+04  0.10701836117E+04  0.00000000000E+00 0. -1.
</event>
<event>
 7    1  0.5127424E-006  0.1062526E+03  0.7818608E-02  0.1405597E+00
          2   -1    0    0  502    0  0.00000000000E+00  0.00000000000E+00  0.25112270655E+04  0.25112270655E+04  0.00000000000E+00 0. -1.
          1   -1    0    0  501    0 -0.00000000000E+00 -0.00000000000E+00 -0.35430469610E+02  0.35430469610E+02  0.00000000000E+00 0. -1.
         25    2    1    2    0    0  0.10805366586E+03 -0.30488863048E+02  0.12972325835E+04  0.13080682369E+04  0.12499988410E+03 0.  0.
          2    1    1    2  501    0 -0.30191975740E+01  0.31722638248E+02 -0.18552431737E+02  0.36873215954E+02  0.00000000000E+00 0. -1.
          1    1    1    2  502    0 -0.10503446828E+03 -0.12337752000E+01  0.11971164441E+04  0.12017160823E+04  0.00000000000E+00 0. -1.
         22    1    3    3    0    0  0.89156223441E+02  0.51291388548E+00  0.12138989138E+04  0.12171687099E+04  0.00000000000E+00 0.  1.
         22    1    3    3    0    0  0.18897442417E+02 -0.31001776934E+02  0.83333669703E+02  0.90899527002E+02  0.00000000000E+00 0.  1.
</event>
<event>
 7    1  0.5127424E-006  0.3548576E+02  0.7818608E-02  0.1556223E+00
          2   -1    0    0  502    0  0.00000000000E+00  0.00000000000E+00  0.33630652370E+02  0.33630652370E+02  0.00000000000E+00 0. -1.
          1   -1    0    0  501    0 -0.00000000000E+00 -0.00000000000E+00 -0.59371477449E+03  0.59371477449E+03  0.00000000000E+00 0. -1.
         25    2    1    2    0    0  0.30166543684E+02  0.59609375935E+00 -0.19372217175E+03  0.23251592242E+03  0.12499999467E+03 0.  0.
          2    1    1    2  501    0 -0.88178964403E+01 -0.31672033741E+02 -0.35345234110E+03  0.35497807038E+03  0.00000000000E+00 0. -1.
          1    1    1    2  502    0 -0.21348647243E+02  0.31075939982E+02 -0.12909609269E+02  0.39851434057E+02  0.00000000000E+00 0. -1.
         22    1    3    3    0    0  0.51536255675E+02  0.44153356748E+02 -0.15893181038E+03  0.17281442333E+03  0.00000000000E+00 0. -1.
         22    1    3    3    0    0 -0.21369711991E+02 -0.43557262989E+02 -0.34790361371E+02  0.59701499093E+02  0.00000000000E+00 0. -1.
</event>
<event>
 7    1  0.5127424E-006  0.7464912E+02  0.7818608E-02  0.1386651E+00
          2   -1    0    0  502    0  0.00000000000E+00  0.00000000000E+00  0.75527158735E+03  0.75527158735E+03  0.00000000000E+00 0. -1.
          1   -1    0    0  501    0 -0.00000000000E+00 -0.00000000000E+00 -0.18978571838E+03  0.18978571838E+03  0.00000000000E+00 0. -1.
         25    2    1    2    0    0 -0.65595525813E+02  0.70010498720E+02  0.49677814228E+03  0.52116621225E+03  0.12498582006E+03 0.  0.
          2    1    1    2  501    0 -0.21185162755E+01 -0.52700494255E+02 -0.16852052913E+03  0.17658142299E+03  0.00000000000E+00 0. -1.
          1    1    1    2  502    0  0.67714042089E+02 -0.17310004465E+02  0.23722825583E+03  0.24730967048E+03  0.00000000000E+00 0. -1.
         22    1    3    3    0    0  0.23436073833E+02  0.33400214312E+02  0.52038166014E+02  0.66127109379E+02  0.00000000000E+00 0.  1.
         22    1    3    3    0    0 -0.89031599646E+02  0.36610284408E+02  0.44473997626E+03  0.45503910287E+03  0.00000000000E+00 0.  1.
</event>
<event>
 7    1  0.5127424E-006  0.6998237E+02  0.7818608E-02  0.1410241E+00
          2   -1    0    0  502    0  0.00000000000E+00  0.00000000000E+00  0.62312902335E+03  0.62312902335E+03  0.00000000000E+00 0. -1.
          1   -1    0    0  501    0 -0.00000000000E+00 -0.00000000000E+00 -0.48464141902E+03  0.48464141902E+03  0.00000000000E+00 0. -1.
         25    2    1    2    0    0  0.75222501943E+02  0.87254112011E+02  0.32605470770E+03  0.36770701782E+03  0.12500029472E+03 0.  0.
          2    1    1    2  501    0 -0.51102996882E+02 -0.47317855500E+02 -0.45920081137E+03  0.46445223749E+03  0.00000000000E+00 0. -1.
          1    1    1    2  502    0 -0.24119505061E+02 -0.39936256511E+02  0.27163370800E+03  0.27561118705E+03  0.00000000000E+00 0. -1.
         22    1    3    3    0    0  0.81798926546E+02  0.14429466047E+02  0.99328405417E+02  0.12948129594E+03  0.00000000000E+00 0.  1.
         22    1    3    3    0    0 -0.65764246028E+01  0.72824645964E+02  0.22672630229E+03  0.23822572189E+03  0.00000000000E+00 0.  1.
</event>
<event>
 7    1  0.5127424E-006  0.8077524E+02  0.7818608E-02  0.1418525E+00
          2   -1    0    0  502    0  0.00000000000E+00  0.00000000000E+00  0.66111462003E+03  0.66111462003E+03  0.00000000000E+00 0. -1.
          1   -1    0    0  501    0 -0.00000000000E+00 -0.00000000000E+00 -0.10643315692E+04  0.10643315692E+04  0.00000000000E+00 0. -1.
         25    2    1    2    0    0  0.62679288288E+02 -0.99094184264E+02 -0.11303709401E+03  0.20530558819E+03  0.12499859753E+03 0.  0.
          2    1    1    2  501    0 -0.43803152695E+02  0.66222382046E+02 -0.90283217002E+03  0.90631674777E+03  0.00000000000E+00 0. -1.
          1    1    1    2  502    0 -0.18876135593E+02  0.32871802219E+02  0.61265231488E+03  0.61382385324E+03  0.00000000000E+00 0. -1.
         22    1    3    3    0    0  0.23941094099E+02 -0.11832361202E+03 -0.10760524498E+03  0.16171747554E+03  0.00000000000E+00 0. -1.
         22    1    3    3    0    0  0.38738194190E+02  0.19229427753E+02 -0.54318490278E+01  0.43588112653E+02  0.00000000000E+00 0. -1.
</event>
<event>
 7    1  0.5127424E-006  0.9806772E+02  0.7818608E-02  0.1331595E+00
          2   -1    0    0  502    0  0.00000000000E+00  0.00000000000E+00  0.17556384713E+04  0.17556384713E+04  0.00000000000E+00 0. -1.
          1   -1    0    0  501    0 -0.00000000000E+00 -0.00000000000E+00 -0.58138213253E+03  0.58138213253E+03  0.00000000000E+00 0. -1.
         25    2    1    2    0    0 -0.14678019317E+03  0.63721427406E+02  0.81372916010E+02  0.21874977673E+03  0.12500027177E+03 0.  0.
          2    1    1    2  501    0  0.88486572202E+02 -0.37749831333E+02 -0.50753927257E+03  0.51657626390E+03  0.00000000000E+00 0. -1.
          1    1    1    2  502    0  0.58293620968E+02 -0.25971596073E+02  0.16004226953E+04  0.16016945632E+04  0.00000000000E+00 0. -1.
         22    1    3    3    0    0 -0.77365360109E+02  0.16122490105E+02  0.10491839592E+03  0.13135145006E+03  0.00000000000E+00 0. -1.
         22    1    3    3    0    0 -0.69414833061E+02  0.47598937301E+02 -0.23545479906E+02  0.87398326672E+02  0.00000000000E+00 0. -1.
</event>
<event>
 7    1  0.5127424E-006  0.3049029E+02  0.7818608E-02  0.1626098E+00
          2   -1    0    0  502    0  0.00000000000E+00  0.00000000000E+00  0.14864371684E+04  0.14864371684E+04  0.00000000000E+00 0. -1.
          1   -1    0    0  501    0 -0.00000000000E+00 -0.00000000000E+00 -0.22518628991E+04  0.22518628991E+04  0.00000000000E+00 0. -1.
         25    2    1    2    0    0 -0.19925306009E+01 -0.48033522767E+02  0.95271815298E+02  0.16435673472E+03  0.12500091188E+03 0.  0.
          2    1    1    2  501    0  0.14875947726E+02  0.26603629639E+02 -0.22171004594E+04  0.22173099680E+04  0.00000000000E+00 0. -1.
          1    1    1    2  502    0 -0.12883417125E+02  0.21429893128E+02  0.13564029134E+04  0.13566333647E+04  0.00000000000E+00 0. -1.
         22    1    3    3    0    0  0.24244398361E+01  0.22927542871E+02 -0.18930268191E+02  0.29831278625E+02  0.00000000000E+00 0.  1.
         22    1    3    3    0    0 -0.44169704371E+01 -0.70961065639E+02  0.11420208349E+03  0.13452545610E+03  0.00000000000E+00 0.  1.
</event>
<event>
 7    1  0.5127424E-006  0.1484037E+03  0.7818608E-02  0.1246089E+00
          2   -1    0    0  502    0  0.00000000000E+00  0.00000000000E+00  0.44624401524E+03  0.44624401524E+03  0.00000000000E+00 0. -1.
          1   -1    0    0  501    0 -0.00000000000E+00 -0.00000000000E+00 -0.11026743087E+04  0.11026743087E+04  0.00000000000E+00 0. -1.
         25    2    1    2    0    0  0.68571297644E+02  0.13551665228E+03 -0.12295054244E+03  0.23196177795E+03  0.12499057820E+03 0.  0.
          2    1    1    2  501    0  0.24606865607E+02 -0.14901371140E+03 -0.91326798942E+03  0.92567219064E+03  0.00000000000E+00 0. -1.
          1    1    1    2  502    0 -0.93178163251E+02  0.13497059128E+02  0.37978823840E+03  0.39128435535E+03  0.00000000000E+00 0. -1.
         22    1    3    3    0    0  0.31520865445E+01  0.82308741878E+02 -0.12252161101E+03  0.14763539482E+03  0.00000000000E+00 0.  1.
         22    1    3    3    0    0  0.65419211099E+02  0.53207910399E+02 -0.42893142967E+00  0.84326383131E+02  0.00000000000E+00 0.  1.
</event>
<event>
 7    1  0.5127424E-006  0.1128587E+03  0.7818608E-02  0.1304353E+00
          2   -1    0    0  502    0  0.00000000000E+00  0.00000000000E+00  0.19528106518E+04  0.19528106518E+04  0.00000000000E+00 0. -1.
          1   -1    0    0  501    0 -0.00000000000E+00 -0.00000000000E+00 -0.25592655564E+03  0.25592655564E+03  0.00000000000E+00 0. -1.
         25    2    1    2    0    0 -0.14485903725E+03  0.92978482195E+02  0.71395317062E+03  0.74497264112E+03  0.12500386934E+03 0.  0.
          2    1    1    2  501    0  0.49143974332E+02 -0.50952633502E+02 -0.23291392884E+03  0.24343417862E+03  0.00000000000E+00 0. -1.
          1    1    1    2  502    0  0.95715062919E+02 -0.42025848693E+02  0.12158448544E+04  0.12203303877E+04  0.00000000000E+00 0. -1.
         22    1    3    3    0    0 -0.15151962025E+03  0.11302763115E+03  0.67078963468E+03  0.69691618916E+03  0.00000000000E+00 0. -1.
         22    1    3    3    0    0  0.66605829967E+01 -0.20049148953E+02  0.43163535940E+02  0.48056451955E+02  0.00000000000E+00 0. -1.
</event>
<event>
 7    1  0.5127424E-006  0.1559912E+03  0.7818608E-02  0.1225156E+00
          2   -1    0    0  502    0  0.00000000000E+00  0.00000000000E+00  0.21909034991E+04  0.21909034991E+04  0.00000000000E+00 0. -1.
          1   -1    0    0  501    0 -0.00000000000E+00 -0.00000000000E+00 -0.29939678646E+03  0.29939678646E+03  0.00000000000E+00 0. -1.
         25    2    1    2    0    0  0.25235018152E+03 -0.21211125398E+02  0.25382906772E+03  0.37971570599E+03  0.12499718317E+03 0.  0.
          2    1    1    2  501    0 -0.14322155716E+03  0.41284241833E+02 -0.21113408752E+03  0.25844613747E+03  0.00000000000E+00 0. -1.
          1    1    1    2  502    0 -0.10912862436E+03 -0.20073116436E+02  0.18488117324E+04  0.18521384421E+04  0.00000000000E+00 0. -1.
         22    1    3    3    0    0  0.13036813609E+03 -0.19883463528E+02  0.47782903561E+02  0.14026549434E+03  0.00000000000E+00 0. -1.
         22    1    3    3    0    0  0.12198204543E+03 -0.13276618699E+01  0.20604616416E+03  0.23945021165E+03  0.00000000000E+00 0. -1.
</event>
<event>
 7    1  0.5127424E-006  0.6382663E+02  0.7818608E-02  0.1449491E+00
          2   -1    0    0  502    0  0.00000000000E+00  0.00000000000E+00  0.32936401801E+04  0.32936401801E+04  0.00000000000E+00 0. -1.
          1   -1    0    0  501    0 -0.00000000000E+00 -0.00000000000E+00 -0.24400379053E+04  0.24400379053E+04  0.00000000000E+00 0. -1.
         25    2    1    2    0    0  0.21908981413E+02  0.16262221465E+02 -0.10444949911E+03  0.16516426158E+03  0.12500028851E+03 0.  0.
          2    1    1    2  501    0  0.18811680478E+02  0.32999711776E+02 -0.23047615671E+04  0.23050745631E+04  0.00000000000E+00 0. -1.
          1    1    1    2  502    0 -0.40720661890E+02 -0.49261933241E+02  0.32628133410E+04  0.32634392607E+04  0.00000000000E+00 0. -1.
         22    1    3    3    0    0  0.52903536803E+02 -0.27014523000E+02 -0.15314246112E+02  0.61344068933E+02  0.00000000000E+00 0.  1.
         22    1    3    3    0    0 -0.30994555391E+02  0.43276744465E+02 -0.89135252995E+02  0.10382019265E+03  0.00000000000E+00 0.  1.
</event>
<event>
 7    1  0.5127424E-006  0.7392771E+02  0.7818608E-02  0.1349954E+00
          2   -1    0    0  502    0  0.00000000000E+00  0.00000000000E+00  0.30895789029E+03  0.30895789029E+03  0.00000000000E+00 0. -1.
          1   -1    0    0  501    0 -0.00000000000E+00 -0.00000000000E+00 -0.21066700363E+03  0.21066700363E+03  0.00000000000E+00 0. -1.
         25    2    1    2    0    0 -0.28276228527E+02  0.29657598343E+02 -0.20087943581E+02  0.13306782021E+03  0.12499760421E+03 0.  0.
          2    1    1    2  501    0 -0.24973468235E+02 -0.80938937071E+02 -0.11438621021E+03  0.14233408143E+03  0.00000000000E+00 0. -1.
          1    1    1    2  502    0  0.53249696763E+02  0.51281338728E+02  0.23276504045E+03  0.24422299229E+03  0.00000000000E+00 0. -1.
         22    1    3    3    0    0 -0.52311697200E+02  0.82600393009E+01 -0.61151928692E+02  0.80896849729E+02  0.00000000000E+00 0.  1.
         22    1    3    3    0    0  0.24035468673E+02  0.21397559042E+02  0.41063985111E+02  0.52170970477E+02  0.00000000000E+00 0.  1.
</event>
<event>
 7    1  0.5127424E-006  0.9004251E+02  0.7818608E-02  0.1323546E+00
          2   -1    0    0  502    0  0.00000000000E+00  0.00000000000E+00  0.10991791963E+04  0.10991791963E+04  0.00000000000E+00 0. -1.
          1   -1    0    0  501    0 -0.00000000000E+00 -0.00000000000E+00 -0.40569214703E+03  0.40569214703E+03  0.00000000000E+00 0. -1.
         25    2    1    2    0    0  0.57094548213E+02  0.14347109072E+02  0.62118753729E+03  0.63636567288E+03  0.12498674393E+03 0.  0.
          2    1    1    2  501    0  0.14135880524E+02 -0.88925980498E+02 -0.38722224333E+03  0.39755341635E+03  0.00000000000E+00 0. -1.
          1    1    1    2  502    0 -0.71230428737E+02  0.74578871426E+02  0.45952175530E+03  0.47095225409E+03  0.00000000000E+00 0. -1.
         22    1    3    3    0    0  0.96981065754E+01  0.49187543932E+02  0.99945703660E+02  0.11181507693E+03  0.00000000000E+00 0. -1.
         22    1    3    3    0    0  0.47396441638E+02 -0.34840434861E+02  0.52124183363E+03  0.52455059595E+03  0.00000000000E+00 0. -1.
</event>
<event>
 7    1  0.5127424E-006  0.1489948E+03  0.7818608E-02  0.1392146E+00
          2   -1    0    0  502    0  0.00000000000E+00  0.00000000000E+00  0.21689097328E+04  0.21689097328E+04  0.00000000000E+00 0. -1.
          1   -1    0    0  501    0 -0.00000000000E+00 -0.00000000000E+00 -0.50967525825E+03  0.50967525825E+03  0.00000000000E+00 0. -1.
         25    2    1    2    0    0  0.14214982063E+03 -0.77070726869E+02  0.27644785070E+03  0.34379640055E+03  0.12500432964E+03 0.  0.
          2    1    1    2  501    0 -0.22934830597E+02 -0.10640636320E+02 -0.47271641967E+03  0.47339206059E+03  0.00000000000E+00 0. -1.
          1    1    1    2  502    0 -0.11921499004E+03  0.87711363189E+02  0.18555030435E+04  0.18613965299E+04  0.00000000000E+00 0. -1.
         22    1    3    3    0    0  0.17357447628E+02  0.16039871977E+02  0.12278396193E+03  0.12503783342E+03  0.00000000000E+00 0. -1.
         22    1    3    3    0    0  0.12479237300E+03 -0.93110598845E+02  0.15366388878E+03  0.21875856713E+03  0.00000000000E+00 0. -1.
</event>
<event>
 7    1  0.5127424E-006  0.7241544E+02  0.7818608E-02  0.1438939E+00
          2   -1    0    0  502    0  0.00000000000E+00  0.00000000000E+00  0.79200776248E+03  0.79200776248E+03  0.00000000000E+00 0. -1.
          1   -1    0    0  501    0 -0.00000000000E+00 -0.00000000000E+00 -0.31926850410E+03  0.31926850410E+03  0.00000000000E+00 0. -1.
         25    2    1    2    0    0  0.63566398560E+02  0.58548012201E+02  0.69298634336E+02  0.16702115579E+03  0.12500083600E+03 0.  0.
          2    1    1    2  501    0  0.49293802042E+01 -0.35872584645E+02 -0.26725142208E+03  0.26969327712E+03  0.00000000000E+00 0. -1.
          1    1    1    2  502    0 -0.68495778764E+02 -0.22675427556E+02  0.67069204613E+03  0.67456183368E+03  0.00000000000E+00 0. -1.
         22    1    3    3    0    0 -0.13110000334E+02  0.71748361748E+02  0.44128016108E+02  0.85246591298E+02  0.00000000000E+00 0.  1.
         22    1    3    3    0    0  0.76676398894E+02 -0.13200349547E+02  0.25170618228E+02  0.81774564490E+02  0.00000000000E+00 0.  1.
</event>
<event>
 7    1  0.5127424E-006  0.4525686E+02  0.7818608E-02  0.1592600E+00
          2   -1    0    0  502    0  0.00000000000E+00  0.00000000000E+00  0.25361531735E+04  0.25361531735E+04  0.00000000000E+00 0. -1.
          1   -1    0    0  501    0 -0.00000000000E+00 -0.00000000000E+00 -0.66361040462E+03  0.66361040462E+03  0.00000000000E+00 0. -1.
         25    2    1    2    0    0  0.25400240233E+01  0.62753197817E+02  0.16489493654E+04  0.16548724692E+04  0.12499785618E+03 0.  0.
          2    1    1    2  501    0 -0.11338727706E+00 -0.20557855865E+02 -0.65998365893E+03  0.66030376975E+03  0.00000000000E+00 0. -1.
          1    1    1    2  502    0 -0.24266367463E+01 -0.42195341951E+02  0.88357706247E+03  0.88458733926E+03  0.00000000000E+00 0. -1.
         22    1    3    3    0    0 -0.22310330843E+02 -0.22186343343E+02  0.92482231633E+03  0.92535739121E+03  0.00000000000E+00 0.  1.
         22    1    3    3    0    0  0.24850354867E+02  0.84939541159E+02  0.72412704905E+03  0.72951507795E+03  0.00000000000E+00 0.  1.
</event>
<event>
 7    1  0.5127424E-006  0.4683037E+02  0.7818608E-02  0.1521025E+00
          2   -1    0    0  502    0  0.00000000000E+00  0.00000000000E+00  0.64082721960E+03  0.64082721960E+03  0.00000000000E+00 0. -1.
          1   -1    0    0  501    0 -0.00000000000E+00 -0.00000000000E+00 -0.22702800205E+03  0.22702800205E+03  0.00000000000E+00 0. -1.
         25    2    1    2    0    0  0.15018750778E+02 -0.13794988301E+02 -0.83399198542E+01  0.12692390480E+03  0.12499703505E+03 0.  0.
          2    1    1    2  501    0  0.31126605345E+02  0.36583596007E+01 -0.15688399886E+03  0.15998386873E+03  0.00000000000E+00 0. -1.
          1    1    1    2  502    0 -0.46145356124E+02  0.10136628700E+02  0.57902313627E+03  0.58094744811E+03  0.00000000000E+00 0. -1.
         22    1    3    3    0    0  0.17267442145E+02 -0.40079656544E+02 -0.56871227236E+02  0.71685981295E+02  0.00000000000E+00 0. -1.
         22    1    3    3    0    0 -0.22486913663E+01  0.26284668243E+02  0.48531307382E+02  0.55237923510E+02  0.00000000000E+00 0. -1.
</event>
<event>
 7    1  0.5127424E-006  0.4257916E+02  0.7818608E-02  0.1500765E+00
          2   -1    0    0  502    0  0.00000000000E+00  0.00000000000E+00  0.25378948483E+03  0.25378948483E+03  0.00000000000E+00 0. -1.
          1   -1    0    0  501    0 -0.00000000000E+00 -0.00000000000E+00 -0.16263814392E+04  0.16263814392E+04  0.00000000000E+00 0. -1.
         25    2    1    2    0    0 -0.55400141970E+02  0.31850859128E+02 -0.44231234185E+03  0.46405614990E+03  0.12499699818E+03 0.  0.
          2    1    1    2  501    0  0.13201797428E+02 -0.37268060701E+02 -0.11709981755E+04  0.11716654483E+04  0.00000000000E+00 0. -1.
          1    1    1    2  502    0  0.42198344541E+02  0.54172015732E+01  0.24071856294E+03  0.24444932583E+03  0.00000000000E+00 0. -1.
         22    1    3    3    0    0  0.22845277450E+02  0.49357921694E+02 -0.24717905877E+03  0.25309207461E+03  0.00000000000E+00 0. -1.
         22    1    3    3    0    0 -0.78245419420E+02 -0.17507062566E+02 -0.19513328308E+03  0.21096407529E+03  0.00000000000E+00 0. -1.
</event>
<event>
 7    1  0.5127424E-006  0.1336233E+03  0.7818608E-02  0.1273450E+00
          2   -1    0    0  502    0  0.00000000000E+00  0.00000000000E+00  0.51113418003E+03  0.51113418003E+03  0.00000000000E+00 0. -1.
          1   -1    0    0  501    0 -0.00000000000E+00 -0.00000000000E+00 -0.45249252443E+03  0.45249252443E+03  0.00000000000E+00 0. -1.
         25    2    1    2    0    0 -0.19294916167E+03  0.58323569470E+02  0.11767491244E+03  0.26477145641E+03  0.12500208544E+03 0.  0.
          2    1    1    2  501    0  0.78761994768E+02 -0.13443323275E+02 -0.36267008853E+03  0.37136742974E+03  0.00000000000E+00 0. -1.
          1    1    1    2  502    0  0.11418716690E+03 -0.44880246194E+02  0.30363683169E+03  0.32748781831E+03  0.00000000000E+00 0. -1.
         22    1    3    3    0    0 -0.86629807880E+02 -0.13510155876E+02 -0.42363517447E+01  0.87779237871E+02  0.00000000000E+00 0. -1.
         22    1    3    3    0    0 -0.10631935379E+03  0.71833725346E+02  0.12191126418E+03  0.17699221853E+03  0.00000000000E+00 0. -1.
</event>
<event>
 7    1  0.5127424E-006  0.1652645E+03  0.7818608E-02  0.1264475E+00
          2   -1    0    0  502    0  0.00000000000E+00  0.00000000000E+00  0.10766843596E+04  0.10766843596E+04  0.00000000000E+00 0. -1.
          1   -1    0    0  501    0 -0.00000000000E+00 -0.00000000000E+00 -0.11104255805E+04  0.11104255805E+04  0.00000000000E+00 0. -1.
         25    2    1    2    0    0 -0.13582249155E+03 -0.53752251397E+02  0.17145009299E+03  0.25759748867E+03  0.12499711214E+03 0.  0.
          2    1    1    2  501    0 -0.35231466900E+02  0.61031540241E+02 -0.10576680679E+04  0.10600131353E+04  0.00000000000E+00 0. -1.
          1    1    1    2  502    0  0.17105395845E+03 -0.72792888443E+01  0.85247675394E+03  0.86949931613E+03  0.00000000000E+00 0. -1.
         22    1    3    3    0    0 -0.50537172470E+02  0.37986048845E+02  0.82643408514E+02  0.10405228820E+03  0.00000000000E+00 0.  1.
         22    1    3    3    0    0 -0.85285319076E+02 -0.91738300242E+02  0.88806684475E+02  0.15354520047E+03  0.00000000000E+00 0.  1.
</event>
<event>
 7    1  0.5127424E-006  0.5701606E+02  0.7818608E-02  0.1444544E+00
          2   -1    0    0  502    0  0.00000000000E+00  0.00000000000E+00  0.20972637283E+03  0.20972637283E+03  0.00000000000E+00 0. -1.
          1   -1    0    0  501    0 -0.00000000000E+00 -0.00000000000E+00 -0.67842058031E+03  0.67842058031E+03  0.00000000000E+00 0. -1.
         25    2    1    2    0    0 -0.62646742030E+01 -0.36896913046E+02 -0.18239798203E+03  0.22426534423E+03  0.12500116974E+03 0.  0.
          2    1    1    2  501    0 -0.43455024759E+02  0.75590006817E+01 -0.46961797544E+03  0.47168476817E+03  0.00000000000E+00 0. -1.
          1    1    1    2  502    0  0.49719698962E+02  0.29337912364E+02  0.18332175000E+03  0.19219684073E+03  0.00000000000E+00 0. -1.
         22    1    3    3    0    0 -0.16939345576E+02  0.22414259557E+02  0.39898956685E+01  0.28377098645E+02  0.00000000000E+00 0. -1.
         22    1    3    3    0    0  0.10674671373E+02 -0.59311172603E+02 -0.18638787770E+03  0.19588824558E+03  0.00000000000E+00 0. -1.
</event>
<event>
 7    1  0.5127424E-006  0.1295013E+03  0.7818608E-02  0.1407178E+00
          2   -1    0    0  502    0  0.00000000000E+00  0.00000000000E+00  0.39735068208E+03  0.39735068208E+03  0.00000000000E+00 0. -1.
          1   -1    0    0  501    0 -0.00000000000E+00 -0.00000000000E+00 -0.15061374925E+03  0.15061374925E+03  0.00000000000E+00 0. -1.
         25    2    1    2    0    0  0.12051457526E+03  0.84779817298E+02 -0.46768855153E+02  0.19880149598E+03  0.12499331470E+03 0.  0.
          2    1    1    2  501    0 -0.25808190817E+02  0.87422859158E+00 -0.33197778546E+01  0.26035512553E+02  0.00000000000E+00 0. -1.
          1    1    1    2  502    0 -0.94706384439E+02 -0.85654045890E+02  0.29682556584E+03  0.32312742280E+03  0.00000000000E+00 0. -1.
         22    1    3    3    0    0  0.96533944812E+02  0.11748967401E+03 -0.43239985846E+02  0.15808960237E+03  0.00000000000E+00 0. -1.
         22    1    3    3    0    0  0.23980630444E+02 -0.32709856715E+02 -0.35288693070E+01  0.40711893611E+02  0.00000000000E+00 0. -1.
</event>
<event>
 7    1  0.5127424E-006  0.5088768E+02  0.7818608E-02  0.1563619E+00
          2   -1    0    0  502    0  0.00000000000E+00  0.00000000000E+00  0.63245343987E+02  0.63245343987E+02  0.00000000000E+00 0. -1.
          1   -1    0    0  501    0 -0.00000000000E+00 -0.00000000000E+00 -0.19276336307E+04  0.19276336307E+04  0.00000000000E+00 0. -1.
         25    2    1    2    0    0 -0.44020789764E+02  0.16730418766E+02 -0.61337897107E+02  0.14698911668E+03  0.12500290380E+03 0.  0.
          2    1    1    2  501    0  0.35268843999E+02 -0.36779387893E+02 -0.18171496406E+04  0.18178639748E+04  0.00000000000E+00 0. -1.
          1    1    1    2  502    0  0.87519457645E+01  0.20048969127E+02  0.14099250965E+02  0.26025883184E+02  0.00000000000E+00 0. -1.
         22    1    3    3    0    0 -0.47315440178E+02 -0.29636598102E+02 -0.79446790002E+02  0.97102375192E+02  0.00000000000E+00 0.  1.
         22    1    3    3    0    0  0.32946504142E+01  0.46367016867E+02  0.18108892895E+02  0.49886741489E+02  0.00000000000E+00 0.  1.
</event>
<event>
 7    1  0.5127424E-006  0.1114404E+03  0.7818608E-02  0.1344514E+00
          2   -1    0    0  502    0  0.00000000000E+00  0.00000000000E+00  0.25031696483E+03  0.25031696483E+03  0.00000000000E+00 0. -1.
          1   -1    0    0  501    0 -0.00000000000E+00 -0.00000000000E+00 -0.18901837208E+03  0.18901837208E+03  0.00000000000E+00 0. -1.
         25    2    1    2    0    0 -0.54921430428E+02 -0.74245985227E+02  0.73878311832E+02  0.17208566535E+03  0.12500656550E+03 0.  0.
          2    1    1    2  501    0  0.17876870884E+02 -0.46905804406E+02 -0.10097959892E+03  0.11276797594E+03  0.00000000000E+00 0. -1.
          1    1    1    2  502    0  0.37044559544E+02  0.12115178963E+03  0.88399879840E+02  0.15448169561E+03  0.00000000000E+00 0. -1.
         22    1    3    3    0    0 -0.88840960466E+02 -0.25446356781E+02  0.62533066527E+02  0.11158233614E+03  0.00000000000E+00 0.  1.
         22    1    3    3    0    0  0.33919530039E+02 -0.48799628446E+02  0.11345245304E+02  0.60503329210E+02  0.00000000000E+00 0.  1.
</event>
<event>
 7    1  0.5127424E-006  0.1637132E+03  0.7818608E-02  0.1345901E+00
          2   -1    0    0  502    0  0.00000000000E+00  0.00000000000E+00  0.11168470518E+03  0.11168470518E+03  0.00000000000E+00 0. -1.
          1   -1    0    0  501    0 -0.00000000000E+00 -0.00000000000E+00 -0.23550020893E+04  0.23550020893E+04  0.00000000000E+00 0. -1.
         25    2    1    2    0    0 -0.17990388286E+03 -0.42881920211E+02 -0.52187615291E+03  0.56761293670E+03  0.12500184313E+03 0.  0.
          2    1    1    2  501    0  0.29877742132E+02 -0.15727263560E+02 -0.17369343567E+04  0.17372624976E+04  0.00000000000E+00 0. -1.
          1    1    1    2  502    0  0.15002614073E+03  0.58609183771E+02  0.15493125491E+02  0.16181136011E+03  0.00000000000E+00 0. -1.
         22    1    3    3    0    0 -0.16825453492E+03  0.20001543996E+01 -0.33262461821E+03  0.37276363258E+03  0.00000000000E+00 0. -1.
         22    1    3    3    0    0 -0.11649347941E+02 -0.44882074611E+02 -0.18925153471E+03  0.19484930412E+03  0.00000000000E+00 0. -1.
</event>
<event>
 7    1  0.5127424E-006  0.6661785E+02  0.7818608E-02  0.1435412E+00
          2   -1    0    0  502    0  0.00000000000E+00  0.00000000000E+00  0.83473929387E+03  0.83473929387E+03  0.00000000000E+00 0. -1.
          1   -1    0    0  501    0 -0.00000000000E+00 -0.00000000000E+00 -0.68294059751E+02  0.68294059751E+02  0.00000000000E+00 0. -1.
         25    2    1    2    0    0  0.25327278120E+02 -0.15272361534E+02  0.25090602121E+03  0.28188331586E+03  0.12501862355E+03 0.  0.
          2    1    1    2  501    0 -0.57385399244E+02  0.39884333394E+02 -0.28601183775E+02  0.75510739700E+02  0.00000000000E+00 0. -1.
          1    1    1    2  502    0  0.32058121124E+02 -0.24611971860E+02  0.54414039668E+03  0.54563929806E+03  0.00000000000E+00 0. -1.
         22    1    3    3    0    0 -0.36924002371E+02 -0.45602348687E+02  0.10224131938E+03  0.11788232923E+03  0.00000000000E+00 0. -1.
         22    1    3    3    0    0  0.62251280491E+02  0.30329987153E+02  0.14866470184E+03  0.16400098663E+03  0.00000000000E+00 0. -1.
</event>
<event>
 7    1  0.5127424E-006  0.5632529E+02  0.7818608E-02  0.1494660E+00
          2   -1    0    0  502    0  0.00000000000E+00  0.00000000000E+00  0.45747776498E+03  0.45747776498E+03  0.00000000000E+00 0. -1.
          1   -1    0    0  501    0 -0.00000000000E+00 -0.00000000000E+00 -0.10178134577E+03  0.10178134577E+03  0.00000000000E+00 0. -1.
         25    2    1    2    0    0  0.20675881184E+02 -0.18039008007E+02  0.13312925945E+02  0.12866528367E+03  0.12499849339E+03 0.  0.
          2    1    1    2  501    0  0.13582286191E+02 -0.28058354332E+02 -0.36146373917E+02  0.47731646665E+02  0.00000000000E+00 0. -1.
          1    1    1    2  502    0 -0.34258167375E+02  0.46097362339E+02  0.37852986718E+03  0.38286218042E+03  0.00000000000E+00 0. -1.
         22    1    3    3    0    0 -0.16634706092E+02 -0.22716364125E+01  0.62632886592E+02  0.64844061113E+02  0.00000000000E+00 0.  1.
         22    1    3    3    0    0  0.37310587276E+02 -0.15767371595E+02 -0.49319960647E+02  0.63821222553E+02  0.00000000000E+00 0.  1.
</event>
<event>
 7    1  0.5127424E-006  0.8130887E+02  0.7818608E-02  0.1333917E+00
          2   -1    0    0  502    0  0.00000000000E+00  0.00000000000E+00  0.18855068457E+04  0.18855068457E+04  0.00000000000E+00 0. -1.
          1   -1    0    0  501    0 -0.00000000000E+00 -0.00000000000E+00 -0.34222426462E+03  0.34222426462E+03  0.00000000000E+00 0. -1.
         25    2    1    2    0    0  0.75675713371E+02 -0.22328055523E+02  0.91623878502E+03  0.92808620729E+03  0.12500056531E+03 0.  0.
          2    1    1    2  501    0 -0.14324081269E+02  0.80037202552E+02 -0.32950818728E+03  0.33939177743E+03  0.00000000000E+00 0. -1.
          1    1    1    2  502    0 -0.61351632101E+02 -0.57709147029E+02  0.95655198337E+03  0.96025312564E+03  0.00000000000E+00 0. -1.
         22    1    3    3    0    0  0.44049327015E+01  0.30325791128E+02  0.60954890430E+02  0.68224304372E+02  0.00000000000E+00 0. -1.
         22    1    3    3    0    0  0.71270780669E+02 -0.52653846651E+02  0.85528389459E+03  0.85986190292E+03  0.00000000000E+00 0. -1.
</event>
<event>
 7    1  0.5127424E-006  0.3230924E+02  0.7818608E-02  0.1595941E+00
          2   -1    0    0  502    0  0.00000000000E+00  0.00000000000E+00  0.20779095500E+04  0.20779095500E+04  0.00000000000E+00 0. -1.
          1   -1    0    0  501    0 -0.00000000000E+00 -0.00000000000E+00 -0.55682230407E+03  0.55682230407E+03  0.00000000000E+00 0. -1.
         25    2    1    2    0    0  0.26069383494E+02  0.49573278750E+02  0.61005615692E+03  0.62524443161E+03  0.12499984777E+03 0.  0.
          2    1    1    2  501    0 -0.25560628947E+01 -0.28103418889E+02 -0.54869195919E+03  0.54941714725E+03  0.00000000000E+00 0. -1.
          1    1    1    2  502    0 -0.23513320600E+02 -0.21469859861E+02  0.14597230482E+04  0.14600702752E+04  0.00000000000E+00 0. -1.
         22    1    3    3    0    0  0.48193417246E+02 -0.14501779927E+01  0.88933048272E+02  0.10116222396E+03  0.00000000000E+00 0.  1.
         22    1    3    3    0    0 -0.22124033752E+02  0.51023456743E+02  0.52112310864E+03  0.52408220764E+03  0.00000000000E+00 0.  1.
</event>
<event>
 7    1  0.5127424E-006  0.8314788E+02  0.7818608E-02  0.1350290E+00
          2   -1    0    0  502    0  0.00000000000E+00  0.00000000000E+00  0.49932316214E+03  0.49932316214E+03  0.00000000000E+00 0. -1.
          1   -1    0    0  501    0 -0.00000000000E+00 -0.00000000000E+00 -0.11639971069E+04  0.11639971069E+04  0.00000000000E+00 0. -1.
         25    2    1    2    0    0  0.14146603912E+02 -0.51819041689E+02 -0.17360898673E+02  0.13715636290E+03  0.12500051039E+03 0.  0.
          2    1    1    2  501    0 -0.76265814443E+02  0.36294108072E+02 -0.10827525928E+04  0.10860418564E+04  0.00000000000E+00 0. -1.
          1    1    1    2  502    0  0.62119210531E+02  0.15524933617E+02  0.43543954666E+03  0.44012204975E+03  0.00000000000E+00 0. -1.
         22    1    3    3    0    0  0.30622663979E+02 -0.82283774342E+02 -0.39263949789E+02  0.96177049353E+02  0.00000000000E+00 0.  1.
         22    1    3    3    0    0 -0.16476060068E+02  0.30464732653E+02  0.21903051116E+02  0.40979313552E+02  0.00000000000E+00 0.  1.
</event>
<event>
 7    1  0.5127424E-006  0.1058528E+03  0.7818608E-02  0.1350331E+00
          2   -1    0    0  502    0  0.00000000000E+00  0.00000000000E+00  0.22684856649E+03  0.22684856649E+03  0.00000000000E+00 0. -1.
          1   -1    0    0  501    0 -0.00000000000E+00 -0.00000000000E+00 -0.13395565612E+03  0.13395565612E+03  0.00000000000E+00 0. -1.
         25    2    1    2    0    0  0.80142038476E+02 -0.25912120381E+02  0.38265628915E+02  0.15551061062E+03  0.12500042938E+03 0.  0.
          2    1    1    2  501    0  0.13035090985E+02 -0.48558885150E+02 -0.30450633474E+02  0.58780268824E+02  0.00000000000E+00 0. -1.
          1    1    1    2  502    0 -0.93177129462E+02  0.74471005531E+02  0.85077914930E+02  0.14651334318E+03  0.00000000000E+00 0. -1.
         22    1    3    3    0    0  0.99633215363E+02 -0.35714664791E+02  0.62488348877E+02  0.12291097848E+03  0.00000000000E+00 0. -1.
         22    1    3    3    0    0 -0.19491176887E+02  0.98025444094E+01 -0.24222719962E+02  0.32599632140E+02  0.00000000000E+00 0. -1.
</event>
<event>
 7    1  0.5127424E-006  0.1081875E+03  0.7818608E-02  0.1430041E+00
          2   -1    0    0  502    0  0.00000000000E+00  0.00000000000E+00  0.38003090485E+02  0.38003090485E+02  0.00000000000E+00 0. -1.
          1   -1    0    0  501    0 -0.00000000000E+00 -0.00000000000E+00 -0.18637226361E+04  0.18637226361E+04  0.00000000000E+00 0. -1.
         25    2    1    2    0    0  0.50710981056E+02  0.71863760831E+02 -0.14736801989E+03  0.21231641566E+03  0.12499969340E+03 0.  0.
          2    1    1    2  501    0 -0.49111480226E+02 -0.97731265538E+02 -0.16367148827E+04  0.16403654913E+04  0.00000000000E+00 0. -1.
          1    1    1    2  502    0 -0.15995008303E+01  0.25867504708E+02 -0.41636643004E+02  0.49043819624E+02  0.00000000000E+00 0. -1.
         22    1    3    3    0    0  0.18182141555E+02  0.62612678508E+02 -0.43388194377E+01  0.65343424578E+02  0.00000000000E+00 0.  1.
         22    1    3    3    0    0  0.32528839501E+02  0.92510823231E+01 -0.14302920045E+03  0.14697299108E+03  0.00000000000E+00 0.  1.
</event>
<event>
 7    1  0.5127424E-006  0.9384485E+02  0.7818608E-02  0.1343533E+00
          2   -1    0    0  502    0  0.00000000000E+00  0.00000000000E+00  0.24331314179E+02  0.24331314179E+02  0.00000000000E+00 0. -1.
          1   -1    0    0  501    0 -0.00000000000E+00 -0.00000000000E+00 -0.17340792650E+04  0.17340792650E+04  0.00000000000E+00 0. -1.
         25    2    1    2    0    0  0.49776120107E+02  0.39469907027E+02 -0.37771696658E+03  0.40290270905E+03  0.12499980171E+03 0.  0.
          2    1    1    2  501    0 -0.29257385539E+02 -0.95974010883E+02 -0.12488734626E+04  0.12528974144E+04  0.00000000000E+00 0. -1.
          1    1    1    2  502    0 -0.20518734568E+02  0.56504103855E+02 -0.83157521587E+02  0.10261045569E+03  0.00000000000E+00 0. -1.
         22    1    3    3    0    0  0.40760724712E+02 -0.16097836358E+02 -0.31734535094E+03  0.32035706450E+03  0.00000000000E+00 0. -1.
         22    1    3    3    0    0  0.90153953943E+01  0.55567743386E+02 -0.60371615640E+02  0.82545644550E+02  0.00000000000E+00 0. -1.
</event>
<event>
 7    1  0.5127424E-006  0.7991366E+02  0.7818608E-02  0.1344586E+00
          2   -1    0    0  502    0  0.00000000000E+00  0.00000000000E+00  0.24455382751E+04  0.24455382751E+04  0.00000000000E+00 0. -1.
          1   -1    0    0  501    0 -0.00000000000E+00 -0.00000000000E+00 -0.23879692082E+02  0.23879692082E+02  0.00000000000E+00 0. -1.
         25    2    1    2    0    0  0.78120269403E+01 -0.51768726404E+02  0.28895256076E+03  0.31915570420E+03  0.12500300939E+03 0.  0.
          2    1    1    2  501    0 -0.28525620956E+02  0.11858862764E+03  0.45399043778E+03  0.47008966299E+03  0.00000000000E+00 0. -1.
          1    1    1    2  502    0  0.20713594016E+02 -0.66819901239E+02  0.16787155845E+04  0.16801726000E+04  0.00000000000E+00 0. -1.
         22    1    3    3    0    0  0.24175710021E+02  0.19002387188E+02  0.12287592275E+02  0.33114054385E+02  0.00000000000E+00 0. -1.
         22    1    3    3    0    0 -0.16363683081E+02 -0.70771113593E+02  0.27666496848E+03  0.28604164982E+03  0.00000000000E+00 0. -1.
</event>
<event>
 7    1  0.5127424E-006  0.6025133E+02  0.7818608E-02  0.1534286E+00
          2   -1    0    0  502    0  0.00000000000E+00  0.00000000000E+00  0.12686060679E+04  0.12686060679E+04  0.00000000000E+00 0. -1.
          1   -1    0    0  501    0 -0.00000000000E+00 -0.00000000000E+00 -0.66717582983E+02  0.66717582983E+02  0.00000000000E+00 0. -1.
         25    2    1    2    0    0  0.43631297623E+02 -0.44172896476E+02  0.76059013394E+03  0.77328945744E+03  0.12499719289E+03 0.  0.
          2    1    1    2  501    0  0.11570511667E+02  0.19078550403E+02 -0.56401112255E+02  0.60654375681E+02  0.00000000000E+00 0. -1.
          1    1    1    2  502    0 -0.55201809290E+02  0.25094346073E+02  0.49769946320E+03  0.50137981773E+03  0.00000000000E+00 0. -1.
         22    1    3    3    0    0  0.47767901062E+02 -0.24684537951E+02  0.11043446632E+03  0.12282862100E+03  0.00000000000E+00 0. -1.
         22    1    3    3    0    0 -0.41366034387E+01 -0.19488358525E+02  0.65015566762E+03  0.65046083645E+03  0.00000000000E+00 0. -1.
</event>
<event>
 7    1  0.5127424E-006  0.7459280E+02  0.7818608E-02  0.1355550E+00
          2   -1    0    0  502    0  0.00000000000E+00  0.00000000000E+00  0.26020277478E+03  0.26020277478E+03  0.00000000000E+00 0. -1.
          1   -1    0    0  501    0 -0.00000000000E+00 -0.00000000000E+00 -0.18183147914E+03  0.18183147914E+03  0.00000000000E+00 0. -1.
         25    2    1    2    0    0  0.20161244067E+02 -0.56820617064E+01 -0.38291758322E+02  0.13240677930E+03  0.12500613929E+03 0.  0.
          2    1    1    2  501    0 -0.74678284661E+02  0.56593536711E+02 -0.64469819214E+02  0.11373667916E+03  0.00000000000E+00 0. -1.
          1    1    1    2  502    0  0.54517040594E+02 -0.50911475005E+02  0.18113287317E+03  0.19589079546E+03  0.00000000000E+00 0. -1.
         22    1    3    3    0    0  0.39256673518E+02  0.52381179212E+02 -0.23199164856E+02  0.69448366442E+02  0.00000000000E+00 0. -1.
         22    1    3    3    0    0 -0.19095429452E+02 -0.58063240919E+02 -0.15092593467E+02  0.62958412857E+02  0.00000000000E+00 0. -1.
</event>
<event>
 7    1  0.5127424E-006  0.7219243E+02  0.7818608E-02  0.1380876E+00
          2   -1    0    0  502    0  0.00000000000E+00  0.00000000000E+00  0.33085745827E+03  0.33085745827E+03  0.00000000000E+00 0. -1.
          1   -1    0    0  501    0 -0.00000000000E+00 -0.00000000000E+00 -0.35875431777E+04  0.35875431777E+04  0.00000000000E+00 0. -1.
         25    2    1    2    0    0  0.93205024749E+02  0.86860469879E+01 -0.55363872501E+02  0.16568017272E+03  0.12498854829E+03 0.  0.
          2    1    1    2  501    0 -0.32271423222E+02 -0.47169992520E+02 -0.34720721884E+04  0.34725425461E+04  0.00000000000E+00 0. -1.
          1    1    1    2  502    0 -0.60933601527E+02  0.38483945532E+02  0.27075034146E+03  0.28017791715E+03  0.00000000000E+00 0. -1.
         22    1    3    3    0    0  0.75086184480E+02 -0.20753587189E+02  0.21996597970E+02  0.80947494113E+02  0.00000000000E+00 0. -1.
         22    1    3    3    0    0  0.18118840270E+02  0.29439634177E+02 -0.77360470471E+02  0.84732678611E+02  0.00000000000E+00 0. -1.
</event>
<event>
 7    1  0.5127424E-006  0.9117646E+02  0.7818608E-02  0.1329773E+00
          2   -1    0    0  502    0  0.00000000000E+00  0.00000000000E+00  0.44001230960E+03  0.44001230960E+03  0.00000000000E+00 0. -1.
          1   -1    0    0  501    0 -0.00000000000E+00 -0.00000000000E+00 -0.53754850357E+03  0.53754850357E+03  0.00000000000E+00 0. -1.
         25    2    1    2    0    0  0.12940771029E+03 -0.21851716090E+02 -0.17591397502E+03  0.25257555992E+03  0.12499933553E+03 0.  0.
          2    1    1    2  501    0 -0.59702452128E+02 -0.36062987038E+02 -0.31432011879E+03  0.32196592817E+03  0.00000000000E+00 0. -1.
          1    1    1    2  502    0 -0.69705258166E+02  0.57914703128E+02  0.39269789984E+03  0.40301932509E+03  0.00000000000E+00 0. -1.
         22    1    3    3    0    0  0.58033039430E+02  0.29667277625E+02 -0.11645860260E+02  0.66208814280E+02  0.00000000000E+00 0. -1.
         22    1    3    3    0    0  0.71374670864E+02 -0.51518993715E+02 -0.16426811476E+03  0.18636674564E+03  0.00000000000E+00 0. -1.
</event>
<event>
 7    1  0.5127424E-006  0.1083338E+03  0.7818608E-02  0.1326935E+00
          2   -1    0    0  502    0  0.00000000000E+00  0.00000000000E+00  0.30242012999E+04  0.30242012999E+04  0.00000000000E+00 0. -1.
          1   -1    0    0  501    0 -0.00000000000E+00 -0.00000000000E+00 -0.62376699293E+03  0.62376699293E+03  0.00000000000E+00 0. -1.
         25    2    1    2    0    0  0.52908236120E+01 -0.81785469901E+02  0.19422072354E+03  0.24507741300E+03  0.12499757202E+03 0.  0.
          2    1    1    2  501    0 -0.65196099336E+02  0.87636169621E+02 -0.59302753188E+03  0.60300272235E+03  0.00000000000E+00 0. -1.
          1    1    1    2  502    0  0.59905275724E+02 -0.58506997202E+01  0.27992411153E+04  0.27998881574E+04  0.00000000000E+00 0. -1.
         22    1    3    3    0    0 -0.48929922010E+02 -0.31076969939E+02  0.30924240393E+02  0.65697975406E+02  0.00000000000E+00 0.  1.
         22    1    3    3    0    0  0.54220745622E+02 -0.50708499962E+02  0.16329648315E+03  0.17937943760E+03  0.00000000000E+00 0.  1.
</event>
<event>
 7    1  0.5127424E-006  0.5546416E+02  0.7818608E-02  0.1479004E+00
          2   -1    0    0  502    0  0.00000000000E+00  0.00000000000E+00  0.30607746889E+03  0.30607746889E+03  0.00000000000E+00 0. -1.
          1   -1    0    0  501    0 -0.00000000000E+00 -0.00000000000E+00 -0.20853103873E+03  0.20853103873E+03  0.00000000000E+00 0. -1.
         25    2    1    2    0    0  0.64132329270E+02 -0.12329790188E+02 -0.43759953585E+02  0.14769132170E+03  0.12503125044E+03 0.  0.
          2    1    1    2  501    0 -0.40075816795E+02  0.38193426290E+02 -0.10467477593E+03  0.11841291154E+03  0.00000000000E+00 0. -1.
          1    1    1    2  502    0 -0.24056512475E+02 -0.25863636101E+02  0.24598115968E+03  0.24850427437E+03  0.00000000000E+00 0. -1.
         22    1    3    3    0    0  0.30797411566E+02 -0.91446750865E+01 -0.87149515894E+02  0.92882419016E+02  0.00000000000E+00 0.  1.
         22    1    3    3    0    0  0.33334917705E+02 -0.31851151019E+01  0.43389562309E+02  0.54808902689E+02  0.00000000000E+00 0.  1.
</event>
<event>
 7    1  0.5127424E-006  0.1326162E+03  0.7818608E-02  0.1373470E+00
          2   -1    0    0  502    0  0.00000000000E+00  0.00000000000E+00  0.12519723670E+04  0.12519723670E+04  0.00000000000E+00 0. -1.
          1   -1    0    0  501    0 -0.00000000000E+00 -0.00000000000E+00 -0.18794970233E+03  0.18794970233E+03  0.00000000000E+00 0. -1.
         25    2    1    2    0    0 -0.34578523750E+02  0.11258881631E+03  0.32086178477E+03  0.36393714038E+03  0.12500416536E+03 0.  0.
          2    1    1    2  501    0  0.23123589632E+02  0.23624706742E+02 -0.15957256541E+03  0.16296082596E+03  0.00000000000E+00 0. -1.
          1    1    1    2  502    0  0.11454934118E+02 -0.13621352306E+03  0.90273344532E+03  0.91302410301E+03  0.00000000000E+00 0. -1.
         22    1    3    3    0    0  0.45238513979E+02  0.45635699242E+02  0.89273454723E+02  0.10999495402E+03  0.00000000000E+00 0. -1.
         22    1    3    3    0    0 -0.79817037730E+02  0.66953117071E+02  0.23158833005E+03  0.25394218636E+03  0.00000000000E+00 0. -1.
</event>
<event>
 7    1  0.5127424E-006  0.1270116E+03  0.7818608E-02  0.1299089E+00
          2   -1    0    0  502    0  0.00000000000E+00  0.00000000000E+00  0.45513839847E+03  0.45513839847E+03  0.00000000000E+00 0. -1.
          1   -1    0    0  501    0 -0.00000000000E+00 -0.00000000000E+00 -0.19074790634E+04  0.19074790634E+04  0.00000000000E+00 0. -1.
         25    2    1    2    0    0 -0.88685123666E+02 -0.79739526931E+02 -0.24039112324E+03  0.29603546210E+03  0.12500263747E+03 0.  0.
          2    1    1    2  501    0 -0.36738896130E+02  0.54854750596E+02 -0.16290163526E+04  0.16303536632E+04  0.00000000000E+00 0. -1.
          1    1    1    2  502    0  0.12542401980E+03  0.24884776334E+02  0.41706681092E+03  0.43622833654E+03  0.00000000000E+00 0. -1.
         22    1    3    3    0    0 -0.83484131969E+02 -0.69832689210E+01 -0.18921468980E+03  0.20693130544E+03  0.00000000000E+00 0.  1.
         22    1    3    3    0    0 -0.52009916968E+01 -0.72756258010E+02 -0.51176433436E+02  0.89104156656E+02  0.00000000000E+00 0.  1.
</event>
<event>
 7    1  0.5127424E-006  0.9617717E+02  0.7818608E-02  0.1405737E+00
          2   -1    0    0  502    0  0.00000000000E+00  0.00000000000E+00  0.34789265685E+03  0.34789265685E+03  0.00000000000E+00 0. -1.
          1   -1    0    0  501    0 -0.00000000000E+00 -0.00000000000E+00 -0.28925038939E+03  0.28925038939E+03  0.00000000000E+00 0. -1.
         25    2    1    2    0    0  0.19869818351E+02 -0.82975980599E+02 -0.14262189164E+02  0.15201339653E+03  0.12499935859E+03 0.  0.
          2    1    1    2  501    0  0.35105509599E+02  0.20541361172E+01 -0.19592347767E+03  0.19905432771E+03  0.00000000000E+00 0. -1.
          1    1    1    2  502    0 -0.54975327949E+02  0.80921844482E+02  0.26882793430E+03  0.28607532200E+03  0.00000000000E+00 0. -1.
         22    1    3    3    0    0  0.92766283159E+01 -0.62552438080E+02 -0.68422305674E+02  0.93169068131E+02  0.00000000000E+00 0. -1.
         22    1    3    3    0    0  0.10593190035E+02 -0.20423542519E+02  0.54160116510E+02  0.58844328397E+02  0.00000000000E+00 0. -1.
</event>
<event>
 7    1  0.5127424E-006  0.3957863E+02  0.7818608E-02  0.1566271E+00
          2   -1    0    0  502    0  0.00000000000E+00  0.00000000000E+00  0.12440873955E+04  0.12440873955E+04  0.00000000000E+00 0. -1.
          1   -1    0    0  501    0 -0.00000000000E+00 -0.00000000000E+00 -0.98242726715E+03  0.98242726715E+03  0.00000000000E+00 0. -1.
         25    2    1    2    0    0  0.79869965897E+01  0.11400437501E+02 -0.39914263632E+03  0.41849096083E+03  0.12500431223E+03 0.  0.
          2    1    1    2  501    0 -0.24438796117E+02 -0.33636973736E+02 -0.57270178317E+03  0.57420905009E+03  0.00000000000E+00 0. -1.
          1    1    1    2  502    0  0.16451799527E+02  0.22236536235E+02  0.12335045479E+04  0.12338146518E+04  0.00000000000E+00 0. -1.
         22    1    3    3    0    0 -0.17986504621E+02 -0.51148445165E+02 -0.12783740941E+03  0.13885993316E+03  0.00000000000E+00 0. -1.
         22    1    3    3    0    0  0.25973501210E+02  0.62548882666E+02 -0.27130522691E+03  0.27963102767E+03  0.00000000000E+00 0. -1.
</event>
<event>
 7    1  0.5192126E-006  0.8010464E+02  0.7818608E-02  0.1357546E+00
          2   -1    0    0  502    0  0.00000000000E+00  0.00000000000E+00  0.11694171730E+04  0.11694171730E+04  0.00000000000E+00 0. -1.
          1   -1    0    0  501    0 -0.00000000000E+00 -0.00000000000E+00 -0.70457608810E+03  0.70457608810E+03  0.00000000000E+00 0. -1.
         25    2    1    2    0    0  0.10195958936E+02 -0.13229062824E+03 -0.35292385274E+03  0.39722044670E+03  0.12499627811E+03 0.  0.
          2    1    1    2  501    0 -0.13112198848E+02  0.69862986015E+02 -0.32480641042E+03  0.33249356509E+03  0.00000000000E+00 0. -1.
          1    1    1    2  502    0  0.29162399120E+01  0.62427642228E+02  0.11425713481E+04  0.11442792493E+04  0.00000000000E+00 0. -1.
         22    1    3    3    0    0 -0.24233245057E+01  0.24476916076E+02 -0.39115510256E+02  0.46206223227E+02  0.00000000000E+00 0. -1.
         22    1    3    3    0    0  0.12619283442E+02 -0.15676754432E+03 -0.31380834249E+03  0.35101422347E+03  0.00000000000E+00 0. -1.
</event>
<event>
 7    1  0.5127424E-006  0.5176544E+02  0.7818608E-02  0.1463293E+00
          2   -1    0    0  502    0  0.00000000000E+00  0.00000000000E+00  0.14490576690E+04  0.14490576690E+04  0.00000000000E+00 0. -1.
          1   -1    0    0  501    0 -0.00000000000E+00 -0.00000000000E+00 -0.12182316019E+03  0.12182316019E+03  0.00000000000E+00 0. -1.
         25    2    1    2    0    0  0.66177735785E+02 -0.58310355783E+02  0.91326320944E+03  0.92598892863E+03  0.12500486358E+03 0.  0.
          2    1    1    2  501    0 -0.29960653252E+02  0.29925455962E+02 -0.11053617856E+03  0.11836984594E+03  0.00000000000E+00 0. -1.
          1    1    1    2  502    0 -0.36217082532E+02  0.28384899821E+02  0.52450747795E+03  0.52652205465E+03  0.00000000000E+00 0. -1.
         22    1    3    3    0    0  0.97686367252E+02 -0.32323705078E+02  0.77557834092E+03  0.78237408646E+03  0.00000000000E+00 0.  1.
         22    1    3    3    0    0 -0.31508631468E+02 -0.25986650705E+02  0.13768486852E+03  0.14361484217E+03  0.00000000000E+00 0.  1.
</event>
<event>
 7    1  0.5127424E-006  0.4451771E+02  0.7818608E-02  0.1533359E+00
          2   -1    0    0  502    0  0.00000000000E+00  0.00000000000E+00  0.14153704190E+04  0.14153704190E+04  0.00000000000E+00 0. -1.
          1   -1    0    0  501    0 -0.00000000000E+00 -0.00000000000E+00 -0.61366393414E+02  0.61366393414E+02  0.00000000000E+00 0. -1.
         25    2    1    2    0    0  0.44272611674E+02 -0.74499889353E+01  0.16138706763E+03  0.20901250508E+03  0.12499950081E+03 0.  0.
          2    1    1    2  501    0 -0.15076460255E+02 -0.26378669057E+02 -0.30932913411E+02  0.43358724233E+02  0.00000000000E+00 0. -1.
          1    1    1    2  502    0 -0.29196151418E+02  0.33828657992E+02  0.12235498714E+04  0.12243655831E+04  0.00000000000E+00 0. -1.
         22    1    3    3    0    0  0.21218346116E+02 -0.49546581441E+02  0.15041215100E+03  0.15977764897E+03  0.00000000000E+00 0.  1.
         22    1    3    3    0    0  0.23054265557E+02  0.42096592505E+02  0.10974916639E+02  0.49234856110E+02  0.00000000000E+00 0.  1.
</event>
<event>
 7    1  0.5127424E-006  0.9030915E+02  0.7818608E-02  0.1359972E+00
          2   -1    0    0  502    0  0.00000000000E+00  0.00000000000E+00  0.83048761047E+03  0.83048761047E+03  0.00000000000E+00 0. -1.
          1   -1    0    0  501    0 -0.00000000000E+00 -0.00000000000E+00 -0.59237027877E+03  0.59237027877E+03  0.00000000000E+00 0. -1.
         25    2    1    2    0    0 -0.48293639216E+02  0.57041755426E+02  0.14471823137E+03  0.20531581633E+03  0.12500072198E+03 0.  0.
          2    1    1    2  501    0 -0.42284891460E+02 -0.34086605263E+02 -0.55741465435E+03  0.56005446663E+03  0.00000000000E+00 0. -1.
          1    1    1    2  502    0  0.90578530676E+02 -0.22955150163E+02  0.65081375468E+03  0.65748760629E+03  0.00000000000E+00 0. -1.
         22    1    3    3    0    0 -0.84315423654E+02  0.58500640679E+02  0.13175346939E+03  0.16700416858E+03  0.00000000000E+00 0.  1.
         22    1    3    3    0    0  0.36021784438E+02 -0.14588852527E+01  0.12964761973E+02  0.38311647750E+02  0.00000000000E+00 0.  1.
</event>
<event>
 7    1  0.5127424E-006  0.1345075E+03  0.7818608E-02  0.1410903E+00
          2   -1    0    0  502    0  0.00000000000E+00  0.00000000000E+00  0.23148457372E+04  0.23148457372E+04  0.00000000000E+00 0. -1.
          1   -1    0    0  501    0 -0.00000000000E+00 -0.00000000000E+00 -0.22317344745E+03  0.22317344745E+03  0.00000000000E+00 0. -1.
         25    2    1    2    0    0  0.11434574358E+03 -0.90164132132E+02  0.12046697612E+04  0.12198600350E+04  0.12499900647E+03 0.  0.
          2    1    1    2  501    0 -0.91599700247E+02  0.98274546505E+02 -0.19450022601E+03  0.23638682174E+03  0.00000000000E+00 0. -1.
          1    1    1    2  502    0 -0.22746043329E+02 -0.81104143734E+01  0.10815027545E+04  0.10817723279E+04  0.00000000000E+00 0. -1.
         22    1    3    3    0    0  0.25565079427E+02 -0.40643322148E+02  0.83755488001E+03  0.83893005069E+03  0.00000000000E+00 0. -1.
         22    1    3    3    0    0  0.88780664149E+02 -0.49520809984E+02  0.36711488122E+03  0.38092998433E+03  0.00000000000E+00 0. -1.
</event>
<event>
 7    1  0.5127424E-006  0.1425627E+03  0.7818608E-02  0.1231002E+00
          2   -1    0    0  502    0  0.00000000000E+00  0.00000000000E+00  0.97707811909E+03  0.97707811909E+03  0.00000000000E+00 0. -1.
          1   -1    0    0  501    0 -0.00000000000E+00 -0.00000000000E+00 -0.12021659584E+04  0.12021659584E+04  0.00000000000E+00 0. -1.
         25    2    1    2    0    0  0.14645176671E+03 -0.19467754750E+03 -0.92523846569E+02  0.28902016866E+03  0.12499811291E+03 0.  0.
          2    1    1    2  501    0 -0.54533639422E+02  0.12677776153E+03 -0.10029334551E+04  0.10123843312E+04  0.00000000000E+00 0. -1.
          1    1    1    2  502    0 -0.91918127292E+02  0.67899785969E+02  0.87036946237E+03  0.87783957765E+03  0.00000000000E+00 0. -1.
         22    1    3    3    0    0  0.42393428707E+02 -0.55204455997E+02 -0.91548069433E+02  0.11500340767E+03  0.00000000000E+00 0. -1.
         22    1    3    3    0    0  0.10405833801E+03 -0.13947309150E+03 -0.97577713607E+00  0.17401676098E+03  0.00000000000E+00 0. -1.
</event>
<event>
 7    1  0.5127424E-006  0.7965640E+02  0.7818608E-02  0.1490907E+00
          2   -1    0    0  502    0  0.00000000000E+00  0.00000000000E+00  0.34073938739E+03  0.34073938739E+03  0.00000000000E+00 0. -1.
          1   -1    0    0  501    0 -0.00000000000E+00 -0.00000000000E+00 -0.13517147288E+03  0.13517147288E+03  0.00000000000E+00 0. -1.
         25    2    1    2    0    0 -0.89453539326E+02  0.21901170745E+02  0.12693342395E+02  0.15578446327E+03  0.12500432424E+03 0.  0.
          2    1    1    2  501    0  0.18710079403E+02  0.12719471724E+02 -0.55302605293E+02  0.59751403200E+02  0.00000000000E+00 0. -1.
          1    1    1    2  502    0  0.70743459924E+02 -0.34620642469E+02  0.24817717741E+03  0.26037499379E+03  0.00000000000E+00 0. -1.
         22    1    3    3    0    0  0.17452531122E+02 -0.96198819976E+01  0.36709788068E+02  0.41770103091E+02  0.00000000000E+00 0. -1.
         22    1    3    3    0    0 -0.10690607045E+03  0.31521052743E+02 -0.24016445673E+02  0.11401436018E+03  0.00000000000E+00 0. -1.
</event>
<event>
 7    1  0.5127424E-006  0.3015289E+02  0.7818608E-02  0.1617385E+00
          2   -1    0    0  502    0  0.00000000000E+00  0.00000000000E+00  0.46985838153E+03  0.46985838153E+03  0.00000000000E+00 0. -1.
          1   -1    0    0  501    0 -0.00000000000E+00 -0.00000000000E+00 -0.40064006462E+03  0.40064006462E+03  0.00000000000E+00 0. -1.
         25    2    1    2    0    0 -0.95140096942E+01  0.38511419428E+01  0.11686881990E+03  0.17143267473E+03  0.12500197288E+03 0.  0.
          2    1    1    2  501    0 -0.15804539531E+02 -0.21403987094E+02 -0.37215361232E+03  0.37310350480E+03  0.00000000000E+00 0. -1.
          1    1    1    2  502    0  0.25318549226E+02  0.17552845151E+02  0.32450310932E+03  0.32596226663E+03  0.00000000000E+00 0. -1.
         22    1    3    3    0    0  0.81857795701E+01 -0.58770995881E+02  0.66621705684E+02  0.89215966129E+02  0.00000000000E+00 0. -1.
         22    1    3    3    0    0 -0.17699789264E+02  0.62622137824E+02  0.50247114220E+02  0.82216708600E+02  0.00000000000E+00 0. -1.
</event>
<event>
 7    1  0.5127424E-006  0.1588954E+03  0.7818608E-02  0.1295332E+00
          2   -1    0    0  502    0  0.00000000000E+00  0.00000000000E+00  0.17758338098E+04  0.17758338098E+04  0.00000000000E+00 0. -1.
          1   -1    0    0  501    0 -0.00000000000E+00 -0.00000000000E+00 -0.16668524618E+03  0.16668524618E+03  0.00000000000E+00 0. -1.
         25    2    1    2    0    0 -0.67804075377E+02 -0.19039945074E+03  0.48488425978E+03  0.53998802710E+03  0.12499992219E+03 0.  0.
          2    1    1    2  501    0  0.28103786156E+02  0.15285539599E+03 -0.94927845562E+02  0.18211504809E+03  0.00000000000E+00 0. -1.
          1    1    1    2  502    0  0.39700289222E+02  0.37544054750E+02  0.12191921494E+04  0.12204159808E+04  0.00000000000E+00 0. -1.
         22    1    3    3    0    0 -0.83691674771E+02 -0.20020506083E+03  0.46224478422E+03  0.51064332302E+03  0.00000000000E+00 0. -1.
         22    1    3    3    0    0  0.15887599394E+02  0.98056100895E+01  0.22639475563E+02  0.29344704079E+02  0.00000000000E+00 0. -1.
</event>
<event>
 7    1  0.5127424E-006  0.7310266E+02  0.7818608E-02  0.1473575E+00
          2   -1    0    0  502    0  0.00000000000E+00  0.00000000000E+00  0.78072968817E+03  0.78072968817E+03  0.00000000000E+00 0. -1.
          1   -1    0    0  501    0 -0.00000000000E+00 -0.00000000000E+00 -0.18117969341E+04  0.18117969341E+04  0.00000000000E+00 0. -1.
         25    2    1    2    0    0  0.77495202273E+02  0.51081570849E+02  0.34156677006E+03  0.37537909026E+03  0.12500707877E+03 0.  0.
          2    1    1    2  501    0 -0.49749312557E+02 -0.53514714568E+02 -0.17936868687E+04  0.17951744767E+04  0.00000000000E+00 0. -1.
          1    1    1    2  502    0 -0.27745889715E+02  0.24331437185E+01  0.42105285275E+03  0.42197305529E+03  0.00000000000E+00 0. -1.
         22    1    3    3    0    0  0.50680986335E+02  0.35327101186E+02  0.33854178169E+03  0.34413239371E+03  0.00000000000E+00 0. -1.
         22    1    3    3    0    0  0.26814215938E+02  0.15754469663E+02  0.30249883707E+01  0.31246696551E+02  0.00000000000E+00 0. -1.
</event>
<event>
 7    1  0.5127424E-006  0.1878810E+03  0.7818608E-02  0.1355327E+00
          2   -1    0    0  502    0  0.00000000000E+00  0.00000000000E+00  0.21638919573E+04  0.21638919573E+04  0.00000000000E+00 0. -1.
          1   -1    0    0  501    0 -0.00000000000E+00 -0.00000000000E+00 -0.22624247977E+03  0.22624247977E+03  0.00000000000E+00 0. -1.
         25    2    1    2    0    0 -0.19934181100E+03 -0.61865758780E+02  0.44379200741E+03  0.50610472085E+03  0.12500445155E+03 0.  0.
          2    1    1    2  501    0  0.26875041210E+02 -0.38521927923E+01 -0.18907140705E+03  0.19101074366E+03  0.00000000000E+00 0. -1.
          1    1    1    2  502    0  0.17246676979E+03  0.65717951572E+02  0.16829288771E+04  0.16930189725E+04  0.00000000000E+00 0. -1.
         22    1    3    3    0    0 -0.72068990047E+02  0.30890161329E+02  0.21051859742E+03  0.22464688125E+03  0.00000000000E+00 0.  1.
         22    1    3    3    0    0 -0.12727282095E+03 -0.92755920109E+02  0.23327340999E+03  0.28145783961E+03  0.00000000000E+00 0.  1.
</event>
<event>
 7    1  0.5127424E-006  0.1105242E+03  0.7818608E-02  0.1355153E+00
          2   -1    0    0  502    0  0.00000000000E+00  0.00000000000E+00  0.65484846441E+03  0.65484846441E+03  0.00000000000E+00 0. -1.
          1   -1    0    0  501    0 -0.00000000000E+00 -0.00000000000E+00 -0.85349857470E+03  0.85349857470E+03  0.00000000000E+00 0. -1.
         25    2    1    2    0    0 -0.94260081039E+02 -0.12934450920E+01 -0.30163274792E+02  0.15944123243E+03  0.12500019030E+03 0.  0.
          2    1    1    2  501    0 -0.72894554653E+01 -0.45641953936E+02 -0.75267985560E+03  0.75409766552E+03  0.00000000000E+00 0. -1.
          1    1    1    2  502    0  0.10154953650E+03  0.46935399028E+02  0.58419302010E+03  0.59480814115E+03  0.00000000000E+00 0. -1.
         22    1    3    3    0    0 -0.25025077909E+02 -0.43597966495E+02  0.29902027969E+02  0.58490755539E+02  0.00000000000E+00 0.  1.
         22    1    3    3    0    0 -0.69235003130E+02  0.42304521403E+02 -0.60065302761E+02  0.10095047690E+03  0.00000000000E+00 0.  1.
</event>
<event>
 7    1  0.5127424E-006  0.7926313E+02  0.7818608E-02  0.1339156E+00
          2   -1    0    0  502    0  0.00000000000E+00  0.00000000000E+00  0.17166977724E+04  0.17166977724E+04  0.00000000000E+00 0. -1.
          1   -1    0    0  501    0 -0.00000000000E+00 -0.00000000000E+00 -0.90229389179E+02  0.90229389179E+02  0.00000000000E+00 0. -1.
         25    2    1    2    0    0  0.15110186184E+02  0.12020652850E+02  0.15334602531E+03  0.19877794643E+03  0.12499941874E+03 0.  0.
          2    1    1    2  501    0  0.63308787657E+02 -0.38155034985E+02 -0.45814937943E+02  0.86964463017E+02  0.00000000000E+00 0. -1.
          1    1    1    2  502    0 -0.78418973840E+02  0.26134382134E+02  0.15189372959E+04  0.15211847522E+04  0.00000000000E+00 0. -1.
         22    1    3    3    0    0 -0.27319047298E+02 -0.18834024971E+02  0.14104173808E+03  0.14489245226E+03  0.00000000000E+00 0. -1.
         22    1    3    3    0    0  0.42429233481E+02  0.30854677821E+02  0.12304287230E+02  0.53885494166E+02  0.00000000000E+00 0. -1.
</event>
<event>
 7    1  0.5127424E-006  0.1619401E+03  0.7818608E-02  0.1226485E+00
          2   -1    0    0  502    0  0.00000000000E+00  0.00000000000E+00  0.88473792617E+03  0.88473792617E+03  0.00000000000E+00 0. -1.
          1   -1    0    0  501    0 -0.00000000000E+00 -0.00000000000E+00 -0.29681079950E+03  0.29681079950E+03  0.00000000000E+00 0. -1.
         25    2    1    2    0    0 -0.50958772476E+02  0.25190391479E+03  0.10542360303E+03  0.30461418901E+03  0.12499315698E+03 0.  0.
          2    1    1    2  501    0  0.36095296025E+02 -0.99044263246E+02 -0.17359764538E+03  0.20309795409E+03  0.00000000000E+00 0. -1.
          1    1    1    2  502    0  0.14863476452E+02 -0.15285965155E+03  0.65610116902E+03  0.67383658256E+03  0.00000000000E+00 0. -1.
         22    1    3    3    0    0 -0.33928807468E+02  0.13689306175E+03 -0.92163072440E+01  0.14133582225E+03  0.00000000000E+00 0.  1.
         22    1    3    3    0    0 -0.17029965008E+02  0.11501085304E+03  0.11463991027E+03  0.16327836676E+03  0.00000000000E+00 0.  1.
</event>
<event>
 7    1  0.5127424E-006  0.1098524E+03  0.7818608E-02  0.1376563E+00
          2   -1    0    0  502    0  0.00000000000E+00  0.00000000000E+00  0.11849204377E+03  0.11849204377E+03  0.00000000000E+00 0. -1.
          1   -1    0    0  501    0 -0.00000000000E+00 -0.00000000000E+00 -0.49311842881E+03  0.49311842881E+03  0.00000000000E+00 0. -1.
         25    2    1    2    0    0 -0.44047976050E+02 -0.87686417071E+02 -0.92897400998E+02  0.18407885211E+03  0.12500385894E+03 0.  0.
          2    1    1    2  501    0  0.81792705439E+02  0.78247742682E+02 -0.33950442125E+03  0.35787708497E+03  0.00000000000E+00 0. -1.
          1    1    1    2  502    0 -0.37744729389E+02  0.94386743890E+01  0.57775437206E+02  0.69654535497E+02  0.00000000000E+00 0. -1.
         22    1    3    3    0    0 -0.23092703588E+02 -0.57814343286E+02  0.20033177574E+02  0.65399537095E+02  0.00000000000E+00 0.  1.
         22    1    3    3    0    0 -0.20955272462E+02 -0.29872073785E+02 -0.11293057857E+03  0.11867931502E+03  0.00000000000E+00 0.  1.
</event>
<event>
 7    1  0.5127424E-006  0.4752065E+02  0.7818608E-02  0.1502855E+00
          2   -1    0    0  502    0  0.00000000000E+00  0.00000000000E+00  0.23068304197E+04  0.23068304197E+04  0.00000000000E+00 0. -1.
          1   -1    0    0  501    0 -0.00000000000E+00 -0.00000000000E+00 -0.35404977457E+03  0.35404977457E+03  0.00000000000E+00 0. -1.
         25    2    1    2    0    0  0.24234804036E+02 -0.13491474662E+02  0.13248073659E+04  0.13309807135E+04  0.12500302883E+03 0.  0.
          2    1    1    2  501    0  0.28672337428E+02  0.19936433573E+02 -0.34936647068E+03  0.35110752648E+03  0.00000000000E+00 0. -1.
          1    1    1    2  502    0 -0.52907141464E+02 -0.64449589118E+01  0.97733974989E+03  0.97879195432E+03  0.00000000000E+00 0. -1.
         22    1    3    3    0    0 -0.18887166286E+02 -0.60095540304E+02  0.55641371713E+03  0.55996823448E+03  0.00000000000E+00 0.  1.
         22    1    3    3    0    0  0.43121970322E+02  0.46604065642E+02  0.76839364880E+03  0.77101247900E+03  0.00000000000E+00 0.  1.
</event>
<event>
 7    1  0.5127424E-006  0.7019446E+02  0.7818608E-02  0.1390782E+00
          2   -1    0    0  502    0  0.00000000000E+00  0.00000000000E+00  0.92438564126E+02  0.92438564126E+02  0.00000000000E+00 0. -1.
          1   -1    0    0  501    0 -0.00000000000E+00 -0.00000000000E+00 -0.11710411648E+04  0.11710411648E+04  0.00000000000E+00 0. -1.
         25    2    1    2    0    0  0.11971490818E+02  0.17221739811E+02 -0.11094194864E+03  0.16844313353E+03  0.12500027340E+03 0.  0.
          2    1    1    2  501    0 -0.62793486797E+02 -0.36216058412E+02 -0.10182665637E+04  0.10208434844E+04  0.00000000000E+00 0. -1.
          1    1    1    2  502    0  0.50821995979E+02  0.18994318601E+02  0.50605911710E+02  0.74193110963E+02  0.00000000000E+00 0. -1.
         22    1    3    3    0    0  0.38746294983E+02  0.57555629490E+02 -0.33336695047E+02  0.76975717583E+02  0.00000000000E+00 0. -1.
         22    1    3    3    0    0 -0.26774804165E+02 -0.40333889678E+02 -0.77605253591E+02  0.91467415945E+02  0.00000000000E+00 0. -1.
</event>
<event>
 7    1  0.5127424E-006  0.4265055E+02  0.7818608E-02  0.1532945E+00
          2   -1    0    0  502    0  0.00000000000E+00  0.00000000000E+00  0.21441829838E+04  0.21441829838E+04  0.00000000000E+00 0. -1.
          1   -1    0    0  501    0 -0.00000000000E+00 -0.00000000000E+00 -0.19066814921E+03  0.19066814921E+03  0.00000000000E+00 0. -1.
         25    2    1    2    0    0 -0.28977584698E+02 -0.24594299600E+02 -0.11363372425E+03  0.17315398335E+03  0.12500039470E+03 0.  0.
          2    1    1    2  501    0 -0.13489978444E+02  0.28796617378E+02 -0.41686244795E+02  0.52430598852E+02  0.00000000000E+00 0. -1.
          1    1    1    2  502    0  0.42467563142E+02 -0.42023177785E+01  0.21088348036E+04  0.21092665508E+04  0.00000000000E+00 0. -1.
         22    1    3    3    0    0 -0.73465637143E+02 -0.37059375782E+02 -0.87336790148E+02  0.11999296683E+03  0.00000000000E+00 0.  1.
         22    1    3    3    0    0  0.44488052445E+02  0.12465076182E+02 -0.26296934098E+02  0.53161016521E+02  0.00000000000E+00 0.  1.
</event>
<event>
 7    1  0.5127424E-006  0.1089822E+03  0.7818608E-02  0.1311371E+00
          2   -1    0    0  502    0  0.00000000000E+00  0.00000000000E+00  0.66103689448E+03  0.66103689448E+03  0.00000000000E+00 0. -1.
          1   -1    0    0  501    0 -0.00000000000E+00 -0.00000000000E+00 -0.26910452780E+04  0.26910452780E+04  0.00000000000E+00 0. -1.
         25    2    1    2    0    0  0.10093686480E+03  0.38632048148E+02  0.51213092595E+03  0.53813042248E+03  0.12500232181E+03 0.  0.
          2    1    1    2  501    0 -0.10481307463E+03  0.30029231149E+02 -0.26681605612E+04  0.26703872970E+04  0.00000000000E+00 0. -1.
          1    1    1    2  502    0  0.38762098335E+01 -0.68661279297E+02  0.12602125176E+03  0.14356445303E+03  0.00000000000E+00 0. -1.
         22    1    3    3    0    0  0.10093006965E+03  0.73461704124E+02  0.44898172996E+03  0.46601297704E+03  0.00000000000E+00 0. -1.
         22    1    3    3    0    0  0.67951436129E-02 -0.34829655976E+02  0.63149195991E+02  0.72117445434E+02  0.00000000000E+00 0. -1.
</event>
<event>
 7    1  0.5127424E-006  0.9558611E+02  0.7818608E-02  0.1355957E+00
          2   -1    0    0  502    0  0.00000000000E+00  0.00000000000E+00  0.24449134244E+04  0.24449134244E+04  0.00000000000E+00 0. -1.
          1   -1    0    0  501    0 -0.00000000000E+00 -0.00000000000E+00 -0.17025662260E+02  0.17025662260E+02  0.00000000000E+00 0. -1.
         25    2    1    2    0    0 -0.37682042464E+02 -0.46779524221E+02  0.97895932459E+03  0.98873570666E+03  0.12501471195E+03 0.  0.
          2    1    1    2  501    0 -0.21608062716E+02 -0.48483959236E+02  0.61476946566E+02  0.81222026794E+02  0.00000000000E+00 0. -1.
          1    1    1    2  502    0  0.59290105180E+02  0.95263483456E+02  0.13874514910E+04  0.13919813533E+04  0.00000000000E+00 0. -1.
         22    1    3    3    0    0  0.11616396228E+02  0.12930403982E+02  0.19362952403E+02  0.26020375367E+02  0.00000000000E+00 0.  1.
         22    1    3    3    0    0 -0.49298438692E+02 -0.59709928203E+02  0.95959637219E+03  0.96271533129E+03  0.00000000000E+00 0.  1.
</event>
<event>
 7    1  0.5127424E-006  0.1054964E+03  0.7818608E-02  0.1417090E+00
          2   -1    0    0  502    0  0.00000000000E+00  0.00000000000E+00  0.69990241607E+03  0.69990241607E+03  0.00000000000E+00 0. -1.
          1   -1    0    0  501    0 -0.00000000000E+00 -0.00000000000E+00 -0.90701501912E+03  0.90701501912E+03  0.00000000000E+00 0. -1.
         25    2    1    2    0    0 -0.89389280721E+02 -0.54397731918E+02  0.33526431229E+02  0.16642932498E+03  0.12500056750E+03 0.  0.
          2    1    1    2  501    0  0.71574903545E+02  0.77718651875E+02 -0.83688112219E+03  0.84352425475E+03  0.00000000000E+00 0. -1.
          1    1    1    2  502    0  0.17814377176E+02 -0.23320919957E+02  0.59624208791E+03  0.59696385547E+03  0.00000000000E+00 0. -1.
         22    1    3    3    0    0 -0.13613720516E+02  0.35186582524E+02 -0.13431123664E+02  0.40047772208E+02  0.00000000000E+00 0.  1.
         22    1    3    3    0    0 -0.75775560204E+02 -0.89584314442E+02  0.46957554893E+02  0.12638155277E+03  0.00000000000E+00 0.  1.
</event>
<event>
 7    1  0.5127424E-006  0.1129746E+03  0.7818608E-02  0.1318578E+00
          2   -1    0    0  502    0  0.00000000000E+00  0.00000000000E+00  0.13853596376E+04  0.13853596376E+04  0.00000000000E+00 0. -1.
          1   -1    0    0  501    0 -0.00000000000E+00 -0.00000000000E+00 -0.27421225395E+03  0.27421225395E+03  0.00000000000E+00 0. -1.
         25    2    1    2    0    0 -0.10759593640E+02 -0.99363663943E+02  0.41041794990E+03  0.44051807710E+03  0.12499750430E+03 0.  0.
          2    1    1    2  501    0 -0.51373157759E+02  0.10157061185E+03 -0.24559499391E+03  0.27068928971E+03  0.00000000000E+00 0. -1.
          1    1    1    2  502    0  0.62132751399E+02 -0.22069479031E+01  0.94632442762E+03  0.94836452471E+03  0.00000000000E+00 0. -1.
         22    1    3    3    0    0  0.19355956821E+02 -0.51506419452E+02  0.45940165263E+02  0.71680283856E+02  0.00000000000E+00 0.  1.
         22    1    3    3    0    0 -0.30115550461E+02 -0.47857244491E+02  0.36447778464E+03  0.36883779324E+03  0.00000000000E+00 0.  1.
</event>
<event>
 7    1  0.5127424E-006  0.8970597E+02  0.7818608E-02  0.1306864E+00
          2   -1    0    0  502    0  0.00000000000E+00  0.00000000000E+00  0.28502446713E+04  0.28502446713E+04  0.00000000000E+00 0. -1.
          1   -1    0    0  501    0 -0.00000000000E+00 -0.00000000000E+00 -0.25282273913E+03  0.25282273913E+03  0.00000000000E+00 0. -1.
         25    2    1    2    0    0 -0.59794375032E+02 -0.49205495487E+02  0.97663713786E+02  0.17651257661E+03  0.12498776196E+03 0.  0.
          2    1    1    2  501    0 -0.21001670900E+02  0.88181900373E+02 -0.20299397474E+03  0.22231435292E+03  0.00000000000E+00 0. -1.
          1    1    1    2  502    0  0.80796045932E+02 -0.38976404886E+02  0.27027521931E+04  0.27042404809E+04  0.00000000000E+00 0. -1.
         22    1    3    3    0    0 -0.37937512145E+02 -0.86941690987E+02  0.92681951567E+02  0.13261997061E+03  0.00000000000E+00 0. -1.
         22    1    3    3    0    0 -0.21856862888E+02  0.37736195500E+02  0.49817622190E+01  0.43892605994E+02  0.00000000000E+00 0. -1.
</event>
<event>
 7    1  0.5127424E-006  0.9946786E+02  0.7818608E-02  0.1374247E+00
          2   -1    0    0  502    0  0.00000000000E+00  0.00000000000E+00  0.23157737484E+04  0.23157737484E+04  0.00000000000E+00 0. -1.
          1   -1    0    0  501    0 -0.00000000000E+00 -0.00000000000E+00 -0.46039235821E+03  0.46039235821E+03  0.00000000000E+00 0. -1.
         25    2    1    2    0    0 -0.86015790637E+02  0.24015662598E+02 -0.32309232224E+03  0.35775514887E+03  0.12499851825E+03 0.  0.
          2    1    1    2  501    0  0.11708668740E+02  0.42199525426E+02 -0.11485632027E+03  0.12292219968E+03  0.00000000000E+00 0. -1.
          1    1    1    2  502    0  0.74307121896E+02 -0.66215188024E+02  0.22933300327E+04  0.22954887581E+04  0.00000000000E+00 0. -1.
         22    1    3    3    0    0 -0.10014458789E+03  0.22106874679E+01 -0.13621847605E+03  0.16908370364E+03  0.00000000000E+00 0. -1.
         22    1    3    3    0    0  0.14128797250E+02  0.21804975130E+02 -0.18687384620E+03  0.18867144523E+03  0.00000000000E+00 0. -1.
</event>
<event>
 7    1  0.5127424E-006  0.4963971E+02  0.7818608E-02  0.1451756E+00
          2   -1    0    0  502    0  0.00000000000E+00  0.00000000000E+00  0.28193130332E+04  0.28193130332E+04  0.00000000000E+00 0. -1.
          1   -1    0    0  501    0 -0.00000000000E+00 -0.00000000000E+00 -0.23625150645E+02  0.23625150645E+02  0.00000000000E+00 0. -1.
         25    2    1    2    0    0  0.77430244063E+02  0.19338211725E+02  0.56651448954E+03  0.58560660744E+03  0.12500809046E+03 0.  0.
          2    1    1    2  501    0 -0.44771225612E+02  0.17400051050E+02  0.27978637053E+02  0.55588025246E+02  0.00000000000E+00 0. -1.
          1    1    1    2  502    0 -0.32659018451E+02 -0.36738262774E+02  0.22011947560E+04  0.22017435512E+04  0.00000000000E+00 0. -1.
         22    1    3    3    0    0  0.51997777938E+02 -0.16921691644E+02  0.51403696517E+03  0.51693724389E+03  0.00000000000E+00 0. -1.
         22    1    3    3    0    0  0.25432466126E+02  0.36259903369E+02  0.52477524375E+02  0.68669363548E+02  0.00000000000E+00 0. -1.
</event>
<event>
 7    1  0.5127424E-006  0.1353715E+03  0.7818608E-02  0.1372596E+00
          2   -1    0    0  502    0  0.00000000000E+00  0.00000000000E+00  0.42468305898E+03  0.42468305898E+03  0.00000000000E+00 0. -1.
          1   -1    0    0  501    0 -0.00000000000E+00 -0.00000000000E+00 -0.17388540215E+04  0.17388540215E+04  0.00000000000E+00 0. -1.
         25    2    1    2    0    0  0.13387401268E+03  0.82315529386E+02 -0.65157281245E+03  0.68181405960E+03  0.12500073716E+03 0.  0.
          2    1    1    2  501    0 -0.11836360791E+03 -0.53619841435E+02 -0.10675652343E+04  0.10754443549E+04  0.00000000000E+00 0. -1.
          1    1    1    2  502    0 -0.15510404767E+02 -0.28695687951E+02  0.40496708419E+03  0.40627866599E+03  0.00000000000E+00 0. -1.
         22    1    3    3    0    0  0.15825407877E+03  0.72762163243E+02 -0.58063549925E+03  0.60619820920E+03  0.00000000000E+00 0. -1.
         22    1    3    3    0    0 -0.24380066090E+02  0.95533661431E+01 -0.70937313198E+02  0.75615850395E+02  0.00000000000E+00 0. -1.
</event>
<event>
 7    1  0.5127424E-006  0.1678732E+03  0.7818608E-02  0.1202483E+00
          2   -1    0    0  502    0  0.00000000000E+00  0.00000000000E+00  0.31853787252E+04  0.31853787252E+04  0.00000000000E+00 0. -1.
          1   -1    0    0  501    0 -0.00000000000E+00 -0.00000000000E+00 -0.17163479427E+03  0.17163479427E+03  0.00000000000E+00 0. -1.
         25    2    1    2    0    0 -0.49782306295E+01  0.26285822947E+03  0.46470018722E+03  0.54835258205E+03  0.12500023461E+03 0.  0.
          2    1    1    2  501    0  0.65230451750E+02 -0.14637544884E+03 -0.78082894140E+02  0.17826307026E+03  0.00000000000E+00 0. -1.
          1    1    1    2  502    0 -0.60252221120E+02 -0.11648278063E+03  0.26271266379E+04  0.26303978672E+04  0.00000000000E+00 0. -1.
         22    1    3    3    0    0 -0.29371612598E+02  0.11618081210E+02  0.21171963815E+02  0.38025300648E+02  0.00000000000E+00 0. -1.
         22    1    3    3    0    0  0.24393381968E+02  0.25124014826E+03  0.44352822341E+03  0.51032728140E+03  0.00000000000E+00 0. -1.
</event>
<event>
 7    1  0.5127424E-006  0.4990028E+02  0.7818608E-02  0.1493644E+00
          2   -1    0    0  502    0  0.00000000000E+00  0.00000000000E+00  0.11726053850E+03  0.11726053850E+03  0.00000000000E+00 0. -1.
          1   -1    0    0  501    0 -0.00000000000E+00 -0.00000000000E+00 -0.58169219207E+03  0.58169219207E+03  0.00000000000E+00 0. -1.
         25    2    1    2    0    0  0.35978981349E+02  0.72903731378E+02 -0.10629888238E+03  0.18312565369E+03  0.12500444591E+03 0.  0.
          2    1    1    2  501    0 -0.30890257167E+02 -0.37835994282E+02 -0.43155017623E+03  0.43430556646E+03  0.00000000000E+00 0. -1.
          1    1    1    2  502    0 -0.50887241819E+01 -0.35067737096E+02  0.73417405041E+02  0.81521510423E+02  0.00000000000E+00 0. -1.
         22    1    3    3    0    0  0.57128461971E+02  0.43245444014E+02 -0.95024468142E+00  0.71657048223E+02  0.00000000000E+00 0. -1.
         22    1    3    3    0    0 -0.21149480622E+02  0.29658287364E+02 -0.10534863770E+03  0.11146860547E+03  0.00000000000E+00 0. -1.
</event>
<event>
 7    1  0.5127424E-006  0.1020407E+03  0.7818608E-02  0.1335571E+00
          2   -1    0    0  502    0  0.00000000000E+00  0.00000000000E+00  0.54577214026E+03  0.54577214026E+03  0.00000000000E+00 0. -1.
          1   -1    0    0  501    0 -0.00000000000E+00 -0.00000000000E+00 -0.89554438608E+02  0.89554438608E+02  0.00000000000E+00 0. -1.
         25    2    1    2    0    0 -0.25342504807E+02 -0.55591347005E+02  0.72585072153E+02  0.15692666399E+03  0.12499897904E+03 0.  0.
          2    1    1    2  501    0 -0.56418772094E+02 -0.18051644054E+02 -0.18044242856E+02  0.61923617448E+02  0.00000000000E+00 0. -1.
          1    1    1    2  502    0  0.81761276901E+02  0.73642991058E+02  0.40167687236E+03  0.41647629743E+03  0.00000000000E+00 0. -1.
         22    1    3    3    0    0  0.39337724168E+02 -0.15110801149E+01  0.59884623987E+02  0.71665250267E+02  0.00000000000E+00 0.  1.
         22    1    3    3    0    0 -0.64680228976E+02 -0.54080266890E+02  0.12700448166E+02  0.85261413728E+02  0.00000000000E+00 0.  1.
</event>
<event>
 7    1  0.5127424E-006  0.5857545E+02  0.7818608E-02  0.1524647E+00
          2   -1    0    0  502    0  0.00000000000E+00  0.00000000000E+00  0.31354536260E+03  0.31354536260E+03  0.00000000000E+00 0. -1.
          1   -1    0    0  501    0 -0.00000000000E+00 -0.00000000000E+00 -0.48657303549E+03  0.48657303549E+03  0.00000000000E+00 0. -1.
         25    2    1    2    0    0  0.76144247809E+02 -0.16314210366E+02 -0.18636744607E+03  0.23753032749E+03  0.12499492625E+03 0.  0.
          2    1    1    2  501    0 -0.52244779883E+02  0.21517432693E+02 -0.27118763335E+03  0.27701128031E+03  0.00000000000E+00 0. -1.
          1    1    1    2  502    0 -0.23899467926E+02 -0.52032223266E+01  0.28452740653E+03  0.28557679030E+03  0.00000000000E+00 0. -1.
         22    1    3    3    0    0 -0.75123081971E+00 -0.59082580568E+02 -0.80858968532E+02  0.10014733380E+03  0.00000000000E+00 0.  1.
         22    1    3    3    0    0  0.76895478628E+02  0.42768370202E+02 -0.10550847754E+03  0.13738299369E+03  0.00000000000E+00 0.  1.
</event>
<event>
 7    1  0.5127424E-006  0.3560947E+02  0.7818608E-02  0.1572617E+00
          2   -1    0    0  502    0  0.00000000000E+00  0.00000000000E+00  0.41832621652E+03  0.41832621652E+03  0.00000000000E+00 0. -1.
          1   -1    0    0  501    0 -0.00000000000E+00 -0.00000000000E+00 -0.89702196486E+03  0.89702196486E+03  0.00000000000E+00 0. -1.
         25    2    1    2    0    0  0.43771449086E+02 -0.36451883984E+02 -0.58972342492E+03  0.60550999452E+03  0.12499582380E+03 0.  0.
          2    1    1    2  501    0 -0.91796512479E+01  0.28084487211E+02 -0.29790153757E+03  0.29936320834E+03  0.00000000000E+00 0. -1.
          1    1    1    2  502    0 -0.34591797838E+02  0.83673967732E+01  0.40892921415E+03  0.41047497852E+03  0.00000000000E+00 0. -1.
         22    1    3    3    0    0 -0.20680154205E+02 -0.59769216081E+02 -0.19862613391E+03  0.20845231839E+03  0.00000000000E+00 0. -1.
         22    1    3    3    0    0  0.64451603291E+02  0.23317332097E+02 -0.39109729100E+03  0.39705767613E+03  0.00000000000E+00 0. -1.
</event>
<event>
 7    1  0.5127424E-006  0.2874251E+03  0.7818608E-02  0.1118051E+00
          2   -1    0    0  502    0  0.00000000000E+00  0.00000000000E+00  0.46337822398E+03  0.46337822398E+03  0.00000000000E+00 0. -1.
          1   -1    0    0  501    0 -0.00000000000E+00 -0.00000000000E+00 -0.12684842877E+04  0.12684842877E+04  0.00000000000E+00 0. -1.
         25    2    1    2    0    0 -0.14821609050E+03 -0.91964462870E+02 -0.69950096497E+03  0.73167611130E+03  0.12499143942E+03 0.  0.
          2    1    1    2  501    0  0.18072878548E+03  0.37754475663E+03 -0.40691931512E+03  0.58376901783E+03  0.00000000000E+00 0. -1.
          1    1    1    2  502    0 -0.32512694985E+02 -0.28558029376E+03  0.30131421636E+03  0.41641738257E+03  0.00000000000E+00 0. -1.
         22    1    3    3    0    0 -0.12643354357E+03 -0.69146774812E+02 -0.67883879553E+03  0.69396601338E+03  0.00000000000E+00 0. -1.
         22    1    3    3    0    0 -0.21782546922E+02 -0.22817688058E+02 -0.20662169441E+02  0.37710097915E+02  0.00000000000E+00 0. -1.
</event>
<event>
 7    1  0.5127424E-006  0.6388353E+02  0.7818608E-02  0.1382501E+00
          2   -1    0    0  502    0  0.00000000000E+00  0.00000000000E+00  0.15605042271E+04  0.15605042271E+04  0.00000000000E+00 0. -1.
          1   -1    0    0  501    0 -0.00000000000E+00 -0.00000000000E+00 -0.58952097936E+02  0.58952097936E+02  0.00000000000E+00 0. -1.
         25    2    1    2    0    0  0.10349721889E+02 -0.66187701151E+00  0.24545335408E+03  0.27564249838E+03  0.12499553216E+03 0.  0.
          2    1    1    2  501    0 -0.42968462424E+02  0.55421168006E+02 -0.14505834757E+02  0.71611548428E+02  0.00000000000E+00 0. -1.
          1    1    1    2  502    0  0.32618740534E+02 -0.54759290995E+02  0.12706046098E+04  0.12722022782E+04  0.00000000000E+00 0. -1.
         22    1    3    3    0    0  0.27471722515E+02  0.55232532682E+02  0.16530618868E+03  0.17644110695E+03  0.00000000000E+00 0.  1.
         22    1    3    3    0    0 -0.17122000625E+02 -0.55894409694E+02  0.80147165398E+02  0.99201391430E+02  0.00000000000E+00 0.  1.
</event>
<event>
 7    1  0.5127424E-006  0.4913329E+02  0.7818608E-02  0.1480044E+00
          2   -1    0    0  502    0  0.00000000000E+00  0.00000000000E+00  0.13052998970E+04  0.13052998970E+04  0.00000000000E+00 0. -1.
          1   -1    0    0  501    0 -0.00000000000E+00 -0.00000000000E+00 -0.87971819671E+02  0.87971819671E+02  0.00000000000E+00 0. -1.
         25    2    1    2    0    0  0.74180550383E+01 -0.25317030633E+02  0.13735656954E+03  0.18758903877E+03  0.12500736254E+03 0.  0.
          2    1    1    2  501    0  0.28103396344E+02  0.42778348772E+02 -0.52032168927E+02  0.72987222258E+02  0.00000000000E+00 0. -1.
          1    1    1    2  502    0 -0.35521451382E+02 -0.17461318139E+02  0.11320036767E+04  0.11326954556E+04  0.00000000000E+00 0. -1.
         22    1    3    3    0    0 -0.50085595230E+02 -0.29263259722E+02  0.28992907587E+02  0.64849779564E+02  0.00000000000E+00 0.  1.
         22    1    3    3    0    0  0.57503650268E+02  0.39462290897E+01  0.10836366196E+03  0.12273925921E+03  0.00000000000E+00 0.  1.
</event>
<event>
 7    1  0.5127424E-006  0.1396089E+03  0.7818608E-02  0.1376069E+00
          2   -1    0    0  502    0  0.00000000000E+00  0.00000000000E+00  0.96559636498E+03  0.96559636498E+03  0.00000000000E+00 0. -1.
          1   -1    0    0  501    0 -0.00000000000E+00 -0.00000000000E+00 -0.69208982205E+03  0.69208982205E+03  0.00000000000E+00 0. -1.
         25    2    1    2    0    0  0.10371160918E+03 -0.95164916916E+02  0.43204506687E+03  0.47127656766E+03  0.12500481643E+03 0.  0.
          2    1    1    2  501    0 -0.23524700325E+02 -0.19784936761E+02 -0.66255572894E+03  0.66326838399E+03  0.00000000000E+00 0. -1.
          1    1    1    2  502    0 -0.80186908854E+02  0.11494985368E+03  0.50401720501E+03  0.52314123538E+03  0.00000000000E+00 0. -1.
         22    1    3    3    0    0  0.42008491680E+02 -0.11218144972E+03  0.32719624762E+03  0.34843475070E+03  0.00000000000E+00 0.  1.
         22    1    3    3    0    0  0.61703117499E+02  0.17016532804E+02  0.10484881924E+03  0.12284181696E+03  0.00000000000E+00 0.  1.
</event>
<event>
 7    1  0.5127424E-006  0.7520720E+02  0.7818608E-02  0.1377158E+00
          2   -1    0    0  502    0  0.00000000000E+00  0.00000000000E+00  0.12360875851E+04  0.12360875851E+04  0.00000000000E+00 0. -1.
          1   -1    0    0  501    0 -0.00000000000E+00 -0.00000000000E+00 -0.15668711485E+03  0.15668711485E+03  0.00000000000E+00 0. -1.
         25    2    1    2    0    0  0.30565661302E+02 -0.10331612699E+03  0.28582918262E+03  0.33005988447E+03  0.12503089198E+03 0.  0.
          2    1    1    2  501    0 -0.53712298207E+02  0.51716657631E+02 -0.12330487050E+03  0.14409619962E+03  0.00000000000E+00 0. -1.
          1    1    1    2  502    0  0.23146636905E+02  0.51599469359E+02  0.91687615813E+03  0.91861861585E+03  0.00000000000E+00 0. -1.
         22    1    3    3    0    0  0.15737167471E+01 -0.12734543072E+03  0.21757858909E+03  0.25211064583E+03  0.00000000000E+00 0.  1.
         22    1    3    3    0    0  0.28991944555E+02  0.24029303733E+02  0.68250593538E+02  0.77949238644E+02  0.00000000000E+00 0.  1.
</event>
<event>
 7    1  0.5127424E-006  0.1073083E+03  0.7818608E-02  0.1345652E+00
          2   -1    0    0  502    0  0.00000000000E+00  0.00000000000E+00  0.11125403044E+03  0.11125403044E+03  0.00000000000E+00 0. -1.
          1   -1    0    0  501    0 -0.00000000000E+00 -0.00000000000E+00 -0.25779956279E+03  0.25779956279E+03  0.00000000000E+00 0. -1.
         25    2    1    2    0    0  0.81613094733E+02 -0.13800442847E+02 -0.43401689151E+02  0.15607758154E+03  0.12500142152E+03 0.  0.
          2    1    1    2  501    0  0.51440230922E+02  0.43315810111E+01 -0.40476320129E+02  0.65598722873E+02  0.00000000000E+00 0. -1.
          1    1    1    2  502    0 -0.13305332565E+03  0.94688618360E+01 -0.62667523076E+02  0.14737728882E+03  0.00000000000E+00 0. -1.
         22    1    3    3    0    0  0.16692179542E+02  0.52375336676E+02 -0.29348511200E+02  0.62314844616E+02  0.00000000000E+00 0. -1.
         22    1    3    3    0    0  0.64920915191E+02 -0.66175779524E+02 -0.14053177950E+02  0.93762736923E+02  0.00000000000E+00 0. -1.
</event>
<event>
 7    1  0.6435081E-006  0.1006129E+03  0.7818608E-02  0.1374388E+00
          2   -1    0    0  502    0  0.00000000000E+00  0.00000000000E+00  0.13642847813E+04  0.13642847813E+04  0.00000000000E+00 0. -1.
          1   -1    0    0  501    0 -0.00000000000E+00 -0.00000000000E+00 -0.78894162827E+03  0.78894162827E+03  0.00000000000E+00 0. -1.
         25    2    1    2    0    0 -0.10879658313E+03 -0.27100270383E+02 -0.10233659686E+03  0.19664446763E+03  0.12500058575E+03 0.  0.
          2    1    1    2  501    0  0.93649510796E+01  0.42219065511E+02 -0.63679673225E+03  0.63826344875E+03  0.00000000000E+00 0. -1.
          1    1    1    2  502    0  0.99431632049E+02 -0.15118795128E+02  0.13144764822E+04  0.13183184932E+04  0.00000000000E+00 0. -1.
         22    1    3    3    0    0 -0.95904761294E+02 -0.60835984368E+02 -0.11173992864E+03  0.15932530209E+03  0.00000000000E+00 0. -1.
         22    1    3    3    0    0 -0.12891821835E+02  0.33735713985E+02  0.94033317825E+01  0.37319165545E+02  0.00000000000E+00 0. -1.
</event>
<event>
 7    1  0.5127424E-006  0.1597638E+03  0.7818608E-02  0.1203079E+00
          2   -1    0    0  502    0  0.00000000000E+00  0.00000000000E+00  0.18460847244E+04  0.18460847244E+04  0.00000000000E+00 0. -1.
          1   -1    0    0  501    0 -0.00000000000E+00 -0.00000000000E+00 -0.50754515459E+03  0.50754515459E+03  0.00000000000E+00 0. -1.
         25    2    1    2    0    0  0.83211317254E+02 -0.12335276454E+03 -0.17943840518E+03  0.26450709679E+03  0.12500334061E+03 0.  0.
          2    1    1    2  501    0  0.77328739571E+02  0.11298695668E+03 -0.26533012972E+03  0.29857304647E+03  0.00000000000E+00 0. -1.
          1    1    1    2  502    0 -0.16054005682E+03  0.10365807861E+02  0.17833081047E+04  0.17905497357E+04  0.00000000000E+00 0. -1.
         22    1    3    3    0    0  0.11142910980E+03 -0.10739615696E+03 -0.17175333779E+03  0.23119167391E+03  0.00000000000E+00 0.  1.
         22    1    3    3    0    0 -0.28217792548E+02 -0.15956607573E+02 -0.76850673869E+01  0.33315422889E+02  0.00000000000E+00 0.  1.
</event>
<event>
 7    1  0.5127424E-006  0.6686444E+02  0.7818608E-02  0.1376783E+00
          2   -1    0    0  502    0  0.00000000000E+00  0.00000000000E+00  0.32929264623E+04  0.32929264623E+04  0.00000000000E+00 0. -1.
          1   -1    0    0  501    0 -0.00000000000E+00 -0.00000000000E+00 -0.15341306977E+03  0.15341306977E+03  0.00000000000E+00 0. -1.
         25    2    1    2    0    0 -0.79528989325E+02 -0.86154888551E+02  0.92911720030E+03  0.94479164332E+03  0.12499980978E+03 0.  0.
          2    1    1    2  501    0  0.58664779624E+02  0.25090639584E+02 -0.13811994022E+03  0.15214537275E+03  0.00000000000E+00 0. -1.
          1    1    1    2  502    0  0.20864209701E+02  0.61064248967E+02  0.23485161324E+04  0.23494025160E+04  0.00000000000E+00 0. -1.
         22    1    3    3    0    0 -0.85421672517E+02 -0.35472417597E+01  0.56070528832E+03  0.56718591785E+03  0.00000000000E+00 0. -1.
         22    1    3    3    0    0  0.58926831921E+01 -0.82607646792E+02  0.36841191198E+03  0.37760572547E+03  0.00000000000E+00 0. -1.
</event>
<event>
 7    1  0.5127424E-006  0.1909387E+03  0.7818608E-02  0.1239102E+00
          2   -1    0    0  502    0  0.00000000000E+00  0.00000000000E+00  0.72884568164E+03  0.72884568164E+03  0.00000000000E+00 0. -1.
          1   -1    0    0  501    0 -0.00000000000E+00 -0.00000000000E+00 -0.37365514809E+03  0.37365514809E+03  0.00000000000E+00 0. -1.
         25    2    1    2    0    0 -0.12512112431E+03 -0.16955468678E+03  0.44982306205E+02  0.24910000813E+03  0.12499327431E+03 0.  0.
          2    1    1    2  501    0  0.47760047387E+02  0.18307346319E+03 -0.23549018682E+03  0.30208035874E+03  0.00000000000E+00 0. -1.
          1    1    1    2  502    0  0.77361076924E+02 -0.13518776410E+02  0.54569841417E+03  0.55132046285E+03  0.00000000000E+00 0. -1.
         22    1    3    3    0    0  0.12338279338E+02  0.97683274333E+01 -0.70432288259E+01  0.17241242129E+02  0.00000000000E+00 0. -1.
         22    1    3    3    0    0 -0.13745940365E+03 -0.17932301421E+03  0.52025535031E+02  0.23185876601E+03  0.00000000000E+00 0. -1.
</event>
<event>
 7    1  0.5127424E-006  0.8320336E+02  0.7818608E-02  0.1415267E+00
          2   -1    0    0  502    0  0.00000000000E+00  0.00000000000E+00  0.16170667441E+03  0.16170667441E+03  0.00000000000E+00 0. -1.
          1   -1    0    0  501    0 -0.00000000000E+00 -0.00000000000E+00 -0.39247344189E+03  0.39247344189E+03  0.00000000000E+00 0. -1.
         25    2    1    2    0    0 -0.20346359077E+02 -0.95050182848E+02 -0.13420316763E+03  0.20756513586E+03  0.12499713531E+03 0.  0.
          2    1    1    2  501    0 -0.26419056718E+02  0.26947606255E+02 -0.20603875594E+03  0.20946624785E+03  0.00000000000E+00 0. -1.
          1    1    1    2  502    0  0.46765415795E+02  0.68102576593E+02  0.10947515609E+03  0.13714873260E+03  0.00000000000E+00 0. -1.
         22    1    3    3    0    0  0.14845731360E+02  0.24264065315E+02 -0.62785890757E+01  0.29130075283E+02  0.00000000000E+00 0. -1.
         22    1    3    3    0    0 -0.35192090437E+02 -0.11931424816E+03 -0.12792457856E+03  0.17843506058E+03  0.00000000000E+00 0. -1.
</event>
<event>
 7    1  0.5127424E-006  0.7679468E+02  0.7818608E-02  0.1388837E+00
          2   -1    0    0  502    0  0.00000000000E+00  0.00000000000E+00  0.24700440989E+04  0.24700440989E+04  0.00000000000E+00 0. -1.
          1   -1    0    0  501    0 -0.00000000000E+00 -0.00000000000E+00 -0.48731743467E+03  0.48731743467E+03  0.00000000000E+00 0. -1.
         25    2    1    2    0    0 -0.21004473103E+02 -0.11195208815E+03  0.12204676969E+04  0.12321287259E+04  0.12500136038E+03 0.  0.
          2    1    1    2  501    0 -0.13742300749E+02  0.75480002171E+02 -0.47791615098E+03  0.48403504927E+03  0.00000000000E+00 0. -1.
          1    1    1    2  502    0  0.34746773852E+02  0.36472085976E+02  0.12401751183E+04  0.12411977584E+04  0.00000000000E+00 0. -1.
         22    1    3    3    0    0 -0.44541191547E+01  0.26886247027E+02  0.13773436414E+03  0.14040464566E+03  0.00000000000E+00 0. -1.
         22    1    3    3    0    0 -0.16550353949E+02 -0.13883833517E+03  0.10827333327E+04  0.10917240802E+04  0.00000000000E+00 0. -1.
</event>
<event>
 7    1  0.5127424E-006  0.1405072E+03  0.7818608E-02  0.1243382E+00
          2   -1    0    0  502    0  0.00000000000E+00  0.00000000000E+00  0.87188074647E+03  0.87188074647E+03  0.00000000000E+00 0. -1.
          1   -1    0    0  501    0 -0.00000000000E+00 -0.00000000000E+00 -0.51549595749E+03  0.51549595749E+03  0.00000000000E+00 0. -1.
         25    2    1    2    0    0  0.22140664267E+03 -0.10431366542E+01 -0.32158484492E+03  0.40995965281E+03  0.12501245897E+03 0.  0.
          2    1    1    2  501    0 -0.90183173731E+02  0.48063165945E+02 -0.12555789173E+03  0.16188840885E+03  0.00000000000E+00 0. -1.
          1    1    1    2  502    0 -0.13122346893E+03 -0.47020029291E+02  0.80352752564E+03  0.81552864230E+03  0.00000000000E+00 0. -1.
         22    1    3    3    0    0  0.23420011692E+03 -0.63018533408E+00 -0.32072185457E+03  0.39713045702E+03  0.00000000000E+00 0.  1.
         22    1    3    3    0    0 -0.12793474250E+02 -0.41295132011E+00 -0.86299034965E+00  0.12829195786E+02  0.00000000000E+00 0.  1.
</event>
<event>
 7    1  0.5127424E-006  0.5806891E+02  0.7818608E-02  0.1441399E+00
          2   -1    0    0  502    0  0.00000000000E+00  0.00000000000E+00  0.62468107750E+03  0.62468107750E+03  0.00000000000E+00 0. -1.
          1   -1    0    0  501    0 -0.00000000000E+00 -0.00000000000E+00 -0.27489412228E+03  0.27489412228E+03  0.00000000000E+00 0. -1.
         25    2    1    2    0    0 -0.92915055215E+02  0.66076940940E+01  0.43523038537E+03  0.46230651011E+03  0.12499980733E+03 0.  0.
          2    1    1    2  501    0  0.43785184412E+02 -0.69498377997E+01 -0.25598268834E+03  0.25979333969E+03  0.00000000000E+00 0. -1.
          1    1    1    2  502    0  0.49129870803E+02  0.34214370566E+00  0.17053925819E+03  0.17747534998E+03  0.00000000000E+00 0. -1.
         22    1    3    3    0    0 -0.14416510679E+02 -0.49795971380E+02  0.90663951584E+02  0.10443862630E+03  0.00000000000E+00 0.  1.
         22    1    3    3    0    0 -0.78498544535E+02  0.56403665474E+02  0.34456643378E+03  0.35786788381E+03  0.00000000000E+00 0.  1.
</event>
<event>
 7    1  0.5127424E-006  0.5954134E+02  0.7818608E-02  0.1425295E+00
          2   -1    0    0  502    0  0.00000000000E+00  0.00000000000E+00  0.20409037645E+04  0.20409037645E+04  0.00000000000E+00 0. -1.
          1   -1    0    0  501    0 -0.00000000000E+00 -0.00000000000E+00 -0.81048924511E+02  0.81048924511E+02  0.00000000000E+00 0. -1.
         25    2    1    2    0    0 -0.24268759473E+02 -0.20230148796E+02  0.31271180574E+02  0.13267700519E+03  0.12500827718E+03 0.  0.
          2    1    1    2  501    0 -0.20426812149E+02  0.59568128411E+02  0.32873231437E+01  0.63058885737E+02  0.00000000000E+00 0. -1.
          1    1    1    2  502    0  0.44695571623E+02 -0.39337979615E+02  0.19252963363E+04  0.19262167981E+04  0.00000000000E+00 0. -1.
         22    1    3    3    0    0 -0.30728453992E+02  0.42680158389E+02 -0.14566411622E+02  0.54571184268E+02  0.00000000000E+00 0.  1.
         22    1    3    3    0    0  0.64596945189E+01 -0.62910307185E+02  0.45837592196E+02  0.78105820921E+02  0.00000000000E+00 0.  1.
</event>
<event>
 7    1  0.5127424E-006  0.4968177E+02  0.7818608E-02  0.1514855E+00
          2   -1    0    0  502    0  0.00000000000E+00  0.00000000000E+00  0.15430654547E+04  0.15430654547E+04  0.00000000000E+00 0. -1.
          1   -1    0    0  501    0 -0.00000000000E+00 -0.00000000000E+00 -0.68869228764E+03  0.68869228764E+03  0.00000000000E+00 0. -1.
         25    2    1    2    0    0  0.77566724062E+02 -0.10770707217E+02 -0.21244926009E+03  0.25864461773E+03  0.12501897997E+03 0.  0.
          2    1    1    2  501    0 -0.48079249339E+02  0.19101563606E+01 -0.45171152067E+03  0.45426705892E+03  0.00000000000E+00 0. -1.
          1    1    1    2  502    0 -0.29487474723E+02  0.88605508561E+01  0.15185339478E+04  0.15188460657E+04  0.00000000000E+00 0. -1.
         22    1    3    3    0    0  0.29621971424E+02 -0.65815274494E+02 -0.12862829765E+03  0.14749356089E+03  0.00000000000E+00 0. -1.
         22    1    3    3    0    0  0.47944752639E+02  0.55044567277E+02 -0.83820962440E+02  0.11115105684E+03  0.00000000000E+00 0. -1.
</event>
<event>
 7    1  0.5127424E-006  0.8762893E+02  0.7818608E-02  0.1336588E+00
          2   -1    0    0  502    0  0.00000000000E+00  0.00000000000E+00  0.28350830708E+03  0.28350830708E+03  0.00000000000E+00 0. -1.
          1   -1    0    0  501    0 -0.00000000000E+00 -0.00000000000E+00 -0.37288747021E+04  0.37288747021E+04  0.00000000000E+00 0. -1.
         25    2    1    2    0    0  0.84880962351E+02 -0.54632340456E+02 -0.39660854852E+03  0.42791679760E+03  0.12499989803E+03 0.  0.
          2    1    1    2  501    0 -0.86980413986E+02 -0.13705127439E+02 -0.33116544286E+04  0.33128248486E+04  0.00000000000E+00 0. -1.
          1    1    1    2  502    0  0.20994516345E+01  0.68337467895E+02  0.26289658210E+03  0.27164136300E+03  0.00000000000E+00 0. -1.
         22    1    3    3    0    0  0.43691222071E+02  0.20015679948E+02 -0.27637793757E+03  0.28052506966E+03  0.00000000000E+00 0. -1.
         22    1    3    3    0    0  0.41189740280E+02 -0.74648020404E+02 -0.12023061095E+03  0.14739172794E+03  0.00000000000E+00 0. -1.
</event>
<event>
 7    1  0.5127424E-006  0.1211896E+03  0.7818608E-02  0.1312051E+00
          2   -1    0    0  502    0  0.00000000000E+00  0.00000000000E+00  0.16122770066E+04  0.16122770066E+04  0.00000000000E+00 0. -1.
          1   -1    0    0  501    0 -0.00000000000E+00 -0.00000000000E+00 -0.22713545195E+02  0.22713545195E+02  0.00000000000E+00 0. -1.
         25    2    1    2    0    0  0.59113334072E+02  0.80957464183E+02  0.10355476212E+04  0.10478702372E+04  0.12499864405E+03 0.  0.
          2    1    1    2  501    0 -0.21304792350E+02 -0.12941737067E+03  0.33887509988E+03  0.36337182517E+03  0.00000000000E+00 0. -1.
          1    1    1    2  502    0 -0.37808541723E+02  0.48459906483E+02  0.21514074036E+03  0.22374848944E+03  0.00000000000E+00 0. -1.
         22    1    3    3    0    0  0.22805634288E+01 -0.20211888146E+02  0.33976951329E+02  0.39599931990E+02  0.00000000000E+00 0.  1.
         22    1    3    3    0    0  0.56832770644E+02  0.10116935233E+03  0.10015706698E+04  0.10082703052E+04  0.00000000000E+00 0.  1.
</event>
<event>
 7    1  0.5127424E-006  0.1077436E+03  0.7818608E-02  0.1334943E+00
          2   -1    0    0  502    0  0.00000000000E+00  0.00000000000E+00  0.23219282294E+04  0.23219282294E+04  0.00000000000E+00 0. -1.
          1   -1    0    0  501    0 -0.00000000000E+00 -0.00000000000E+00 -0.10399168213E+04  0.10399168213E+04  0.00000000000E+00 0. -1.
         25    2    1    2    0    0  0.68425078982E+02 -0.61132891941E+02  0.96320151678E+02  0.18254100211E+03  0.12499769566E+03 0.  0.
          2    1    1    2  501    0 -0.10657610927E+03  0.19581952051E+02 -0.99349545144E+03  0.99938737832E+03  0.00000000000E+00 0. -1.
          1    1    1    2  502    0  0.38151030285E+02  0.41550939890E+02  0.21791867079E+04  0.21799166703E+04  0.00000000000E+00 0. -1.
         22    1    3    3    0    0  0.33178310267E+02  0.19447217852E+02 -0.14465276972E+02  0.41088183121E+02  0.00000000000E+00 0.  1.
         22    1    3    3    0    0  0.35246768715E+02 -0.80580109792E+02  0.11078542865E+03  0.14145281899E+03  0.00000000000E+00 0.  1.
</event>
<event>
 7    1  0.5127424E-006  0.1036478E+03  0.7818608E-02  0.1313273E+00
          2   -1    0    0  502    0  0.00000000000E+00  0.00000000000E+00  0.13203350897E+04  0.13203350897E+04  0.00000000000E+00 0. -1.
          1   -1    0    0  501    0 -0.00000000000E+00 -0.00000000000E+00 -0.21493299973E+03  0.21493299973E+03  0.00000000000E+00 0. -1.
         25    2    1    2    0    0  0.39486558183E+02 -0.11078731652E+03  0.12787959954E+03  0.21403661128E+03  0.12500184483E+03 0.  0.
          2    1    1    2  501    0  0.47196238734E+02  0.53146285304E+02 -0.16202996387E+03  0.17693423011E+03  0.00000000000E+00 0. -1.
          1    1    1    2  502    0 -0.86682796917E+02  0.57641031216E+02  0.11395524544E+04  0.11442972481E+04  0.00000000000E+00 0. -1.
         22    1    3    3    0    0  0.50389778927E+02  0.89589676301E+01  0.33363577073E+02  0.61094363050E+02  0.00000000000E+00 0. -1.
         22    1    3    3    0    0 -0.10903220744E+02 -0.11974628415E+03  0.94516022464E+02  0.15294224823E+03  0.00000000000E+00 0. -1.
</event>
<event>
 7    1  0.5127424E-006  0.1020403E+03  0.7818608E-02  0.1331468E+00
          2   -1    0    0  502    0  0.00000000000E+00  0.00000000000E+00  0.14787780627E+03  0.14787780627E+03  0.00000000000E+00 0. -1.
          1   -1    0    0  501    0 -0.00000000000E+00 -0.00000000000E+00 -0.92342870666E+03  0.92342870666E+03  0.00000000000E+00 0. -1.
         25    2    1    2    0    0 -0.82044398961E+02 -0.59551486398E+02 -0.13619166514E+02  0.16151998536E+03  0.12500224415E+03 0.  0.
          2    1    1    2  501    0 -0.25855213851E+02  0.55692614865E+02 -0.79461171008E+03  0.79698050743E+03  0.00000000000E+00 0. -1.
          1    1    1    2  502    0  0.10789961281E+03  0.38588715323E+01  0.32679976206E+02  0.11280602014E+03  0.00000000000E+00 0. -1.
         22    1    3    3    0    0  0.71670883798E+01  0.24817586280E+02 -0.27761233042E+02  0.37920519572E+02  0.00000000000E+00 0.  1.
         22    1    3    3    0    0 -0.89211487341E+02 -0.84369072678E+02  0.14142066527E+02  0.12359946579E+03  0.00000000000E+00 0.  1.
</event>
<event>
 7    1  0.5788767E-006  0.1755680E+03  0.7818608E-02  0.1351868E+00
          2   -1    0    0  502    0  0.00000000000E+00  0.00000000000E+00  0.17670219230E+04  0.17670219230E+04  0.00000000000E+00 0. -1.
          1   -1    0    0  501    0 -0.00000000000E+00 -0.00000000000E+00 -0.11343789417E+04  0.11343789417E+04  0.00000000000E+00 0. -1.
         25    2    1    2    0    0  0.11191847280E+03  0.99130597802E+02 -0.13400068095E+03  0.23650167242E+03  0.12499695433E+03 0.  0.
          2    1    1    2  501    0  0.98412341303E+01  0.28254527050E+02 -0.94436567040E+03  0.94483950363E+03  0.00000000000E+00 0. -1.
          1    1    1    2  502    0 -0.12175970693E+03 -0.12738512485E+03  0.17110093326E+04  0.17200596887E+04  0.00000000000E+00 0. -1.
         22    1    3    3    0    0  0.36486250655E+02  0.10988153401E+03 -0.10031253647E+03  0.15319204606E+03  0.00000000000E+00 0.  1.
         22    1    3    3    0    0  0.75432222140E+02 -0.10750936209E+02 -0.33688144477E+02  0.83309626363E+02  0.00000000000E+00 0.  1.
</event>
<event>
 7    1  0.5127424E-006  0.1059176E+03  0.7818608E-02  0.1441724E+00
          2   -1    0    0  502    0  0.00000000000E+00  0.00000000000E+00  0.10583020246E+04  0.10583020246E+04  0.00000000000E+00 0. -1.
          1   -1    0    0  501    0 -0.00000000000E+00 -0.00000000000E+00 -0.55002263091E+02  0.55002263091E+02  0.00000000000E+00 0. -1.
         25    2    1    2    0    0 -0.91486830842E+02  0.34655627290E+02  0.48957110972E+03  0.51466128113E+03  0.12500204041E+03 0.  0.
          2    1    1    2  501    0 -0.15413525508E+01  0.24197622599E+02 -0.32995656920E+02  0.40946478270E+02  0.00000000000E+00 0. -1.
          1    1    1    2  502    0  0.93028183393E+02 -0.58853249890E+02  0.54672430868E+03  0.55769652826E+03  0.00000000000E+00 0. -1.
         22    1    3    3    0    0  0.48448314801E+01  0.58745826612E+02  0.16320512256E+03  0.17352364843E+03  0.00000000000E+00 0.  1.
         22    1    3    3    0    0 -0.96331662322E+02 -0.24090199322E+02  0.32636598716E+03  0.34113763270E+03  0.00000000000E+00 0.  1.
</event>
<event>
 7    1  0.5127424E-006  0.2558675E+03  0.7818608E-02  0.1236356E+00
          2   -1    0    0  502    0  0.00000000000E+00  0.00000000000E+00  0.16066870035E+04  0.16066870035E+04  0.00000000000E+00 0. -1.
          1   -1    0    0  501    0 -0.00000000000E+00 -0.00000000000E+00 -0.27743855966E+04  0.27743855966E+04  0.00000000000E+00 0. -1.
         25    2    1    2    0    0 -0.29422618378E+03  0.10896706791E+03 -0.15243480238E+03  0.37054384538E+03  0.12499401290E+03 0.  0.
          2    1    1    2  501    0  0.56744213583E+02 -0.20306684963E+02 -0.25018041053E+04  0.25025299296E+04  0.00000000000E+00 0. -1.
          1    1    1    2  502    0  0.23748197019E+03 -0.88660382945E+02  0.14865403146E+04  0.15079988251E+04  0.00000000000E+00 0. -1.
         22    1    3    3    0    0 -0.22158518836E+03  0.25716587462E+02 -0.73921228297E+02  0.23500146077E+03  0.00000000000E+00 0.  1.
         22    1    3    3    0    0 -0.72640995418E+02  0.83250480446E+02 -0.78513574083E+02  0.13554238461E+03  0.00000000000E+00 0.  1.
</event>
<event>
 7    1  0.5127424E-006  0.7595161E+02  0.7818608E-02  0.1504795E+00
          2   -1    0    0  502    0  0.00000000000E+00  0.00000000000E+00  0.32073013299E+04  0.32073013299E+04  0.00000000000E+00 0. -1.
          1   -1    0    0  501    0 -0.00000000000E+00 -0.00000000000E+00 -0.13028328150E+03  0.13028328150E+03  0.00000000000E+00 0. -1.
         25    2    1    2    0    0 -0.32380051270E+02 -0.52603110494E+02  0.23393474288E+03  0.27233917229E+03  0.12501042310E+03 0.  0.
          2    1    1    2  501    0 -0.21510280595E+02 -0.14924944843E+01 -0.10953645484E+03  0.11163849986E+03  0.00000000000E+00 0. -1.
          1    1    1    2  502    0  0.53890331865E+02  0.54095604978E+02  0.29526197603E+04  0.29536069392E+04  0.00000000000E+00 0. -1.
         22    1    3    3    0    0 -0.30815330835E+02 -0.57889086992E+02  0.24837265597E+03  0.25688461854E+03  0.00000000000E+00 0. -1.
         22    1    3    3    0    0 -0.15647204353E+01  0.52859764980E+01 -0.14437913085E+02  0.15454553757E+02  0.00000000000E+00 0. -1.
</event>
<event>
 7    1  0.5127424E-006  0.5020595E+02  0.7818608E-02  0.1481135E+00
          2   -1    0    0  502    0  0.00000000000E+00  0.00000000000E+00  0.50326157943E+03  0.50326157943E+03  0.00000000000E+00 0. -1.
          1   -1    0    0  501    0 -0.00000000000E+00 -0.00000000000E+00 -0.23317613607E+03  0.23317613607E+03  0.00000000000E+00 0. -1.
         25    2    1    2    0    0 -0.84330690032E+02  0.10902628414E+02  0.23862704516E+03  0.28248397445E+03  0.12499518612E+03 0.  0.
          2    1    1    2  501    0  0.37956401070E+02 -0.60673309462E+01 -0.20722454387E+03  0.21075937101E+03  0.00000000000E+00 0. -1.
          1    1    1    2  502    0  0.46374288962E+02 -0.48352974677E+01  0.23868294208E+03  0.24319437004E+03  0.00000000000E+00 0. -1.
         22    1    3    3    0    0 -0.99196560646E+02  0.46671629369E+02  0.15026628420E+03  0.18600579238E+03  0.00000000000E+00 0. -1.
         22    1    3    3    0    0  0.14865870615E+02 -0.35769000955E+02  0.88360760959E+02  0.96478182071E+02  0.00000000000E+00 0. -1.
</event>
<event>
 7    1  0.5127424E-006  0.1639400E+03  0.7818608E-02  0.1217913E+00
          2   -1    0    0  502    0  0.00000000000E+00  0.00000000000E+00  0.21096177666E+03  0.21096177666E+03  0.00000000000E+00 0. -1.
          1   -1    0    0  501    0 -0.00000000000E+00 -0.00000000000E+00 -0.81705941498E+03  0.81705941498E+03  0.00000000000E+00 0. -1.
         25    2    1    2    0    0 -0.12228847040E+03 -0.40160449827E+02 -0.19339463360E+03  0.26380654623E+03  0.12500031123E+03 0.  0.
          2    1    1    2  501    0  0.17880533264E+03 -0.58726582309E+02 -0.55262647614E+03  0.58379463905E+03  0.00000000000E+00 0. -1.
          1    1    1    2  502    0 -0.56516862242E+02  0.98887032136E+02  0.13992347141E+03  0.18042000636E+03  0.00000000000E+00 0. -1.
         22    1    3    3    0    0  0.24083383840E+02  0.76287436910E+01 -0.23240284273E+02  0.34326635730E+02  0.00000000000E+00 0. -1.
         22    1    3    3    0    0 -0.14637185424E+03 -0.47789193518E+02 -0.17015434932E+03  0.22947991050E+03  0.00000000000E+00 0. -1.
</event>
<event>
 7    1  0.5127424E-006  0.1124691E+03  0.7818608E-02  0.1298898E+00
          2   -1    0    0  502    0  0.00000000000E+00  0.00000000000E+00  0.13394956432E+04  0.13394956432E+04  0.00000000000E+00 0. -1.
          1   -1    0    0  501    0 -0.00000000000E+00 -0.00000000000E+00 -0.27966623620E+03  0.27966623620E+03  0.00000000000E+00 0. -1.
         25    2    1    2    0    0 -0.13669721437E+03  0.61384522717E+02  0.72463535796E+01  0.19527332597E+03  0.12499989659E+03 0.  0.
          2    1    1    2  501    0  0.25114614945E+02 -0.70340370004E+02 -0.17549064451E+03  0.19072356395E+03  0.00000000000E+00 0. -1.
          1    1    1    2  502    0  0.11158259943E+03  0.89558472864E+01  0.12280736980E+04  0.12331649895E+04  0.00000000000E+00 0. -1.
         22    1    3    3    0    0 -0.11160159167E+03  0.17886686113E+02  0.55245941534E+02  0.12580525768E+03  0.00000000000E+00 0.  1.
         22    1    3    3    0    0 -0.25095622699E+02  0.43497836604E+02 -0.47999587955E+02  0.69468068288E+02  0.00000000000E+00 0.  1.
</event>
<event>
 7    1  0.5127424E-006  0.5262895E+02  0.7818608E-02  0.1453230E+00
          2   -1    0    0  502    0  0.00000000000E+00  0.00000000000E+00  0.10960597522E+03  0.10960597522E+03  0.00000000000E+00 0. -1.
          1   -1    0    0  501    0 -0.00000000000E+00 -0.00000000000E+00 -0.19898835874E+04  0.19898835874E+04  0.00000000000E+00 0. -1.
         25    2    1    2    0    0  0.94505354250E+01 -0.13982373821E+02  0.87025014448E+01  0.12649306062E+03  0.12505975155E+03 0.  0.
          2    1    1    2  501    0 -0.52794579609E+02  0.25841352585E+01 -0.19185660511E+04  0.19192940468E+04  0.00000000000E+00 0. -1.
          1    1    1    2  502    0  0.43344044184E+02  0.11398238563E+02  0.29585937450E+02  0.53702455282E+02  0.00000000000E+00 0. -1.
         22    1    3    3    0    0  0.51736614926E+02  0.31911426641E+02 -0.94152171761E+01  0.61511485015E+02  0.00000000000E+00 0.  1.
         22    1    3    3    0    0 -0.42286079501E+02 -0.45893800463E+02  0.18117718621E+02  0.64981575608E+02  0.00000000000E+00 0.  1.
</event>
<event>
 7    1  0.5127424E-006  0.7725247E+02  0.7818608E-02  0.1360309E+00
          2   -1    0    0  502    0  0.00000000000E+00  0.00000000000E+00  0.89794073100E+03  0.89794073100E+03  0.00000000000E+00 0. -1.
          1   -1    0    0  501    0 -0.00000000000E+00 -0.00000000000E+00 -0.30545482624E+04  0.30545482624E+04  0.00000000000E+00 0. -1.
         25    2    1    2    0    0 -0.91357200669E+01  0.60830277673E+02  0.14049112141E+03  0.19785405475E+03  0.12499875088E+03 0.  0.
          2    1    1    2  501    0  0.63288887363E+02 -0.17602568998E+01 -0.30233313838E+04  0.30239942523E+04  0.00000000000E+00 0. -1.
          1    1    1    2  502    0 -0.54153167296E+02 -0.59070020773E+02  0.72623273101E+03  0.73064068630E+03  0.00000000000E+00 0. -1.
         22    1    3    3    0    0  0.43147951041E+02  0.31907715873E+02  0.10351547855E+02  0.54653477056E+02  0.00000000000E+00 0. -1.
         22    1    3    3    0    0 -0.52283671108E+02  0.28922561800E+02  0.13013957356E+03  0.14320057769E+03  0.00000000000E+00 0. -1.
</event>
<event>
 7    1  0.5127424E-006  0.4443571E+02  0.7818608E-02  0.1596041E+00
          2   -1    0    0  502    0  0.00000000000E+00  0.00000000000E+00  0.29762991214E+03  0.29762991214E+03  0.00000000000E+00 0. -1.
          1   -1    0    0  501    0 -0.00000000000E+00 -0.00000000000E+00 -0.62820692301E+03  0.62820692301E+03  0.00000000000E+00 0. -1.
         25    2    1    2    0    0  0.20386858983E+02  0.23914580183E+02 -0.38353266443E+03  0.40461008722E+03  0.12499794729E+03 0.  0.
          2    1    1    2  501    0  0.19891120129E+02 -0.49836751597E+01 -0.23195570697E+03  0.23286035230E+03  0.00000000000E+00 0. -1.
          1    1    1    2  502    0 -0.40277979112E+02 -0.18930905023E+02  0.28491136054E+03  0.28836639563E+03  0.00000000000E+00 0. -1.
         22    1    3    3    0    0 -0.48872174490E+01  0.58018752059E+02 -0.33547350888E+03  0.34048867183E+03  0.00000000000E+00 0.  1.
         22    1    3    3    0    0  0.25274076432E+02 -0.34104171876E+02 -0.48059155555E+02  0.64121415389E+02  0.00000000000E+00 0.  1.
</event>
<event>
 7    1  0.5127424E-006  0.5993633E+02  0.7818608E-02  0.1517270E+00
          2   -1    0    0  502    0  0.00000000000E+00  0.00000000000E+00  0.16058440645E+04  0.16058440645E+04  0.00000000000E+00 0. -1.
          1   -1    0    0  501    0 -0.00000000000E+00 -0.00000000000E+00 -0.19861604723E+02  0.19861604723E+02  0.00000000000E+00 0. -1.
         25    2    1    2    0    0 -0.18656732480E+02  0.80258088408E+02  0.51474362741E+03  0.53607433659E+03  0.12500103187E+03 0.  0.
          2    1    1    2  501    0 -0.19315011042E+00 -0.25110323666E+02  0.10378418815E+02  0.27171257584E+02  0.00000000000E+00 0. -1.
          1    1    1    2  502    0  0.18849882590E+02 -0.55147764742E+02  0.10608604136E+04  0.10624600751E+04  0.00000000000E+00 0. -1.
         22    1    3    3    0    0  0.37952518898E+02 -0.13416696841E+02  0.13568783442E+03  0.14153299917E+03  0.00000000000E+00 0.  1.
         22    1    3    3    0    0 -0.56609251378E+02  0.93674785249E+02  0.37905579299E+03  0.39454133742E+03  0.00000000000E+00 0.  1.
</event>
<event>
 7    1  0.5127424E-006  0.1250658E+03  0.7818608E-02  0.1270887E+00
          2   -1    0    0  502    0  0.00000000000E+00  0.00000000000E+00  0.65966611124E+03  0.65966611124E+03  0.00000000000E+00 0. -1.
          1   -1    0    0  501    0 -0.00000000000E+00 -0.00000000000E+00 -0.99084963753E+02  0.99084963753E+02  0.00000000000E+00 0. -1.
         25    2    1    2    0    0 -0.75966552325E+02 -0.61682000362E+02  0.24783748782E+03  0.29432171117E+03  0.12500505213E+03 0.  0.
          2    1    1    2  501    0  0.13654076906E+03 -0.14644255027E+01 -0.32063257210E+01  0.13658626095E+03  0.00000000000E+00 0. -1.
          1    1    1    2  502    0 -0.60574216730E+02  0.63146425865E+02  0.31594998539E+03  0.32784310287E+03  0.00000000000E+00 0. -1.
         22    1    3    3    0    0  0.30354083101E+00  0.12181221019E+02  0.14825635176E+03  0.14875624396E+03  0.00000000000E+00 0. -1.
         22    1    3    3    0    0 -0.76270093156E+02 -0.73863221381E+02  0.99581136059E+02  0.14556546720E+03  0.00000000000E+00 0. -1.
</event>
<event>
 7    1  0.5127424E-006  0.8141156E+02  0.7818608E-02  0.1436916E+00
          2   -1    0    0  502    0  0.00000000000E+00  0.00000000000E+00  0.53905840621E+03  0.53905840621E+03  0.00000000000E+00 0. -1.
          1   -1    0    0  501    0 -0.00000000000E+00 -0.00000000000E+00 -0.40660622720E+03  0.40660622720E+03  0.00000000000E+00 0. -1.
         25    2    1    2    0    0 -0.57541043005E+02  0.15903308130E+02  0.27130963404E+03  0.30462567273E+03  0.12499598444E+03 0.  0.
          2    1    1    2  501    0  0.66734415799E+02 -0.47284789991E+02 -0.38456443440E+03  0.39316553488E+03  0.00000000000E+00 0. -1.
          1    1    1    2  502    0 -0.91933727934E+01  0.31381481861E+02  0.24570697937E+03  0.24787342580E+03  0.00000000000E+00 0. -1.
         22    1    3    3    0    0 -0.84282948836E+02 -0.24711308020E+02  0.14836599251E+03  0.17241441918E+03  0.00000000000E+00 0.  1.
         22    1    3    3    0    0  0.26741905830E+02  0.40614616151E+02  0.12294364153E+03  0.13221125355E+03  0.00000000000E+00 0.  1.
</event>
<event>
 7    1  0.5127424E-006  0.1093653E+03  0.7818608E-02  0.1411385E+00
          2   -1    0    0  502    0  0.00000000000E+00  0.00000000000E+00  0.76720031367E+03  0.76720031367E+03  0.00000000000E+00 0. -1.
          1   -1    0    0  501    0 -0.00000000000E+00 -0.00000000000E+00 -0.13747321077E+03  0.13747321077E+03  0.00000000000E+00 0. -1.
         25    2    1    2    0    0  0.74367377905E+02 -0.39341004999E+02  0.13020419617E+03  0.19913782931E+03  0.12499808315E+03 0.  0.
          2    1    1    2  501    0  0.28362459786E+02 -0.84308465854E+01 -0.95419610455E+02  0.99902003777E+02  0.00000000000E+00 0. -1.
          1    1    1    2  502    0 -0.10272983769E+03  0.47771851585E+02  0.59494251718E+03  0.60563369135E+03  0.00000000000E+00 0. -1.
         22    1    3    3    0    0 -0.35870575385E+01  0.29882824631E+02  0.75769749897E+02  0.81528554440E+02  0.00000000000E+00 0.  1.
         22    1    3    3    0    0  0.77954435443E+02 -0.69223829631E+02  0.54434446271E+02  0.11760927487E+03  0.00000000000E+00 0.  1.
</event>
<event>
 7    1  0.5127424E-006  0.1128166E+03  0.7818608E-02  0.1338622E+00
          2   -1    0    0  502    0  0.00000000000E+00  0.00000000000E+00  0.30147460521E+03  0.30147460521E+03  0.00000000000E+00 0. -1.
          1   -1    0    0  501    0 -0.00000000000E+00 -0.00000000000E+00 -0.10317186045E+04  0.10317186045E+04  0.00000000000E+00 0. -1.
         25    2    1    2    0    0  0.16015921008E+00 -0.12062092791E+03 -0.21909680536E+03  0.27960418331E+03  0.12500262118E+03 0.  0.
          2    1    1    2  501    0 -0.48915464581E+02  0.10204357497E+03 -0.77571502987E+03  0.78392564790E+03  0.00000000000E+00 0. -1.
          1    1    1    2  502    0  0.48755305371E+02  0.18577352941E+02  0.26456783598E+03  0.26966337846E+03  0.00000000000E+00 0. -1.
         22    1    3    3    0    0  0.55224142386E+02 -0.29458879508E+02 -0.11357407708E+03  0.12967884357E+03  0.00000000000E+00 0.  1.
         22    1    3    3    0    0 -0.55063983176E+02 -0.91162048406E+02 -0.10552272828E+03  0.14992533974E+03  0.00000000000E+00 0.  1.
</event>
<event>
 7    1  0.5127424E-006  0.2653815E+02  0.7818608E-02  0.1645514E+00
          2   -1    0    0  502    0  0.00000000000E+00  0.00000000000E+00  0.12344639744E+04  0.12344639744E+04  0.00000000000E+00 0. -1.
          1   -1    0    0  501    0 -0.00000000000E+00 -0.00000000000E+00 -0.49843961594E+03  0.49843961594E+03  0.00000000000E+00 0. -1.
         25    2    1    2    0    0 -0.12459945486E+02 -0.19332985843E+02  0.10116772694E+04  0.10196282562E+04  0.12498747446E+03 0.  0.
          2    1    1    2  501    0  0.24469496238E+02 -0.78386514036E+01 -0.49311977934E+03  0.49378873769E+03  0.00000000000E+00 0. -1.
          1    1    1    2  502    0 -0.12009550752E+02  0.27171637246E+02  0.21746686840E+03  0.21948659647E+03  0.00000000000E+00 0. -1.
         22    1    3    3    0    0 -0.47295905923E+02  0.36431532506E+02  0.40066005846E+03  0.40508349970E+03  0.00000000000E+00 0.  1.
         22    1    3    3    0    0  0.34835960437E+02 -0.55764518349E+02  0.61101721098E+03  0.61454475652E+03  0.00000000000E+00 0.  1.
</event>
<event>
 7    1  0.5127424E-006  0.1078311E+03  0.7818608E-02  0.1460756E+00
          2   -1    0    0  502    0  0.00000000000E+00  0.00000000000E+00  0.19768186611E+04  0.19768186611E+04  0.00000000000E+00 0. -1.
          1   -1    0    0  501    0 -0.00000000000E+00 -0.00000000000E+00 -0.43916469958E+02  0.43916469958E+02  0.00000000000E+00 0. -1.
         25    2    1    2    0    0 -0.12585853113E+03  0.48729884220E+01  0.84807520574E+03  0.86643960107E+03  0.12498764673E+03 0.  0.
          2    1    1    2  501    0  0.10569390041E+03 -0.95750019790E+01  0.46675215481E+02  0.11593729766E+03  0.00000000000E+00 0. -1.
          1    1    1    2  502    0  0.20164630715E+02  0.47020135569E+01  0.10381517699E+04  0.10383582323E+04  0.00000000000E+00 0. -1.
         22    1    3    3    0    0 -0.92936858353E+02 -0.18207940614E+02  0.79085961121E+03  0.79650970703E+03  0.00000000000E+00 0. -1.
         22    1    3    3    0    0 -0.32921672777E+02  0.23080929036E+02  0.57215594528E+02  0.69929894043E+02  0.00000000000E+00 0. -1.
</event>
<event>
 7    1  0.5127424E-006  0.4049716E+02  0.7818608E-02  0.1561483E+00
          2   -1    0    0  502    0  0.00000000000E+00  0.00000000000E+00  0.61996040280E+03  0.61996040280E+03  0.00000000000E+00 0. -1.
          1   -1    0    0  501    0 -0.00000000000E+00 -0.00000000000E+00 -0.90598007778E+03  0.90598007778E+03  0.00000000000E+00 0. -1.
         25    2    1    2    0    0 -0.18765829945E+02  0.44084406383E+02 -0.17344236766E+03  0.21909201159E+03  0.12499385339E+03 0.  0.
          2    1    1    2  501    0  0.34577039415E+02 -0.21142918283E+02 -0.70880868249E+03  0.70996643796E+03  0.00000000000E+00 0. -1.
          1    1    1    2  502    0 -0.15811209470E+02 -0.22941488099E+02  0.59623137518E+03  0.59688203103E+03  0.00000000000E+00 0. -1.
         22    1    3    3    0    0 -0.73060469065E+01  0.60183513189E+02 -0.18603188844E+03  0.19566117933E+03  0.00000000000E+00 0.  1.
         22    1    3    3    0    0 -0.11459783039E+02 -0.16099106807E+02  0.12589520776E+02  0.23430832265E+02  0.00000000000E+00 0.  1.
</event>
<event>
 7    1  0.5127424E-006  0.4077427E+02  0.7818608E-02  0.1514940E+00
          2   -1    0    0  502    0  0.00000000000E+00  0.00000000000E+00  0.17818837198E+03  0.17818837198E+03  0.00000000000E+00 0. -1.
          1   -1    0    0  501    0 -0.00000000000E+00 -0.00000000000E+00 -0.82859404249E+03  0.82859404249E+03  0.00000000000E+00 0. -1.
         25    2    1    2    0    0  0.18897578891E+02 -0.39226549967E+01 -0.14661464712E+03  0.19363070927E+03  0.12499796443E+03 0.  0.
          2    1    1    2  501    0  0.57763033080E+01  0.37046985222E+02 -0.65516843628E+03  0.65624044732E+03  0.00000000000E+00 0. -1.
          1    1    1    2  502    0 -0.24673882199E+02 -0.33124330225E+02  0.15137741290E+03  0.15691125789E+03  0.00000000000E+00 0. -1.
         22    1    3    3    0    0  0.41544006620E+02  0.47949525734E+02 -0.46626992351E+02  0.78734604335E+02  0.00000000000E+00 0. -1.
         22    1    3    3    0    0 -0.22646427729E+02 -0.51872180730E+02 -0.99987654772E+02  0.11489610494E+03  0.00000000000E+00 0. -1.
</event>
<event>
 7    1  0.5127424E-006  0.1526019E+03  0.7818608E-02  0.1302283E+00
          2   -1    0    0  502    0  0.00000000000E+00  0.00000000000E+00  0.53382307419E+03  0.53382307419E+03  0.00000000000E+00 0. -1.
          1   -1    0    0  501    0 -0.00000000000E+00 -0.00000000000E+00 -0.48104143728E+03  0.48104143728E+03  0.00000000000E+00 0. -1.
         25    2    1    2    0    0 -0.60273298538E+02 -0.13041368279E+03  0.12003987600E+03  0.22511002920E+03  0.12499741693E+03 0.  0.
          2    1    1    2  501    0  0.12172577800E+02  0.15350759654E+03 -0.41255623723E+03  0.44035826633E+03  0.00000000000E+00 0. -1.
          1    1    1    2  502    0  0.48100720738E+02 -0.23093913746E+02  0.34529799814E+03  0.34939621594E+03  0.00000000000E+00 0. -1.
         22    1    3    3    0    0 -0.39520438962E+02 -0.14583277395E+03  0.12803767927E+03  0.19804724276E+03  0.00000000000E+00 0.  1.
         22    1    3    3    0    0 -0.20752859575E+02  0.15419091154E+02 -0.79978032685E+01  0.27062786436E+02  0.00000000000E+00 0.  1.
</event>
<event>
 7    1  0.5127424E-006  0.1561313E+03  0.7818608E-02  0.1249929E+00
          2   -1    0    0  502    0  0.00000000000E+00  0.00000000000E+00  0.64903648937E+03  0.64903648937E+03  0.00000000000E+00 0. -1.
          1   -1    0    0  501    0 -0.00000000000E+00 -0.00000000000E+00 -0.73495690784E+03  0.73495690784E+03  0.00000000000E+00 0. -1.
         25    2    1    2    0    0 -0.23454980395E+03 -0.28658529624E+02  0.17674662593E+03  0.32046751514E+03  0.12500054652E+03 0.  0.
          2    1    1    2  501    0  0.15331203606E+03  0.96894506453E-01 -0.64943588527E+03  0.66728671414E+03  0.00000000000E+00 0. -1.
          1    1    1    2  502    0  0.81237767884E+02  0.28561635118E+02  0.38676884087E+03  0.39623916792E+03  0.00000000000E+00 0. -1.
         22    1    3    3    0    0 -0.18545666322E+03  0.20690255231E+02  0.16653689407E+03  0.25011356956E+03  0.00000000000E+00 0.  1.
         22    1    3    3    0    0 -0.49093140730E+02 -0.49348784855E+02  0.10209731863E+02  0.70353945576E+02  0.00000000000E+00 0.  1.
</event>
<event>
 7    1  0.5127424E-006  0.7623500E+02  0.7818608E-02  0.1440423E+00
          2   -1    0    0  502    0  0.00000000000E+00  0.00000000000E+00  0.62031788120E+03  0.62031788120E+03  0.00000000000E+00 0. -1.
          1   -1    0    0  501    0 -0.00000000000E+00 -0.00000000000E+00 -0.41534225301E+03  0.41534225301E+03  0.00000000000E+00 0. -1.
         25    2    1    2    0    0  0.40588738487E+01 -0.10569968972E+03  0.18239838712E+02  0.16476531954E+03  0.12500407970E+03 0.  0.
          2    1    1    2  501    0  0.92446842214E+01  0.74393212452E+02 -0.33741448240E+03  0.34564193493E+03  0.00000000000E+00 0. -1.
          1    1    1    2  502    0 -0.13303558070E+02  0.31306477267E+02  0.52415027188E+03  0.52525287975E+03  0.00000000000E+00 0. -1.
         22    1    3    3    0    0  0.15651941319E+02  0.17705656049E+02  0.32299649553E+02  0.40021755139E+02  0.00000000000E+00 0. -1.
         22    1    3    3    0    0 -0.11593067470E+02 -0.12340534577E+03 -0.14059810841E+02  0.12474356440E+03  0.00000000000E+00 0. -1.
</event>
<event>
 7    1  0.5127424E-006  0.2349886E+03  0.7818608E-02  0.1226343E+00
          2   -1    0    0  502    0  0.00000000000E+00  0.00000000000E+00  0.24183540366E+03  0.24183540366E+03  0.00000000000E+00 0. -1.
          1   -1    0    0  501    0 -0.00000000000E+00 -0.00000000000E+00 -0.10966710240E+04  0.10966710240E+04  0.00000000000E+00 0. -1.
         25    2    1    2    0    0  0.10480226055E+03  0.14077348017E+03 -0.30451641098E+03  0.37303561937E+03  0.12499856889E+03 0.  0.
          2    1    1    2  501    0  0.39437170763E+02  0.61137725141E+02 -0.68110159930E+03  0.68497627729E+03  0.00000000000E+00 0. -1.
          1    1    1    2  502    0 -0.14423943132E+03 -0.20191120531E+03  0.13078238999E+03  0.28049453097E+03  0.00000000000E+00 0. -1.
         22    1    3    3    0    0 -0.18387328099E+02  0.49205537715E+02 -0.35793657605E+02  0.63564649776E+02  0.00000000000E+00 0.  1.
         22    1    3    3    0    0  0.12318958865E+03  0.91567942452E+02 -0.26872275338E+03  0.30947096959E+03  0.00000000000E+00 0.  1.
</event>
<event>
 7    1  0.5127424E-006  0.4848200E+02  0.7818608E-02  0.1554914E+00
          2   -1    0    0  502    0  0.00000000000E+00  0.00000000000E+00  0.14023569285E+03  0.14023569285E+03  0.00000000000E+00 0. -1.
          1   -1    0    0  501    0 -0.00000000000E+00 -0.00000000000E+00 -0.26911944716E+03  0.26911944716E+03  0.00000000000E+00 0. -1.
         25    2    1    2    0    0  0.13153843934E+02  0.21168321808E+02 -0.20965196951E+03  0.24535661544E+03  0.12499919585E+03 0.  0.
          2    1    1    2  501    0  0.16116001082E+02  0.18140607463E+02 -0.32513282688E+02  0.40569948006E+02  0.00000000000E+00 0. -1.
          1    1    1    2  502    0 -0.29269845016E+02 -0.39308929271E+02  0.11328149789E+03  0.12342857656E+03  0.00000000000E+00 0. -1.
         22    1    3    3    0    0 -0.44877962570E+02  0.17821445913E+02 -0.30746855085E+02  0.57245126924E+02  0.00000000000E+00 0.  1.
         22    1    3    3    0    0  0.58031806504E+02  0.33468758953E+01 -0.17890511443E+03  0.18811148852E+03  0.00000000000E+00 0.  1.
</event>
<event>
 7    1  0.5127424E-006  0.4331012E+02  0.7818608E-02  0.1496316E+00
          2   -1    0    0  502    0  0.00000000000E+00  0.00000000000E+00  0.22891576070E+04  0.22891576070E+04  0.00000000000E+00 0. -1.
          1   -1    0    0  501    0 -0.00000000000E+00 -0.00000000000E+00 -0.11456743146E+04  0.11456743146E+04  0.00000000000E+00 0. -1.
         25    2    1    2    0    0 -0.13842282502E+02  0.92915662053E+01 -0.17350984416E+01  0.12611518626E+03  0.12499635056E+03 0.  0.
          2    1    1    2  501    0 -0.22389068802E+02 -0.33242643627E+02 -0.10811660628E+04  0.10819086833E+04  0.00000000000E+00 0. -1.
          1    1    1    2  502    0  0.36231351304E+02  0.23951077421E+02  0.22263844537E+04  0.22268080520E+04  0.00000000000E+00 0. -1.
         22    1    3    3    0    0 -0.21500469678E+02  0.37707561397E+02  0.50235216097E+02  0.66390566493E+02  0.00000000000E+00 0. -1.
         22    1    3    3    0    0  0.76581871757E+01 -0.28415995192E+02 -0.51970314539E+02  0.59724619772E+02  0.00000000000E+00 0. -1.
</event>
<event>
 7    1  0.5127424E-006  0.8681713E+02  0.7818608E-02  0.1314686E+00
          2   -1    0    0  502    0  0.00000000000E+00  0.00000000000E+00  0.13067656486E+04  0.13067656486E+04  0.00000000000E+00 0. -1.
          1   -1    0    0  501    0 -0.00000000000E+00 -0.00000000000E+00 -0.59973632460E+03  0.59973632460E+03  0.00000000000E+00 0. -1.
         25    2    1    2    0    0  0.53923713093E+02  0.60508995769E+02  0.41915852127E+03  0.44484605940E+03  0.12500018083E+03 0.  0.
          2    1    1    2  501    0 -0.85464183888E+02  0.17109449280E+02 -0.58163179560E+03  0.58812618173E+03  0.00000000000E+00 0. -1.
          1    1    1    2  502    0  0.31540470795E+02 -0.77618445049E+02  0.86950259830E+03  0.87352973204E+03  0.00000000000E+00 0. -1.
         22    1    3    3    0    0 -0.30219853394E+02  0.58973083177E+01  0.30080618686E+02  0.43044876642E+02  0.00000000000E+00 0.  1.
         22    1    3    3    0    0  0.84143566488E+02  0.54611687452E+02  0.38907790258E+03  0.40180118276E+03  0.00000000000E+00 0.  1.
</event>
<event>
 7    1  0.5127424E-006  0.1147437E+03  0.7818608E-02  0.1271914E+00
          2   -1    0    0  502    0  0.00000000000E+00  0.00000000000E+00  0.45481223090E+02  0.45481223090E+02  0.00000000000E+00 0. -1.
          1   -1    0    0  501    0 -0.00000000000E+00 -0.00000000000E+00 -0.93986413876E+03  0.93986413876E+03  0.00000000000E+00 0. -1.
         25    2    1    2    0    0 -0.16264741109E+02  0.63549264370E+02 -0.36105282800E+03  0.38767030187E+03  0.12500427007E+03 0.  0.
          2    1    1    2  501    0 -0.90523640460E+02 -0.10552962516E+03 -0.39019162110E+03  0.41422280532E+03  0.00000000000E+00 0. -1.
          1    1    1    2  502    0  0.10678838157E+03  0.41980360791E+02 -0.14313846657E+03  0.18345225466E+03  0.00000000000E+00 0. -1.
         22    1    3    3    0    0 -0.18003592007E+02  0.77687014567E+02 -0.36441179899E+03  0.37303533452E+03  0.00000000000E+00 0. -1.
         22    1    3    3    0    0  0.17388508985E+01 -0.14137750197E+02  0.33589709893E+01  0.14634967345E+02  0.00000000000E+00 0. -1.
</event>
<event>
 7    1  0.5127424E-006  0.9682580E+02  0.7818608E-02  0.1287818E+00
          2   -1    0    0  502    0  0.00000000000E+00  0.00000000000E+00  0.15215589549E+04  0.15215589549E+04  0.00000000000E+00 0. -1.
          1   -1    0    0  501    0 -0.00000000000E+00 -0.00000000000E+00 -0.12951124151E+04  0.12951124151E+04  0.00000000000E+00 0. -1.
         25    2    1    2    0    0 -0.11105180831E+03  0.11470569802E+03  0.26410888209E+02  0.20447954623E+03  0.12499779407E+03 0.  0.
          2    1    1    2  501    0  0.94115331597E+02 -0.20019603996E+02 -0.12025090676E+04  0.12063525761E+04  0.00000000000E+00 0. -1.
          1    1    1    2  502    0  0.16936476716E+02 -0.94686094023E+02  0.14025447193E+04  0.14058392477E+04  0.00000000000E+00 0. -1.
         22    1    3    3    0    0 -0.11326160572E+03  0.99356160978E+02 -0.23255067862E+02  0.15244879874E+03  0.00000000000E+00 0.  1.
         22    1    3    3    0    0  0.22097974097E+01  0.15349537041E+02  0.49665956072E+02  0.52030747491E+02  0.00000000000E+00 0.  1.
</event>
<event>
 7    1  0.5127424E-006  0.5931725E+02  0.7818608E-02  0.1409620E+00
          2   -1    0    0  502    0  0.00000000000E+00  0.00000000000E+00  0.77197654989E+02  0.77197654989E+02  0.00000000000E+00 0. -1.
          1   -1    0    0  501    0 -0.00000000000E+00 -0.00000000000E+00 -0.88028098011E+03  0.88028098011E+03  0.00000000000E+00 0. -1.
         25    2    1    2    0    0 -0.68343646968E+02  0.20652930390E+02 -0.45881983938E+03  0.48087225467E+03  0.12500033074E+03 0.  0.
          2    1    1    2  501    0  0.25358206124E+02 -0.55458886693E+02 -0.39612142185E+03  0.40078785857E+03  0.00000000000E+00 0. -1.
          1    1    1    2  502    0  0.42985440844E+02  0.34805956303E+02  0.51857936111E+02  0.75818521856E+02  0.00000000000E+00 0. -1.
         22    1    3    3    0    0 -0.52139958600E+02 -0.15962408233E+02 -0.42493179555E+03  0.42841615823E+03  0.00000000000E+00 0.  1.
         22    1    3    3    0    0 -0.16203688368E+02  0.36615338623E+02 -0.33888043829E+02  0.52456096440E+02  0.00000000000E+00 0.  1.
</event>
<event>
 7    1  0.5127424E-006  0.1386974E+03  0.7818608E-02  0.1269597E+00
          2   -1    0    0  502    0  0.00000000000E+00  0.00000000000E+00  0.14247531759E+04  0.14247531759E+04  0.00000000000E+00 0. -1.
          1   -1    0    0  501    0 -0.00000000000E+00 -0.00000000000E+00 -0.21973958119E+04  0.21973958119E+04  0.00000000000E+00 0. -1.
         25    2    1    2    0    0  0.17350676554E+03 -0.68453435455E+02  0.47414926149E+01  0.22458367407E+03  0.12499949757E+03 0.  0.
          2    1    1    2  501    0 -0.74982237097E+02 -0.27576097629E+02 -0.20830947614E+04  0.20846262403E+04  0.00000000000E+00 0. -1.
          1    1    1    2  502    0 -0.98524528445E+02  0.96029533084E+02  0.13057106328E+04  0.13129390734E+04  0.00000000000E+00 0. -1.
         22    1    3    3    0    0  0.14378555893E+03 -0.35609739909E+02 -0.47996848346E+02  0.15571139324E+03  0.00000000000E+00 0.  1.
         22    1    3    3    0    0  0.29721206609E+02 -0.32843695545E+02  0.52738340961E+02  0.68872280830E+02  0.00000000000E+00 0.  1.
</event>
<event>
 7    1  0.5287290E-006  0.6059308E+02  0.7818608E-02  0.1443573E+00
          2   -1    0    0  502    0  0.00000000000E+00  0.00000000000E+00  0.12821501039E+04  0.12821501039E+04  0.00000000000E+00 0. -1.
          1   -1    0    0  501    0 -0.00000000000E+00 -0.00000000000E+00 -0.74035833814E+03  0.74035833814E+03  0.00000000000E+00 0. -1.
         25    2    1    2    0    0  0.46023755639E+02 -0.34909308041E+02 -0.38916510724E+03  0.41280873123E+03  0.12499888806E+03 0.  0.
          2    1    1    2  501    0  0.14446211714E+02  0.39228894133E+02 -0.33735725921E+03  0.33993752295E+03  0.00000000000E+00 0. -1.
          1    1    1    2  502    0 -0.60469967353E+02 -0.43195860915E+01  0.12683141322E+04  0.12697621879E+04  0.00000000000E+00 0. -1.
         22    1    3    3    0    0  0.10252224913E+02 -0.53983089691E+02 -0.60800229153E+02  0.81950899649E+02  0.00000000000E+00 0.  1.
         22    1    3    3    0    0  0.35771530726E+02  0.19073781650E+02 -0.32836487809E+03  0.33085783158E+03  0.00000000000E+00 0.  1.
</event>
<event>
 7    1  0.5127424E-006  0.1470497E+03  0.7818608E-02  0.1266542E+00
          2   -1    0    0  502    0  0.00000000000E+00  0.00000000000E+00  0.71106500648E+03  0.71106500648E+03  0.00000000000E+00 0. -1.
          1   -1    0    0  501    0 -0.00000000000E+00 -0.00000000000E+00 -0.11545436693E+04  0.11545436693E+04  0.00000000000E+00 0. -1.
         25    2    1    2    0    0 -0.11172358102E+03 -0.81433503873E+02  0.47332779442E+03  0.50870255851E+03  0.12500207181E+03 0.  0.
          2    1    1    2  501    0  0.14682514091E+03  0.12202917903E+02 -0.11250555850E+04  0.11346614485E+04  0.00000000000E+00 0. -1.
          1    1    1    2  502    0 -0.35101559891E+02  0.69230585969E+02  0.20824912785E+03  0.22224466876E+03  0.00000000000E+00 0. -1.
         22    1    3    3    0    0 -0.17427725526E+02  0.20465055211E+02  0.17196178459E+02  0.31910071379E+02  0.00000000000E+00 0.  1.
         22    1    3    3    0    0 -0.94295855492E+02 -0.10189855908E+03  0.45613161596E+03  0.47679248713E+03  0.00000000000E+00 0.  1.
</event>
<event>
 7    1  0.5127424E-006  0.6708046E+02  0.7818608E-02  0.1401474E+00
          2   -1    0    0  502    0  0.00000000000E+00  0.00000000000E+00  0.44238140928E+03  0.44238140928E+03  0.00000000000E+00 0. -1.
          1   -1    0    0  501    0 -0.00000000000E+00 -0.00000000000E+00 -0.20918511298E+03  0.20918511298E+03  0.00000000000E+00 0. -1.
         25    2    1    2    0    0 -0.10476618172E+03  0.41420294058E+02  0.11199369136E+03  0.20213670367E+03  0.12500026590E+03 0.  0.
          2    1    1    2  501    0  0.64830375381E+02 -0.78979066253E+01 -0.15507956278E+03  0.16827069053E+03  0.00000000000E+00 0. -1.
          1    1    1    2  502    0  0.39935806339E+02 -0.33522387432E+02  0.27628216772E+03  0.28115912805E+03  0.00000000000E+00 0. -1.
         22    1    3    3    0    0  0.17101573581E+02  0.10750534801E+02 -0.13691946638E+02  0.24403016620E+02  0.00000000000E+00 0.  1.
         22    1    3    3    0    0 -0.12186775530E+03  0.30669759257E+02  0.12568563800E+03  0.17773368705E+03  0.00000000000E+00 0.  1.
</event>
<event>
 7    1  0.5127424E-006  0.2258422E+03  0.7818608E-02  0.1193579E+00
          2   -1    0    0  502    0  0.00000000000E+00  0.00000000000E+00  0.46779671549E+03  0.46779671549E+03  0.00000000000E+00 0. -1.
          1   -1    0    0  501    0 -0.00000000000E+00 -0.00000000000E+00 -0.63126473390E+03  0.63126473390E+03  0.00000000000E+00 0. -1.
         25    2    1    2    0    0  0.35615777042E+02  0.15558017762E+03 -0.53525165900E+01  0.20279755724E+03  0.12499809816E+03 0.  0.
          2    1    1    2  501    0  0.77903142225E+02  0.73950251897E+02 -0.47605834789E+03  0.48802570621E+03  0.00000000000E+00 0. -1.
          1    1    1    2  502    0 -0.11351891927E+03 -0.22953042952E+03  0.31794284607E+03  0.40823818595E+03  0.00000000000E+00 0. -1.
         22    1    3    3    0    0  0.45969480758E+02  0.17264041344E+03 -0.17376545951E+02  0.17949888541E+03  0.00000000000E+00 0.  1.
         22    1    3    3    0    0 -0.10353703717E+02 -0.17060235820E+02  0.12024029361E+02  0.23298671828E+02  0.00000000000E+00 0.  1.
</event>
<event>
 7    1  0.5127424E-006  0.9403811E+02  0.7818608E-02  0.1414454E+00
          2   -1    0    0  502    0  0.00000000000E+00  0.00000000000E+00  0.45833686761E+03  0.45833686761E+03  0.00000000000E+00 0. -1.
          1   -1    0    0  501    0 -0.00000000000E+00 -0.00000000000E+00 -0.17474302251E+04  0.17474302251E+04  0.00000000000E+00 0. -1.
         25    2    1    2    0    0 -0.29145707583E+00 -0.11832968019E+03  0.30429960298E+02  0.17479513817E+03  0.12500143872E+03 0.  0.
          2    1    1    2  501    0 -0.18491061190E+02  0.28055200033E+02 -0.16691003878E+04  0.16694385637E+04  0.00000000000E+00 0. -1.
          1    1    1    2  502    0  0.18782518266E+02  0.90274480158E+02  0.34957707003E+03  0.36153339078E+03  0.00000000000E+00 0. -1.
         22    1    3    3    0    0  0.11715577009E+02 -0.67271392589E+02 -0.45830508499E+02  0.82238254571E+02  0.00000000000E+00 0. -1.
         22    1    3    3    0    0 -0.12007034085E+02 -0.51058287602E+02  0.76260468798E+02  0.92556883599E+02  0.00000000000E+00 0. -1.
</event>
<event>
 7    1  0.5127424E-006  0.6742169E+02  0.7818608E-02  0.1394784E+00
          2   -1    0    0  502    0  0.00000000000E+00  0.00000000000E+00  0.87324989571E+03  0.87324989571E+03  0.00000000000E+00 0. -1.
          1   -1    0    0  501    0 -0.00000000000E+00 -0.00000000000E+00 -0.24166412713E+03  0.24166412713E+03  0.00000000000E+00 0. -1.
         25    2    1    2    0    0  0.51813359452E+02  0.22202819490E+02  0.34035262008E+03  0.36693658331E+03  0.12499984305E+03 0.  0.
          2    1    1    2  501    0  0.14177754173E+02 -0.52837668058E+02 -0.22249555109E+03  0.22912245227E+03  0.00000000000E+00 0. -1.
          1    1    1    2  502    0 -0.65991113625E+02  0.30634848569E+02  0.51372869959E+03  0.51885498727E+03  0.00000000000E+00 0. -1.
         22    1    3    3    0    0  0.76450789392E+02  0.44754864079E+02  0.30780872093E+03  0.32030287188E+03  0.00000000000E+00 0. -1.
         22    1    3    3    0    0 -0.24637429940E+02 -0.22552044590E+02  0.32543899153E+02  0.46633711425E+02  0.00000000000E+00 0. -1.
</event>
<event>
 7    1  0.5127424E-006  0.1027430E+03  0.7818608E-02  0.1332066E+00
          2   -1    0    0  502    0  0.00000000000E+00  0.00000000000E+00  0.11974287879E+04  0.11974287879E+04  0.00000000000E+00 0. -1.
          1   -1    0    0  501    0 -0.00000000000E+00 -0.00000000000E+00 -0.13425585236E+04  0.13425585236E+04  0.00000000000E+00 0. -1.
         25    2    1    2    0    0 -0.12485621941E+03  0.58125320701E+02  0.73596232690E+02  0.20002172893E+03  0.12499863257E+03 0.  0.
          2    1    1    2  501    0  0.10237789763E+03 -0.17810569657E+01 -0.12764265143E+04  0.12805268652E+04  0.00000000000E+00 0. -1.
          1    1    1    2  502    0  0.22478321785E+02 -0.56344263736E+02  0.10577005459E+04  0.10594387174E+04  0.00000000000E+00 0. -1.
         22    1    3    3    0    0 -0.45291621866E+01  0.62920089572E+02  0.41103949619E+02  0.75292666682E+02  0.00000000000E+00 0.  1.
         22    1    3    3    0    0 -0.12032705723E+03 -0.47947688706E+01  0.32492283071E+02  0.12472906224E+03  0.00000000000E+00 0.  1.
</event>
<event>
 7    1  0.5127424E-006  0.2165430E+03  0.7818608E-02  0.1208183E+00
          2   -1    0    0  502    0  0.00000000000E+00  0.00000000000E+00  0.15565626685E+04  0.15565626685E+04  0.00000000000E+00 0. -1.
          1   -1    0    0  501    0 -0.00000000000E+00 -0.00000000000E+00 -0.56387612685E+03  0.56387612685E+03  0.00000000000E+00 0. -1.
         25    2    1    2    0    0  0.69296774481E+01  0.30385081456E+03  0.20239111119E+03  0.38595387171E+03  0.12499956504E+03 0.  0.
          2    1    1    2  501    0 -0.36527159165E+01 -0.95548441508E+02 -0.45853433027E+03  0.46839788540E+03  0.00000000000E+00 0. -1.
          1    1    1    2  502    0 -0.32769615316E+01 -0.20830237305E+03  0.12488297607E+04  0.12660870382E+04  0.00000000000E+00 0. -1.
         22    1    3    3    0    0  0.46349081718E+02  0.23806001803E+03  0.19037154516E+03  0.30832147958E+03  0.00000000000E+00 0.  1.
         22    1    3    3    0    0 -0.39419404270E+02  0.65790796525E+02  0.12019566029E+02  0.77632392131E+02  0.00000000000E+00 0.  1.
</event>
<event>
 7    1  0.5127424E-006  0.9612230E+02  0.7818608E-02  0.1330484E+00
          2   -1    0    0  502    0  0.00000000000E+00  0.00000000000E+00  0.23967795489E+04  0.23967795489E+04  0.00000000000E+00 0. -1.
          1   -1    0    0  501    0 -0.00000000000E+00 -0.00000000000E+00 -0.38358945715E+03  0.38358945715E+03  0.00000000000E+00 0. -1.
         25    2    1    2    0    0 -0.10586623307E+03  0.72035085410E+02  0.14886322755E+03  0.23276759442E+03  0.12499511854E+03 0.  0.
          2    1    1    2  501    0  0.95309673229E+02 -0.71402877336E+01 -0.33445159645E+03  0.34784017579E+03  0.00000000000E+00 0. -1.
          1    1    1    2  502    0  0.10556559842E+02 -0.64894797676E+02  0.21987784606E+04  0.21997612358E+04  0.00000000000E+00 0. -1.
         22    1    3    3    0    0 -0.73441435017E+02  0.23295647432E+02  0.47215416460E+01  0.77192127332E+02  0.00000000000E+00 0. -1.
         22    1    3    3    0    0 -0.32424798055E+02  0.48739437978E+02  0.14414168590E+03  0.15557546708E+03  0.00000000000E+00 0. -1.
</event>
<event>
 7    1  0.5127424E-006  0.5805297E+02  0.7818608E-02  0.1470312E+00
          2   -1    0    0  502    0  0.00000000000E+00  0.00000000000E+00  0.75969429629E+03  0.75969429629E+03  0.00000000000E+00 0. -1.
          1   -1    0    0  501    0 -0.00000000000E+00 -0.00000000000E+00 -0.10324647225E+03  0.10324647225E+03  0.00000000000E+00 0. -1.
         25    2    1    2    0    0 -0.77896798209E+02 -0.19698457820E+02  0.29728526777E+03  0.33237728800E+03  0.12506074817E+03 0.  0.
          2    1    1    2  501    0  0.32946785193E+02 -0.14259001075E+02 -0.80061206297E+02  0.87741703425E+02  0.00000000000E+00 0. -1.
          1    1    1    2  502    0  0.44950013015E+02  0.33957458895E+02  0.43922376257E+03  0.44282177712E+03  0.00000000000E+00 0. -1.
         22    1    3    3    0    0  0.19267235834E+02  0.14459853439E+02  0.81259696677E+01  0.25423318454E+02  0.00000000000E+00 0.  1.
         22    1    3    3    0    0 -0.97164034043E+02 -0.34158311259E+02  0.28915929810E+03  0.30695396954E+03  0.00000000000E+00 0.  1.
</event>
<event>
 7    1  0.5127424E-006  0.1009796E+03  0.7818608E-02  0.1369601E+00
          2   -1    0    0  502    0  0.00000000000E+00  0.00000000000E+00  0.25316633931E+03  0.25316633931E+03  0.00000000000E+00 0. -1.
          1   -1    0    0  501    0 -0.00000000000E+00 -0.00000000000E+00 -0.71996652047E+03  0.71996652047E+03  0.00000000000E+00 0. -1.
         25    2    1    2    0    0  0.10949698064E+03  0.32964752431E+02 -0.15613623922E+03  0.23038177077E+03  0.12498388470E+03 0.  0.
          2    1    1    2  501    0 -0.99693193234E+02  0.10774642043E+02 -0.51953556665E+03  0.52912383305E+03  0.00000000000E+00 0. -1.
          1    1    1    2  502    0 -0.98037874089E+01 -0.43739394473E+02  0.20887162471E+03  0.21362725595E+03  0.00000000000E+00 0. -1.
         22    1    3    3    0    0 -0.25745139352E+02  0.16537811495E+02 -0.45741904809E+02  0.55033019769E+02  0.00000000000E+00 0. -1.
         22    1    3    3    0    0  0.13524212000E+03  0.16426940935E+02 -0.11039433441E+03  0.17534875101E+03  0.00000000000E+00 0. -1.
</event>
<event>
 7    1  0.5127424E-006  0.1405086E+03  0.7818608E-02  0.1327555E+00
          2   -1    0    0  502    0  0.00000000000E+00  0.00000000000E+00  0.45328739579E+03  0.45328739579E+03  0.00000000000E+00 0. -1.
          1   -1    0    0  501    0 -0.00000000000E+00 -0.00000000000E+00 -0.80347559386E+03  0.80347559386E+03  0.00000000000E+00 0. -1.
         25    2    1    2    0    0  0.13008967302E+02  0.17419200537E+03 -0.14880004281E+03  0.26130186173E+03  0.12500048895E+03 0.  0.
          2    1    1    2  501    0 -0.28383209079E+02 -0.36394803696E+02 -0.58538359819E+03  0.58720025998E+03  0.00000000000E+00 0. -1.
          1    1    1    2  502    0  0.15374241777E+02 -0.13779720167E+03  0.38399544293E+03  0.40826086794E+03  0.00000000000E+00 0. -1.
         22    1    3    3    0    0  0.20183047802E+02  0.17415259970E+03 -0.81003917913E+02  0.19312720709E+03  0.00000000000E+00 0.  1.
         22    1    3    3    0    0 -0.71740805001E+01  0.39405670467E-01 -0.67796124900E+02  0.68174654640E+02  0.00000000000E+00 0.  1.
</event>
<event>
 7    1  0.5127424E-006  0.4077832E+02  0.7818608E-02  0.1545275E+00
          2   -1    0    0  502    0  0.00000000000E+00  0.00000000000E+00  0.15135663353E+03  0.15135663353E+03  0.00000000000E+00 0. -1.
          1   -1    0    0  501    0 -0.00000000000E+00 -0.00000000000E+00 -0.18054786296E+03  0.18054786296E+03  0.00000000000E+00 0. -1.
         25    2    1    2    0    0 -0.43318709876E+02 -0.54134041814E+02 -0.17827138354E+02  0.14408279887E+03  0.12504015738E+03 0.  0.
          2    1    1    2  501    0  0.22450295715E+02  0.20927710540E+02 -0.92632555163E+02  0.97584707419E+02  0.00000000000E+00 0. -1.
          1    1    1    2  502    0  0.20868414162E+02  0.33206331274E+02  0.81268464082E+02  0.90236990201E+02  0.00000000000E+00 0. -1.
         22    1    3    3    0    0 -0.47719150702E+02 -0.53243855586E+02 -0.65041054029E+02  0.96655906237E+02  0.00000000000E+00 0.  1.
         22    1    3    3    0    0  0.44004408252E+01 -0.89018622800E+00  0.47213915675E+02  0.47426892628E+02  0.00000000000E+00 0.  1.
</event>
<event>
 7    1  0.5127424E-006  0.8501132E+02  0.7818608E-02  0.1422531E+00
          2   -1    0    0  502    0  0.00000000000E+00  0.00000000000E+00  0.60352036278E+03  0.60352036278E+03  0.00000000000E+00 0. -1.
          1   -1    0    0  501    0 -0.00000000000E+00 -0.00000000000E+00 -0.83115192974E+03  0.83115192974E+03  0.00000000000E+00 0. -1.
         25    2    1    2    0    0  0.69416028140E+01  0.11156979416E+03 -0.27329777583E+03  0.32064434074E+03  0.12500045661E+03 0.  0.
          2    1    1    2  501    0 -0.20917807598E+02 -0.27968473643E+02 -0.53050600810E+03  0.53165441296E+03  0.00000000000E+00 0. -1.
          1    1    1    2  502    0  0.13976204784E+02 -0.83601320518E+02  0.57617221698E+03  0.58237353882E+03  0.00000000000E+00 0. -1.
         22    1    3    3    0    0 -0.11246357128E+02  0.53234168445E+00 -0.16196648721E+03  0.16235734327E+03  0.00000000000E+00 0.  1.
         22    1    3    3    0    0  0.18187959942E+02  0.11103745248E+03 -0.11133128863E+03  0.15828699747E+03  0.00000000000E+00 0.  1.
</event>
<event>
 7    1  0.5127424E-006  0.4639266E+02  0.7818608E-02  0.1494895E+00
          2   -1    0    0  502    0  0.00000000000E+00  0.00000000000E+00  0.54779565930E+03  0.54779565930E+03  0.00000000000E+00 0. -1.
          1   -1    0    0  501    0 -0.00000000000E+00 -0.00000000000E+00 -0.16128459087E+04  0.16128459087E+04  0.00000000000E+00 0. -1.
         25    2    1    2    0    0 -0.67473349131E+02  0.21465206695E+01  0.29015689000E+02  0.14499472734E+03  0.12499720138E+03 0.  0.
          2    1    1    2  501    0  0.38279495909E+02 -0.26135325251E+02 -0.15537355894E+04  0.15544267936E+04  0.00000000000E+00 0. -1.
          1    1    1    2  502    0  0.29193853222E+02  0.23988804581E+02  0.45966965095E+03  0.46122004707E+03  0.00000000000E+00 0. -1.
         22    1    3    3    0    0  0.29118519339E+02  0.29723152230E+02  0.82513538881E+01  0.42419792408E+02  0.00000000000E+00 0.  1.
         22    1    3    3    0    0 -0.96591868470E+02 -0.27576631560E+02  0.20764335112E+02  0.10257493493E+03  0.00000000000E+00 0.  1.
</event>
<event>
 7    1  0.5127424E-006  0.3913204E+02  0.7818608E-02  0.1579699E+00
          2   -1    0    0  502    0  0.00000000000E+00  0.00000000000E+00  0.73303310837E+02  0.73303310837E+02  0.00000000000E+00 0. -1.
          1   -1    0    0  501    0 -0.00000000000E+00 -0.00000000000E+00 -0.15573667543E+04  0.15573667543E+04  0.00000000000E+00 0. -1.
         25    2    1    2    0    0  0.61532113535E+02 -0.17477711261E+02 -0.70259409842E+03  0.71648800111E+03  0.12499966886E+03 0.  0.
          2    1    1    2  501    0 -0.25614188215E+02  0.24493655088E+01 -0.84190078622E+03  0.84229390349E+03  0.00000000000E+00 0. -1.
          1    1    1    2  502    0 -0.35917925320E+02  0.15028345752E+02  0.60431441200E+02  0.71888160506E+02  0.00000000000E+00 0. -1.
         22    1    3    3    0    0  0.27917139910E+02  0.54197639728E+02 -0.28326408316E+03  0.28975039544E+03  0.00000000000E+00 0.  1.
         22    1    3    3    0    0  0.33614973625E+02 -0.71675350989E+02 -0.41933001526E+03  0.42673760567E+03  0.00000000000E+00 0.  1.
</event>
<event>
 7    1  0.5127424E-006  0.1000854E+03  0.7818608E-02  0.1474666E+00
          2   -1    0    0  502    0  0.00000000000E+00  0.00000000000E+00  0.71488515184E+03  0.71488515184E+03  0.00000000000E+00 0. -1.
          1   -1    0    0  501    0 -0.00000000000E+00 -0.00000000000E+00 -0.24066851570E+03  0.24066851570E+03  0.00000000000E+00 0. -1.
         25    2    1    2    0    0 -0.75136110643E+02  0.31804796530E+02  0.66980896845E+02  0.16360903769E+03  0.12499798585E+03 0.  0.
          2    1    1    2  501    0 -0.19076911968E+02  0.65990249514E+01 -0.18749294374E+03  0.18857645573E+03  0.00000000000E+00 0. -1.
          1    1    1    2  502    0  0.94213022611E+02 -0.38403821482E+02  0.59472868304E+03  0.60336817414E+03  0.00000000000E+00 0. -1.
         22    1    3    3    0    0 -0.52200739939E+02 -0.20840166681E+02 -0.19762843452E+02  0.59580196197E+02  0.00000000000E+00 0.  1.
         22    1    3    3    0    0 -0.22935370704E+02  0.52644963211E+02  0.86743740297E+02  0.10402884149E+03  0.00000000000E+00 0.  1.
</event>
<event>
 7    1  0.5127424E-006  0.5936411E+02  0.7818608E-02  0.1409029E+00
          2   -1    0    0  502    0  0.00000000000E+00  0.00000000000E+00  0.47017572968E+02  0.47017572968E+02  0.00000000000E+00 0. -1.
          1   -1    0    0  501    0 -0.00000000000E+00 -0.00000000000E+00 -0.21217072779E+04  0.21217072779E+04  0.00000000000E+00 0. -1.
         25    2    1    2    0    0 -0.16528957251E+02  0.10055376928E+03 -0.33543611993E+03  0.37219129127E+03  0.12499879921E+03 0.  0.
          2    1    1    2  501    0 -0.14892872231E+02 -0.53487499359E+02 -0.17390559122E+04  0.17399420037E+04  0.00000000000E+00 0. -1.
          1    1    1    2  502    0  0.31421829483E+02 -0.47066269918E+02 -0.19767280148E+00  0.56591555965E+02  0.00000000000E+00 0. -1.
         22    1    3    3    0    0  0.15278866745E+02  0.40301823036E+02 -0.28287753472E+03  0.28614223798E+03  0.00000000000E+00 0.  1.
         22    1    3    3    0    0 -0.31807823997E+02  0.60251946240E+02 -0.52558585212E+02  0.86049053293E+02  0.00000000000E+00 0.  1.
</event>
<event>
 7    1  0.5127424E-006  0.1407377E+03  0.7818608E-02  0.1406921E+00
          2   -1    0    0  502    0  0.00000000000E+00  0.00000000000E+00  0.16088227522E+04  0.16088227522E+04  0.00000000000E+00 0. -1.
          1   -1    0    0  501    0 -0.00000000000E+00 -0.00000000000E+00 -0.14153716705E+03  0.14153716705E+03  0.00000000000E+00 0. -1.
         25    2    1    2    0    0 -0.80017461670E+01 -0.13119406329E+03  0.11091059134E+04  0.11238402446E+04  0.12500023277E+03 0.  0.
          2    1    1    2  501    0  0.30912247075E+02  0.13767395446E+03 -0.96674481955E+02  0.17104280230E+03  0.00000000000E+00 0. -1.
          1    1    1    2  502    0 -0.22910500908E+02 -0.64798911685E+01  0.45485415376E+03  0.45547687234E+03  0.00000000000E+00 0. -1.
         22    1    3    3    0    0 -0.15865991293E+02 -0.31500715762E+02  0.75665710815E+03  0.75747871527E+03  0.00000000000E+00 0. -1.
         22    1    3    3    0    0  0.78642451259E+01 -0.99693347532E+02  0.35244880521E+03  0.36636152935E+03  0.00000000000E+00 0. -1.
</event>
<event>
 7    1  0.5127424E-006  0.7098133E+02  0.7818608E-02  0.1391277E+00
          2   -1    0    0  502    0  0.00000000000E+00  0.00000000000E+00  0.10296832801E+04  0.10296832801E+04  0.00000000000E+00 0. -1.
          1   -1    0    0  501    0 -0.00000000000E+00 -0.00000000000E+00 -0.14607524288E+03  0.14607524288E+03  0.00000000000E+00 0. -1.
         25    2    1    2    0    0 -0.46865293923E+02  0.35566893789E+02  0.46326208668E+02  0.14571340570E+03  0.12499967714E+03 0.  0.
          2    1    1    2  501    0  0.10304441403E+02 -0.74545301114E+02 -0.80795717055E+02  0.11041345627E+03  0.00000000000E+00 0. -1.
          1    1    1    2  502    0  0.36560852520E+02  0.38978407324E+02  0.91807754558E+03  0.91963166098E+03  0.00000000000E+00 0. -1.
         22    1    3    3    0    0 -0.17600472276E+02  0.13885903348E+02 -0.43415825414E+02  0.48862345753E+02  0.00000000000E+00 0. -1.
         22    1    3    3    0    0 -0.29264821647E+02  0.21680990441E+02  0.89742034082E+02  0.96851059951E+02  0.00000000000E+00 0. -1.
</event>
<event>
 7    1  0.5127424E-006  0.2169829E+03  0.7818608E-02  0.1308089E+00
          2   -1    0    0  502    0  0.00000000000E+00  0.00000000000E+00  0.10230026760E+04  0.10230026760E+04  0.00000000000E+00 0. -1.
          1   -1    0    0  501    0 -0.00000000000E+00 -0.00000000000E+00 -0.52690292771E+03  0.52690292771E+03  0.00000000000E+00 0. -1.
         25    2    1    2    0    0  0.38560871718E+02 -0.18845425660E+03  0.49844476233E+03  0.54870295014E+03  0.12500319492E+03 0.  0.
          2    1    1    2  501    0 -0.17895758810E+02  0.21742440722E+03 -0.47736412702E+03  0.52485249433E+03  0.00000000000E+00 0. -1.
          1    1    1    2  502    0 -0.20665112908E+02 -0.28970150625E+02  0.47501911302E+03  0.47635015929E+03  0.00000000000E+00 0. -1.
         22    1    3    3    0    0  0.54655310740E+02 -0.19330459712E+03  0.38732817352E+03  0.43632211068E+03  0.00000000000E+00 0.  1.
         22    1    3    3    0    0 -0.16094439021E+02  0.48503405213E+01  0.11111658880E+03  0.11238083946E+03  0.00000000000E+00 0.  1.
</event>
<event>
 7    1  0.5127424E-006  0.1329715E+03  0.7818608E-02  0.1425042E+00
          2   -1    0    0  502    0  0.00000000000E+00  0.00000000000E+00  0.10965576902E+03  0.10965576902E+03  0.00000000000E+00 0. -1.
          1   -1    0    0  501    0 -0.00000000000E+00 -0.00000000000E+00 -0.48105495640E+03  0.48105495640E+03  0.00000000000E+00 0. -1.
         25    2    1    2    0    0  0.49014674398E+01  0.12681212692E+03 -0.23440762681E+03  0.29441172209E+03  0.12500394666E+03 0.  0.
          2    1    1    2  501    0 -0.20817208110E+02  0.68129737867E+01 -0.15851311012E+03  0.16001930773E+03  0.00000000000E+00 0. -1.
          1    1    1    2  502    0  0.15915740670E+02 -0.13362510070E+03  0.21521549557E+02  0.13627969561E+03  0.00000000000E+00 0. -1.
         22    1    3    3    0    0  0.14993747952E+02  0.11074738702E+02  0.11875900988E+02  0.22102021157E+02  0.00000000000E+00 0. -1.
         22    1    3    3    0    0 -0.10092280512E+02  0.11573738822E+03 -0.24628352780E+03  0.27230970093E+03  0.00000000000E+00 0. -1.
</event>
<event>
 7    1  0.5127424E-006  0.3387404E+02  0.7818608E-02  0.1619878E+00
          2   -1    0    0  502    0  0.00000000000E+00  0.00000000000E+00  0.35062129138E+03  0.35062129138E+03  0.00000000000E+00 0. -1.
          1   -1    0    0  501    0 -0.00000000000E+00 -0.00000000000E+00 -0.19624338076E+03  0.19624338076E+03  0.00000000000E+00 0. -1.
         25    2    1    2    0    0 -0.81916588662E+01 -0.45040099215E+02  0.19385364985E+03  0.23515979947E+03  0.12500071965E+03 0.  0.
          2    1    1    2  501    0  0.18951352085E+02  0.13622753040E+02 -0.17276834558E+03  0.17433770212E+03  0.00000000000E+00 0. -1.
          1    1    1    2  502    0 -0.10759693218E+02  0.31417346175E+02  0.13329260635E+03  0.13736717056E+03  0.00000000000E+00 0. -1.
         22    1    3    3    0    0 -0.55425020616E+02  0.11385351729E+02  0.60398275541E+02  0.82761771565E+02  0.00000000000E+00 0.  1.
         22    1    3    3    0    0  0.47233361750E+02 -0.56425450944E+02  0.13345537431E+03  0.15239802790E+03  0.00000000000E+00 0.  1.
</event>
<event>
 7    1  0.5127424E-006  0.1047733E+03  0.7818608E-02  0.1379408E+00
          2   -1    0    0  502    0  0.00000000000E+00  0.00000000000E+00  0.55116091779E+03  0.55116091779E+03  0.00000000000E+00 0. -1.
          1   -1    0    0  501    0 -0.00000000000E+00 -0.00000000000E+00 -0.13778787095E+04  0.13778787095E+04  0.00000000000E+00 0. -1.
         25    2    1    2    0    0  0.65372824352E+02  0.19320898217E+02  0.95459339385E+02  0.17141827170E+03  0.12499934050E+03 0.  0.
          2    1    1    2  501    0 -0.94560038172E+02 -0.46459168858E+02 -0.13368713445E+04  0.13410164230E+04  0.00000000000E+00 0. -1.
          1    1    1    2  502    0  0.29187213820E+02  0.27138270641E+02  0.41469421340E+03  0.41660493253E+03  0.00000000000E+00 0. -1.
         22    1    3    3    0    0 -0.13397825116E+02  0.48877323075E+02  0.10316060083E+02  0.51719585501E+02  0.00000000000E+00 0. -1.
         22    1    3    3    0    0  0.78770649468E+02 -0.29556424858E+02  0.85143279302E+02  0.11969868620E+03  0.00000000000E+00 0. -1.
</event>
<event>
 7    1  0.5127424E-006  0.4480871E+02  0.7818608E-02  0.1486699E+00
          2   -1    0    0  502    0  0.00000000000E+00  0.00000000000E+00  0.10557699050E+03  0.10557699050E+03  0.00000000000E+00 0. -1.
          1   -1    0    0  501    0 -0.00000000000E+00 -0.00000000000E+00 -0.24208898150E+03  0.24208898150E+03  0.00000000000E+00 0. -1.
         25    2    1    2    0    0  0.14236191869E+02  0.89844959280E+01  0.33832982090E+02  0.13058549488E+03  0.12499804187E+03 0.  0.
          2    1    1    2  501    0 -0.15787426594E+02 -0.50372844389E+02 -0.12986722227E+02  0.54362866411E+02  0.00000000000E+00 0. -1.
          1    1    1    2  502    0  0.15512347252E+01  0.41388348461E+02 -0.15735825087E+03  0.16271761070E+03  0.00000000000E+00 0. -1.
         22    1    3    3    0    0  0.63686103081E+02  0.20768252241E+02 -0.41691884039E+01  0.67116482020E+02  0.00000000000E+00 0. -1.
         22    1    3    3    0    0 -0.49449911213E+02 -0.11783756313E+02  0.38002170494E+02  0.63469012865E+02  0.00000000000E+00 0. -1.
</event>
<event>
 7    1  0.5127424E-006  0.1125302E+03  0.7818608E-02  0.1261821E+00
          2   -1    0    0  502    0  0.00000000000E+00  0.00000000000E+00  0.21224305682E+03  0.21224305682E+03  0.00000000000E+00 0. -1.
          1   -1    0    0  501    0 -0.00000000000E+00 -0.00000000000E+00 -0.29451167115E+03  0.29451167115E+03  0.00000000000E+00 0. -1.
         25    2    1    2    0    0 -0.40912529922E+02  0.50954940316E+01 -0.46920315228E+02  0.13973777215E+03  0.12500131927E+03 0.  0.
          2    1    1    2  501    0  0.15231576056E+03  0.10790435650E+02 -0.14451134625E+03  0.21023808792E+03  0.00000000000E+00 0. -1.
          1    1    1    2  502    0 -0.11140323064E+03 -0.15885929681E+02  0.10916304715E+03  0.15677886790E+03  0.00000000000E+00 0. -1.
         22    1    3    3    0    0  0.36522267278E+02  0.26734432066E+02 -0.37515947787E+02  0.58788197824E+02  0.00000000000E+00 0. -1.
         22    1    3    3    0    0 -0.77434797200E+02 -0.21638938035E+02 -0.94043674408E+01  0.80949574326E+02  0.00000000000E+00 0. -1.
</event>
<event>
 7    1  0.5127424E-006  0.8242307E+02  0.7818608E-02  0.1479523E+00
          2   -1    0    0  502    0  0.00000000000E+00  0.00000000000E+00  0.40587103325E+03  0.40587103325E+03  0.00000000000E+00 0. -1.
          1   -1    0    0  501    0 -0.00000000000E+00 -0.00000000000E+00 -0.32172712363E+03  0.32172712363E+03  0.00000000000E+00 0. -1.
         25    2    1    2    0    0  0.48731125896E+02 -0.81105390593E+02 -0.12872795932E+03  0.20284681685E+03  0.12499254610E+03 0.  0.
          2    1    1    2  501    0  0.84519249367E+01  0.22122125660E+02 -0.15042708931E+03  0.15227978420E+03  0.00000000000E+00 0. -1.
          1    1    1    2  502    0 -0.57183050832E+02  0.58983264933E+02  0.36329895824E+03  0.37247155583E+03  0.00000000000E+00 0. -1.
         22    1    3    3    0    0 -0.15414410702E+02  0.13078443667E+02 -0.73474827698E+02  0.76204987050E+02  0.00000000000E+00 0. -1.
         22    1    3    3    0    0  0.64145536598E+02 -0.94183834261E+02 -0.55253131623E+02  0.12664182980E+03  0.00000000000E+00 0. -1.
</event>
<event>
 7    1  0.5127424E-006  0.1052458E+03  0.7818608E-02  0.1386119E+00
          2   -1    0    0  502    0  0.00000000000E+00  0.00000000000E+00  0.91081352778E+03  0.91081352778E+03  0.00000000000E+00 0. -1.
          1   -1    0    0  501    0 -0.00000000000E+00 -0.00000000000E+00 -0.42391177725E+02  0.42391177725E+02  0.00000000000E+00 0. -1.
         25    2    1    2    0    0  0.18535944841E+02  0.71062401010E+02  0.18325671183E+03  0.23366860178E+03  0.12499818774E+03 0.  0.
          2    1    1    2  501    0  0.97232422343E+01  0.36290886505E+02  0.15353071450E+02  0.40586779693E+02  0.00000000000E+00 0. -1.
          1    1    1    2  502    0 -0.28259187075E+02 -0.10735328751E+03  0.66981256678E+03  0.67894932404E+03  0.00000000000E+00 0. -1.
         22    1    3    3    0    0 -0.28308189805E+02  0.79637692958E+02  0.66405826063E+02  0.10748604321E+03  0.00000000000E+00 0.  1.
         22    1    3    3    0    0  0.46844134646E+02 -0.85752919484E+01  0.11685088576E+03  0.12618255857E+03  0.00000000000E+00 0.  1.
</event>
<event>
 7    1  0.5127424E-006  0.9843399E+02  0.7818608E-02  0.1314244E+00
          2   -1    0    0  502    0  0.00000000000E+00  0.00000000000E+00  0.33940922599E+04  0.33940922599E+04  0.00000000000E+00 0. -1.
          1   -1    0    0  501    0 -0.00000000000E+00 -0.00000000000E+00 -0.15149364165E+04  0.15149364165E+04  0.00000000000E+00 0. -1.
         25    2    1    2    0    0 -0.55683013468E+02  0.84516331351E+02 -0.13528637146E+03  0.21016836575E+03  0.12499892562E+03 0.  0.
          2    1    1    2  501    0 -0.40314071224E+02 -0.62280247092E+02 -0.13404599060E+04  0.13425113829E+04  0.00000000000E+00 0. -1.
          1    1    1    2  502    0  0.95997084692E+02 -0.22236084260E+02  0.33549021209E+04  0.33563489277E+04  0.00000000000E+00 0. -1.
         22    1    3    3    0    0 -0.75114691632E+02  0.13020027655E+02 -0.10584950829E+03  0.13044484054E+03  0.00000000000E+00 0.  1.
         22    1    3    3    0    0  0.19431678164E+02  0.71496303696E+02 -0.29436863168E+02  0.79723525208E+02  0.00000000000E+00 0.  1.
</event>
<event>
 7    1  0.5127424E-006  0.1374998E+03  0.7818608E-02  0.1308664E+00
          2   -1    0    0  502    0  0.00000000000E+00  0.00000000000E+00  0.22607452673E+03  0.22607452673E+03  0.00000000000E+00 0. -1.
          1   -1    0    0  501    0 -0.00000000000E+00 -0.00000000000E+00 -0.63535411738E+03  0.63535411738E+03  0.00000000000E+00 0. -1.
         25    2    1    2    0    0 -0.15708530485E+03 -0.21254188038E+02  0.44927024736E+02  0.20681108001E+03  0.12499940701E+03 0.  0.
          2    1    1    2  501    0  0.30340699496E+02  0.46905436755E+02 -0.51052459107E+03  0.51357184125E+03  0.00000000000E+00 0. -1.
          1    1    1    2  502    0  0.12674460536E+03 -0.25651248717E+02  0.56317975682E+02  0.14104572285E+03  0.00000000000E+00 0. -1.
         22    1    3    3    0    0 -0.88478244325E+02  0.40224549928E+02  0.58881936743E+02  0.11363756690E+03  0.00000000000E+00 0.  1.
         22    1    3    3    0    0 -0.68607060529E+02 -0.61478737966E+02 -0.13954912007E+02  0.93173513111E+02  0.00000000000E+00 0.  1.
</event>
<event>
 7    1  0.5127424E-006  0.4403186E+02  0.7818608E-02  0.1493752E+00
          2   -1    0    0  502    0  0.00000000000E+00  0.00000000000E+00  0.13189601414E+03  0.13189601414E+03  0.00000000000E+00 0. -1.
          1   -1    0    0  501    0 -0.00000000000E+00 -0.00000000000E+00 -0.10076159717E+04  0.10076159717E+04  0.00000000000E+00 0. -1.
         25    2    1    2    0    0 -0.53739513267E+02 -0.60873485323E+02 -0.39162937414E+03  0.41903725196E+03  0.12500054134E+03 0.  0.
          2    1    1    2  501    0  0.22729470554E+02  0.35405633517E+02 -0.59811627181E+03  0.59959424807E+03  0.00000000000E+00 0. -1.
          1    1    1    2  502    0  0.31010042713E+02  0.25467851807E+02  0.11402568842E+03  0.12088048579E+03  0.00000000000E+00 0. -1.
         22    1    3    3    0    0 -0.24932738685E+02 -0.33478183328E+02 -0.21827681425E+02  0.47104966763E+02  0.00000000000E+00 0. -1.
         22    1    3    3    0    0 -0.28806774582E+02 -0.27395301995E+02 -0.36980169272E+03  0.37193228520E+03  0.00000000000E+00 0. -1.
</event>
<event>
 7    1  0.5127424E-006  0.8710131E+02  0.7818608E-02  0.1475060E+00
          2   -1    0    0  502    0  0.00000000000E+00  0.00000000000E+00  0.49716625234E+03  0.49716625234E+03  0.00000000000E+00 0. -1.
          1   -1    0    0  501    0 -0.00000000000E+00 -0.00000000000E+00 -0.18636249935E+03  0.18636249935E+03  0.00000000000E+00 0. -1.
         25    2    1    2    0    0  0.17430998905E+02  0.81632969417E+02  0.20160203920E+02  0.15165378690E+03  0.12499862335E+03 0.  0.
          2    1    1    2  501    0 -0.22395708164E+02  0.57825993109E+01 -0.11478883962E+03  0.11709604562E+03  0.00000000000E+00 0. -1.
          1    1    1    2  502    0  0.49647092583E+01 -0.87415568728E+02  0.40543238868E+03  0.41477891917E+03  0.00000000000E+00 0. -1.
         22    1    3    3    0    0 -0.34548791835E+02  0.71457086948E+02 -0.23755329647E+02  0.82849562334E+02  0.00000000000E+00 0.  1.
         22    1    3    3    0    0  0.51979790741E+02  0.10175882469E+02  0.43915533567E+02  0.68804224565E+02  0.00000000000E+00 0.  1.
</event>
<event>
 7    1  0.5127424E-006  0.3747527E+02  0.7818608E-02  0.1541788E+00
          2   -1    0    0  502    0  0.00000000000E+00  0.00000000000E+00  0.30204345225E+03  0.30204345225E+03  0.00000000000E+00 0. -1.
          1   -1    0    0  501    0 -0.00000000000E+00 -0.00000000000E+00 -0.17104610727E+03  0.17104610727E+03  0.00000000000E+00 0. -1.
         25    2    1    2    0    0 -0.49189317760E+02 -0.41674905652E+01 -0.23201664538E+01  0.13441649586E+03  0.12500181690E+03 0.  0.
          2    1    1    2  501    0  0.29221014716E+02 -0.23548382914E+02 -0.97951591258E+02  0.10489474853E+03  0.00000000000E+00 0. -1.
          1    1    1    2  502    0  0.19968303045E+02  0.27715873479E+02  0.23126910269E+03  0.23377831513E+03  0.00000000000E+00 0. -1.
         22    1    3    3    0    0 -0.35512161014E+02 -0.54088653081E+02 -0.34640252739E+02  0.73393753697E+02  0.00000000000E+00 0. -1.
         22    1    3    3    0    0 -0.13677156746E+02  0.49921162516E+02  0.32320086285E+02  0.61022742163E+02  0.00000000000E+00 0. -1.
</event>
<event>
 7    1  0.5127424E-006  0.7746424E+02  0.7818608E-02  0.1355435E+00
          2   -1    0    0  502    0  0.00000000000E+00  0.00000000000E+00  0.84918941488E+03  0.84918941488E+03  0.00000000000E+00 0. -1.
          1   -1    0    0  501    0 -0.00000000000E+00 -0.00000000000E+00 -0.53722478026E+02  0.53722478026E+02  0.00000000000E+00 0. -1.
         25    2    1    2    0    0  0.30655784747E+02  0.16496404329E+02  0.36987338861E+03  0.39196808695E+03  0.12498299521E+03 0.  0.
          2    1    1    2  501    0  0.45931590764E+02  0.47100096559E+02 -0.78134750768E+01  0.66250890701E+02  0.00000000000E+00 0. -1.
          1    1    1    2  502    0 -0.76587375510E+02 -0.63596500888E+02  0.43340702332E+03  0.44469291525E+03  0.00000000000E+00 0. -1.
         22    1    3    3    0    0 -0.92286887939E+01 -0.37045247350E+02  0.26438401188E+03  0.26712623381E+03  0.00000000000E+00 0. -1.
         22    1    3    3    0    0  0.39884473540E+02  0.53541651679E+02  0.10548937672E+03  0.12484185314E+03  0.00000000000E+00 0. -1.
</event>
<event>
 7    1  0.5127424E-006  0.9433138E+02  0.7818608E-02  0.1328187E+00
          2   -1    0    0  502    0  0.00000000000E+00  0.00000000000E+00  0.31926817973E+03  0.31926817973E+03  0.00000000000E+00 0. -1.
          1   -1    0    0  501    0 -0.00000000000E+00 -0.00000000000E+00 -0.15568726067E+04  0.15568726067E+04  0.00000000000E+00 0. -1.
         25    2    1    2    0    0 -0.59354746508E+02  0.79850617864E+02  0.74388975927E+01  0.15994578295E+03  0.12501283606E+03 0.  0.
          2    1    1    2  501    0 -0.74475314102E+01 -0.94382619339E+02 -0.14741084917E+04  0.14771456902E+04  0.00000000000E+00 0. -1.
          1    1    1    2  502    0  0.66802277918E+02  0.14532001475E+02  0.22906516716E+03  0.23904931334E+03  0.00000000000E+00 0. -1.
         22    1    3    3    0    0 -0.45110238303E+01 -0.63269227415E+01  0.49039034523E+02  0.49650842836E+02  0.00000000000E+00 0.  1.
         22    1    3    3    0    0 -0.54843722678E+02  0.86177540606E+02 -0.41600136930E+02  0.11029494011E+03  0.00000000000E+00 0.  1.
</event>
<event>
 7    1  0.5127424E-006  0.4401748E+02  0.7818608E-02  0.1504995E+00
          2   -1    0    0  502    0  0.00000000000E+00  0.00000000000E+00  0.18466225790E+03  0.18466225790E+03  0.00000000000E+00 0. -1.
          1   -1    0    0  501    0 -0.00000000000E+00 -0.00000000000E+00 -0.13646315659E+04  0.13646315659E+04  0.00000000000E+00 0. -1.
         25    2    1    2    0    0 -0.70017284850E+02 -0.28183995392E+02 -0.16388148676E+03  0.21949554879E+03  0.12499758583E+03 0.  0.
          2    1    1    2  501    0  0.32866357242E+02  0.28675708898E+02 -0.11703309042E+04  0.11711434238E+04  0.00000000000E+00 0. -1.
          1    1    1    2  502    0  0.37150927608E+02 -0.49171350623E+00  0.15424308291E+03  0.15865485127E+03  0.00000000000E+00 0. -1.
         22    1    3    3    0    0 -0.75641575695E+01 -0.48081497716E+01  0.21065972380E+02  0.22893448327E+02  0.00000000000E+00 0. -1.
         22    1    3    3    0    0 -0.62453127280E+02 -0.23375845620E+02 -0.18494745914E+03  0.19660210046E+03  0.00000000000E+00 0. -1.
</event>
<event>
 7    1  0.5127424E-006  0.1163526E+03  0.7818608E-02  0.1376393E+00
          2   -1    0    0  502    0  0.00000000000E+00  0.00000000000E+00  0.15294333044E+03  0.15294333044E+03  0.00000000000E+00 0. -1.
          1   -1    0    0  501    0 -0.00000000000E+00 -0.00000000000E+00 -0.44172734555E+03  0.44172734555E+03  0.00000000000E+00 0. -1.
         25    2    1    2    0    0 -0.12430473871E+03 -0.60074381255E+02 -0.65476747093E+02  0.19741979345E+03  0.12500708415E+03 0.  0.
          2    1    1    2  501    0  0.11029787578E+03  0.26060964303E+02 -0.29535651936E+03  0.31635465666E+03  0.00000000000E+00 0. -1.
          1    1    1    2  502    0  0.14006862934E+02  0.34013416952E+02  0.72049251348E+02  0.80896225881E+02  0.00000000000E+00 0. -1.
         22    1    3    3    0    0 -0.58107412121E+02 -0.84666517188E+02 -0.23736799869E+01  0.10271574774E+03  0.00000000000E+00 0. -1.
         22    1    3    3    0    0 -0.66197326589E+02  0.24592135932E+02 -0.63103067106E+02  0.94704045718E+02  0.00000000000E+00 0. -1.
</event>
<event>
 7    1  0.5127424E-006  0.1165178E+03  0.7818608E-02  0.1328578E+00
          2   -1    0    0  502    0  0.00000000000E+00  0.00000000000E+00  0.61679442691E+03  0.61679442691E+03  0.00000000000E+00 0. -1.
          1   -1    0    0  501    0 -0.00000000000E+00 -0.00000000000E+00 -0.14740627553E+04  0.14740627553E+04  0.00000000000E+00 0. -1.
         25    2    1    2    0    0  0.72611604335E+02 -0.58801767599E+02 -0.10071192312E+03  0.18573552272E+03  0.12499879994E+03 0.  0.
          2    1    1    2  501    0 -0.11595706490E+03  0.24692620921E+02 -0.13268654957E+04  0.13321515717E+04  0.00000000000E+00 0. -1.
          1    1    1    2  502    0  0.43345460568E+02  0.34109146679E+02  0.57030909042E+03  0.57297008775E+03  0.00000000000E+00 0. -1.
         22    1    3    3    0    0  0.50978192456E+02  0.26669882073E+02 -0.73752878985E+02  0.93539007235E+02  0.00000000000E+00 0. -1.
         22    1    3    3    0    0  0.21633411879E+02 -0.85471649673E+02 -0.26959044135E+02  0.92196515487E+02  0.00000000000E+00 0. -1.
</event>
<event>
 7    1  0.5127424E-006  0.1609163E+03  0.7818608E-02  0.1326987E+00
          2   -1    0    0  502    0  0.00000000000E+00  0.00000000000E+00  0.66807522193E+03  0.66807522193E+03  0.00000000000E+00 0. -1.
          1   -1    0    0  501    0 -0.00000000000E+00 -0.00000000000E+00 -0.92217653319E+03  0.92217653319E+03  0.00000000000E+00 0. -1.
         25    2    1    2    0    0  0.12941862213E+03 -0.70236772509E+02 -0.20251362030E+03  0.27985531756E+03  0.12499939358E+03 0.  0.
          2    1    1    2  501    0 -0.15956456885E+03  0.43185800014E+02 -0.67028847592E+03  0.69037128120E+03  0.00000000000E+00 0. -1.
          1    1    1    2  502    0  0.30145946718E+02  0.27050972495E+02  0.61870078496E+03  0.62002515636E+03  0.00000000000E+00 0. -1.
         22    1    3    3    0    0  0.71099609534E+01  0.17287257032E+02 -0.90281565394E+02  0.92196322326E+02  0.00000000000E+00 0. -1.
         22    1    3    3    0    0  0.12230866117E+03 -0.87524029541E+02 -0.11223205490E+03  0.18765899524E+03  0.00000000000E+00 0. -1.
</event>
<event>
 7    1  0.5127424E-006  0.1556024E+03  0.7818608E-02  0.1350833E+00
          2   -1    0    0  502    0  0.00000000000E+00  0.00000000000E+00  0.33725881941E+03  0.33725881941E+03  0.00000000000E+00 0. -1.
          1   -1    0    0  501    0 -0.00000000000E+00 -0.00000000000E+00 -0.36877396228E+03  0.36877396228E+03  0.00000000000E+00 0. -1.
         25    2    1    2    0    0 -0.83823632784E+02 -0.11244536732E+03 -0.28626895335E+02  0.19004084245E+03  0.12500264244E+03 0.  0.
          2    1    1    2  501    0  0.14007381937E+02 -0.31042994431E+02 -0.23327048373E+03  0.23574348947E+03  0.00000000000E+00 0. -1.
          1    1    1    2  502    0  0.69816250847E+02  0.14348836176E+03  0.23038223619E+03  0.28024844976E+03  0.00000000000E+00 0. -1.
         22    1    3    3    0    0 -0.68228626190E+02 -0.12746484842E+03  0.10884619484E+02  0.14498588882E+03  0.00000000000E+00 0.  1.
         22    1    3    3    0    0 -0.15595006595E+02  0.15019481100E+02 -0.39511514819E+02  0.45054953628E+02  0.00000000000E+00 0.  1.
</event>
<event>
 7    1  0.5127424E-006  0.2507858E+02  0.7818608E-02  0.1674351E+00
          2   -1    0    0  502    0  0.00000000000E+00  0.00000000000E+00  0.15428613246E+04  0.15428613246E+04  0.00000000000E+00 0. -1.
          1   -1    0    0  501    0 -0.00000000000E+00 -0.00000000000E+00 -0.71699830882E+03  0.71699830882E+03  0.00000000000E+00 0. -1.
         25    2    1    2    0    0  0.18286250805E+02  0.89512688655E+01 -0.20534471689E+03  0.24126229689E+03  0.12500612370E+03 0.  0.
          2    1    1    2  501    0 -0.16653079565E+02  0.16081004114E+02 -0.49332017512E+03  0.49386305686E+03  0.00000000000E+00 0. -1.
          1    1    1    2  502    0 -0.16331712398E+01 -0.25032272980E+02  0.15245279078E+04  0.15247342797E+04  0.00000000000E+00 0. -1.
         22    1    3    3    0    0  0.18628973425E+02  0.45632488833E+02 -0.19775204011E+03  0.20380194321E+03  0.00000000000E+00 0. -1.
         22    1    3    3    0    0 -0.34272262014E+00 -0.36681219968E+02 -0.75926767795E+01  0.37460353680E+02  0.00000000000E+00 0. -1.
</event>
<event>
 7    1  0.5127424E-006  0.5327880E+02  0.7818608E-02  0.1517561E+00
          2   -1    0    0  502    0  0.00000000000E+00  0.00000000000E+00  0.38493976662E+03  0.38493976662E+03  0.00000000000E+00 0. -1.
          1   -1    0    0  501    0 -0.00000000000E+00 -0.00000000000E+00 -0.33550939759E+03  0.33550939759E+03  0.00000000000E+00 0. -1.
         25    2    1    2    0    0 -0.16423027117E+02  0.21548926476E+02 -0.47190544931E+02  0.13633401079E+03  0.12500377160E+03 0.  0.
          2    1    1    2  501    0  0.29824851818E+02 -0.46353622214E+02 -0.24003420176E+03  0.24628154234E+03  0.00000000000E+00 0. -1.
          1    1    1    2  502    0 -0.13401824701E+02  0.24804695738E+02  0.33665511573E+03  0.33783361109E+03  0.00000000000E+00 0. -1.
         22    1    3    3    0    0 -0.32350814064E+02  0.64675934516E+02 -0.53464900793E+02  0.89933571557E+02  0.00000000000E+00 0.  1.
         22    1    3    3    0    0  0.15927786948E+02 -0.43127008040E+02  0.62743558618E+01  0.46400439233E+02  0.00000000000E+00 0.  1.
</event>
<event>
 7    1  0.5127424E-006  0.1182480E+03  0.7818608E-02  0.1346616E+00
          2   -1    0    0  502    0  0.00000000000E+00  0.00000000000E+00  0.13754196305E+04  0.13754196305E+04  0.00000000000E+00 0. -1.
          1   -1    0    0  501    0 -0.00000000000E+00 -0.00000000000E+00 -0.10027244829E+04  0.10027244829E+04  0.00000000000E+00 0. -1.
         25    2    1    2    0    0 -0.11673649497E+03 -0.71832313034E+02  0.92880153287E+01  0.18573959239E+03  0.12500255396E+03 0.  0.
          2    1    1    2  501    0  0.74519764466E+02  0.91231955700E+02 -0.91027992434E+03  0.91787036431E+03  0.00000000000E+00 0. -1.
          1    1    1    2  502    0  0.42216730507E+02 -0.19399642666E+02  0.12736870566E+04  0.12745341567E+04  0.00000000000E+00 0. -1.
         22    1    3    3    0    0 -0.55063028721E+02 -0.39185325611E+02 -0.57808290544E+02  0.88933825571E+02  0.00000000000E+00 0. -1.
         22    1    3    3    0    0 -0.61673466252E+02 -0.32646987424E+02  0.67096305873E+02  0.96805766817E+02  0.00000000000E+00 0. -1.
</event>
<event>
 7    1  0.5127424E-006  0.8548351E+02  0.7818608E-02  0.1383590E+00
          2   -1    0    0  502    0  0.00000000000E+00  0.00000000000E+00  0.78478178483E+03  0.78478178483E+03  0.00000000000E+00 0. -1.
          1   -1    0    0  501    0 -0.00000000000E+00 -0.00000000000E+00 -0.21812535007E+03  0.21812535007E+03  0.00000000000E+00 0. -1.
         25    2    1    2    0    0  0.36866776811E+02  0.47392717003E+02  0.22797694609E+03  0.26684028298E+03  0.12500007925E+03 0.  0.
          2    1    1    2  501    0  0.46411963412E+02 -0.86632302695E+01 -0.19188679945E+03  0.19760988262E+03  0.00000000000E+00 0. -1.
          1    1    1    2  502    0 -0.83278740223E+02 -0.38729486733E+02  0.53056628811E+03  0.53845696931E+03  0.00000000000E+00 0. -1.
         22    1    3    3    0    0  0.23555864600E+02  0.26314840337E+02  0.23753162479E+03  0.24014292068E+03  0.00000000000E+00 0. -1.
         22    1    3    3    0    0  0.13310912211E+02  0.21077876665E+02 -0.95546786953E+01  0.26697362296E+02  0.00000000000E+00 0. -1.
</event>
<event>
 7    1  0.5127424E-006  0.8538810E+02  0.7818608E-02  0.1354833E+00
          2   -1    0    0  502    0  0.00000000000E+00  0.00000000000E+00  0.37637680950E+04  0.37637680950E+04  0.00000000000E+00 0. -1.
          1   -1    0    0  501    0 -0.00000000000E+00 -0.00000000000E+00 -0.50057041281E+03  0.50057041281E+03  0.00000000000E+00 0. -1.
         25    2    1    2    0    0  0.11239688828E+03 -0.76245549165E+02  0.35539430898E+03  0.40047117682E+03  0.12500241736E+03 0.  0.
          2    1    1    2  501    0 -0.53260240879E+02  0.66171195789E+02 -0.47399043899E+03  0.48154150046E+03  0.00000000000E+00 0. -1.
          1    1    1    2  502    0 -0.59136647396E+02  0.10074353375E+02  0.33817938122E+04  0.33823258305E+04  0.00000000000E+00 0. -1.
         22    1    3    3    0    0  0.21166819450E+02 -0.30008794120E+02  0.25333537849E+03  0.25598315563E+03  0.00000000000E+00 0.  1.
         22    1    3    3    0    0  0.91230068825E+02 -0.46236755045E+02  0.10205893049E+03  0.14448802119E+03  0.00000000000E+00 0.  1.
</event>
<event>
 7    1  0.5127424E-006  0.4795660E+02  0.7818608E-02  0.1494595E+00
          2   -1    0    0  502    0  0.00000000000E+00  0.00000000000E+00  0.73934580189E+03  0.73934580189E+03  0.00000000000E+00 0. -1.
          1   -1    0    0  501    0 -0.00000000000E+00 -0.00000000000E+00 -0.31192255484E+03  0.31192255484E+03  0.00000000000E+00 0. -1.
         25    2    1    2    0    0 -0.37210688293E+02  0.11173966754E+02  0.38798259534E+03  0.40947393316E+03  0.12501565819E+03 0.  0.
          2    1    1    2  501    0  0.40883768216E+02  0.25270708181E+02 -0.29826265262E+03  0.30211041217E+03  0.00000000000E+00 0. -1.
          1    1    1    2  502    0 -0.36730799237E+01 -0.36444674935E+02  0.33770330432E+03  0.33968401139E+03  0.00000000000E+00 0. -1.
         22    1    3    3    0    0 -0.57227820666E+02  0.56425563966E+02  0.21405488326E+03  0.22864461676E+03  0.00000000000E+00 0.  1.
         22    1    3    3    0    0  0.20017132373E+02 -0.45251597213E+02  0.17392771208E+03  0.18082931640E+03  0.00000000000E+00 0.  1.
</event>
<event>
 7    1  0.5127424E-006  0.8797015E+02  0.7818608E-02  0.1448003E+00
          2   -1    0    0  502    0  0.00000000000E+00  0.00000000000E+00  0.23183740735E+04  0.23183740735E+04  0.00000000000E+00 0. -1.
          1   -1    0    0  501    0 -0.00000000000E+00 -0.00000000000E+00 -0.49490126894E+03  0.49490126894E+03  0.00000000000E+00 0. -1.
         25    2    1    2    0    0 -0.43718498656E+02  0.95108541342E+02  0.10257687028E+03  0.19262374824E+03  0.12499980923E+03 0.  0.
          2    1    1    2  501    0  0.26316612736E+02 -0.91574832903E+01 -0.44855966255E+03  0.44942429226E+03  0.00000000000E+00 0. -1.
          1    1    1    2  502    0  0.17401885920E+02 -0.85951058051E+02  0.21694555968E+04  0.21712273019E+04  0.00000000000E+00 0. -1.
         22    1    3    3    0    0  0.59284753137E+01  0.55282142941E+02 -0.16163470499E+02  0.57900949269E+02  0.00000000000E+00 0.  1.
         22    1    3    3    0    0 -0.49646973969E+02  0.39826398401E+02  0.11874034078E+03  0.13472279897E+03  0.00000000000E+00 0.  1.
</event>
<event>
 7    1  0.5127424E-006  0.8199292E+02  0.7818608E-02  0.1477702E+00
          2   -1    0    0  502    0  0.00000000000E+00  0.00000000000E+00  0.31802599284E+03  0.31802599284E+03  0.00000000000E+00 0. -1.
          1   -1    0    0  501    0 -0.00000000000E+00 -0.00000000000E+00 -0.26695319134E+03  0.26695319134E+03  0.00000000000E+00 0. -1.
         25    2    1    2    0    0 -0.19917441152E+02  0.57358102449E+02  0.10316229636E+03  0.17305667328E+03  0.12497798366E+03 0.  0.
          2    1    1    2  501    0  0.36784161447E+02 -0.74592915219E+02 -0.22368205106E+03  0.23864374599E+03  0.00000000000E+00 0. -1.
          1    1    1    2  502    0 -0.16866720295E+02  0.17234812770E+02  0.17159255621E+03  0.17327876491E+03  0.00000000000E+00 0. -1.
         22    1    3    3    0    0  0.44413082463E+02  0.49286966166E+02  0.80632160993E+02  0.10441873546E+03  0.00000000000E+00 0.  1.
         22    1    3    3    0    0 -0.64330523615E+02  0.80711362827E+01  0.22530135363E+02  0.68637937826E+02  0.00000000000E+00 0.  1.
</event>
<event>
 7    1  0.5127424E-006  0.4565555E+02  0.7818608E-02  0.1527745E+00
          2   -1    0    0  502    0  0.00000000000E+00  0.00000000000E+00  0.23990277927E+03  0.23990277927E+03  0.00000000000E+00 0. -1.
          1   -1    0    0  501    0 -0.00000000000E+00 -0.00000000000E+00 -0.20566194859E+04  0.20566194859E+04  0.00000000000E+00 0. -1.
         25    2    1    2    0    0 -0.49110909008E+02  0.99723829645E+01 -0.37735617613E+03  0.40066768434E+03  0.12500231921E+03 0.  0.
          2    1    1    2  501    0  0.79053059840E+01 -0.29709211492E+02 -0.16651778621E+04  0.16654616308E+04  0.00000000000E+00 0. -1.
          1    1    1    2  502    0  0.41205603024E+02  0.19736828528E+02  0.22581733168E+03  0.23039294999E+03  0.00000000000E+00 0. -1.
         22    1    3    3    0    0  0.20448576448E+02  0.47228363744E+02 -0.10229329893E+03  0.11451018132E+03  0.00000000000E+00 0. -1.
         22    1    3    3    0    0 -0.69559485456E+02 -0.37255980780E+02 -0.27506287720E+03  0.28615750302E+03  0.00000000000E+00 0. -1.
</event>
<event>
 7    1  0.5127424E-006  0.1814062E+03  0.7818608E-02  0.1284523E+00
          2   -1    0    0  502    0  0.00000000000E+00  0.00000000000E+00  0.70468472385E+03  0.70468472385E+03  0.00000000000E+00 0. -1.
          1   -1    0    0  501    0 -0.00000000000E+00 -0.00000000000E+00 -0.18443614654E+03  0.18443614654E+03  0.00000000000E+00 0. -1.
         25    2    1    2    0    0  0.45765121721E+02  0.13803268961E+03  0.16213707595E+03  0.25111808659E+03  0.12499756895E+03 0.  0.
          2    1    1    2  501    0 -0.84571210319E+02 -0.17407208706E+03 -0.70621196507E+02  0.20601149119E+03  0.00000000000E+00 0. -1.
          1    1    1    2  502    0  0.38806088598E+02  0.36039397445E+02  0.42873269786E+03  0.43199129261E+03  0.00000000000E+00 0. -1.
         22    1    3    3    0    0  0.88219502623E+02  0.99041324959E+02  0.98184209477E+02  0.16502122192E+03  0.00000000000E+00 0. -1.
         22    1    3    3    0    0 -0.42454380902E+02  0.38991364653E+02  0.63952866476E+02  0.86096864669E+02  0.00000000000E+00 0. -1.
</event>
<event>
 7    1  0.5127424E-006  0.8686784E+02  0.7818608E-02  0.1378814E+00
          2   -1    0    0  502    0  0.00000000000E+00  0.00000000000E+00  0.69549831016E+03  0.69549831016E+03  0.00000000000E+00 0. -1.
          1   -1    0    0  501    0 -0.00000000000E+00 -0.00000000000E+00 -0.51116131566E+02  0.51116131566E+02  0.00000000000E+00 0. -1.
         25    2    1    2    0    0 -0.12907244739E+02 -0.12183094412E+03  0.41079202482E+03  0.44652418754E+03  0.12499754596E+03 0.  0.
          2    1    1    2  501    0  0.13550095776E+02  0.46363986100E+02 -0.62040464201E+01  0.48700251484E+02  0.00000000000E+00 0. -1.
          1    1    1    2  502    0 -0.64285103733E+00  0.75466958016E+02  0.23979420020E+03  0.25139000270E+03  0.00000000000E+00 0. -1.
         22    1    3    3    0    0  0.34847232740E+02 -0.20067456528E+02  0.31960261611E+02  0.51366241476E+02  0.00000000000E+00 0.  1.
         22    1    3    3    0    0 -0.47754477479E+02 -0.10176348759E+03  0.37883176321E+03  0.39515794607E+03  0.00000000000E+00 0.  1.
</event>
<event>
 7    1  0.5127424E-006  0.4486464E+02  0.7818608E-02  0.1495049E+00
          2   -1    0    0  502    0  0.00000000000E+00  0.00000000000E+00  0.73212816465E+03  0.73212816465E+03  0.00000000000E+00 0. -1.
          1   -1    0    0  501    0 -0.00000000000E+00 -0.00000000000E+00 -0.11581835311E+04  0.11581835311E+04  0.00000000000E+00 0. -1.
         25    2    1    2    0    0  0.39096111864E+02  0.56201263967E+02  0.38364786155E+02  0.14759464204E+03  0.12500093402E+03 0.  0.
          2    1    1    2  501    0 -0.37279287368E+02 -0.11560851414E+02 -0.11024420766E+04  0.11031327802E+04  0.00000000000E+00 0. -1.
          1    1    1    2  502    0 -0.18168244967E+01 -0.44640412553E+02  0.63802192404E+03  0.63958427345E+03  0.00000000000E+00 0. -1.
         22    1    3    3    0    0 -0.10459900378E+02  0.84699086023E+02  0.23952525600E+02  0.88640104759E+02  0.00000000000E+00 0. -1.
         22    1    3    3    0    0  0.49556012242E+02 -0.28497822056E+02  0.14412260556E+02  0.58954537277E+02  0.00000000000E+00 0. -1.
</event>
<event>
 7    1  0.5127424E-006  0.9662816E+02  0.7818608E-02  0.1306468E+00
          2   -1    0    0  502    0  0.00000000000E+00  0.00000000000E+00  0.91802840339E+03  0.91802840339E+03  0.00000000000E+00 0. -1.
          1   -1    0    0  501    0 -0.00000000000E+00 -0.00000000000E+00 -0.57876682900E+03  0.57876682900E+03  0.00000000000E+00 0. -1.
         25    2    1    2    0    0  0.10547227146E+03  0.30470315290E+02 -0.27031242414E+03  0.31740649155E+03  0.12500093627E+03 0.  0.
          2    1    1    2  501    0 -0.48450667467E+02 -0.88136965437E+02 -0.27411619899E+03  0.29198507223E+03  0.00000000000E+00 0. -1.
          1    1    1    2  502    0 -0.57021603991E+02  0.57666650147E+02  0.88369019753E+03  0.88740366862E+03  0.00000000000E+00 0. -1.
         22    1    3    3    0    0 -0.53747746922E+01  0.19213996207E+02 -0.15782204581E+03  0.15907816945E+03  0.00000000000E+00 0. -1.
         22    1    3    3    0    0  0.11084704615E+03  0.11256319083E+02 -0.11249037834E+03  0.15832832210E+03  0.00000000000E+00 0. -1.
</event>
<event>
 7    1  0.5127424E-006  0.5224250E+02  0.7818608E-02  0.1446312E+00
          2   -1    0    0  502    0  0.00000000000E+00  0.00000000000E+00  0.16222720319E+04  0.16222720319E+04  0.00000000000E+00 0. -1.
          1   -1    0    0  501    0 -0.00000000000E+00 -0.00000000000E+00 -0.17839246761E+03  0.17839246761E+03  0.00000000000E+00 0. -1.
         25    2    1    2    0    0  0.22322286170E+02 -0.89524943263E+02  0.33913320112E+02  0.15902298000E+03  0.12500077984E+03 0.  0.
          2    1    1    2  501    0 -0.27145894336E+02  0.42259444461E+02 -0.11000434926E+03  0.12092856189E+03  0.00000000000E+00 0. -1.
          1    1    1    2  502    0  0.48236081656E+01  0.47265498803E+02  0.15199705934E+04  0.15207129576E+04  0.00000000000E+00 0. -1.
         22    1    3    3    0    0  0.43346028130E+02  0.68932657682E+01  0.41031245786E+02  0.60082929342E+02  0.00000000000E+00 0.  1.
         22    1    3    3    0    0 -0.21023741960E+02 -0.96418209032E+02 -0.71179256732E+01  0.98940050661E+02  0.00000000000E+00 0.  1.
</event>
<event>
 7    1  0.5127424E-006  0.5135748E+02  0.7818608E-02  0.1478939E+00
          2   -1    0    0  502    0  0.00000000000E+00  0.00000000000E+00  0.19949550073E+04  0.19949550073E+04  0.00000000000E+00 0. -1.
          1   -1    0    0  501    0 -0.00000000000E+00 -0.00000000000E+00 -0.55344777126E+02  0.55344777126E+02  0.00000000000E+00 0. -1.
         25    2    1    2    0    0  0.47433851286E+02  0.16241974134E+02  0.16349369860E+03  0.21182823828E+03  0.12500896399E+03 0.  0.
          2    1    1    2  501    0 -0.23965648720E+02  0.29700705375E+02 -0.18987469908E+02  0.42626379530E+02  0.00000000000E+00 0. -1.
          1    1    1    2  502    0 -0.23468202566E+02 -0.45942679510E+02  0.17951040015E+04  0.17958451667E+04  0.00000000000E+00 0. -1.
         22    1    3    3    0    0  0.76550387961E+02 -0.27339792726E+02  0.11165770217E+03  0.13811179753E+03  0.00000000000E+00 0.  1.
         22    1    3    3    0    0 -0.29116536675E+02  0.43581766860E+02  0.51835996435E+02  0.73716440751E+02  0.00000000000E+00 0.  1.
</event>
<event>
 7    1  0.5127424E-006  0.2499899E+03  0.7818608E-02  0.1332369E+00
          2   -1    0    0  502    0  0.00000000000E+00  0.00000000000E+00  0.39618059203E+03  0.39618059203E+03  0.00000000000E+00 0. -1.
          1   -1    0    0  501    0 -0.00000000000E+00 -0.00000000000E+00 -0.43495391054E+03  0.43495391054E+03  0.00000000000E+00 0. -1.
         25    2    1    2    0    0  0.21313505604E+03  0.83376420795E+02 -0.23470922082E+03  0.35084691565E+03  0.12500784065E+03 0.  0.
          2    1    1    2  501    0  0.24309824682E+02  0.52271964270E+01 -0.92816151828E+02  0.96089173160E+02  0.00000000000E+00 0. -1.
          1    1    1    2  502    0 -0.23744488072E+03 -0.88603617222E+02  0.28875205414E+03  0.38419841376E+03  0.00000000000E+00 0. -1.
         22    1    3    3    0    0  0.20353234429E+03  0.10938180080E+03 -0.22171780712E+03  0.32023207133E+03  0.00000000000E+00 0. -1.
         22    1    3    3    0    0  0.96027117480E+01 -0.26005380006E+02 -0.12991413707E+02  0.30614844313E+02  0.00000000000E+00 0. -1.
</event>
<event>
 7    1  0.5127424E-006  0.4175538E+02  0.7818608E-02  0.1525527E+00
          2   -1    0    0  502    0  0.00000000000E+00  0.00000000000E+00  0.30544983254E+02  0.30544983254E+02  0.00000000000E+00 0. -1.
          1   -1    0    0  501    0 -0.00000000000E+00 -0.00000000000E+00 -0.12601539730E+04  0.12601539730E+04  0.00000000000E+00 0. -1.
         25    2    1    2    0    0 -0.51064353574E+00  0.67102234712E+02 -0.18923914177E+03  0.23652292112E+03  0.12501467423E+03 0.  0.
          2    1    1    2  501    0  0.10915764816E+02 -0.32318526748E+02 -0.99713683649E+03  0.99772015705E+03  0.00000000000E+00 0. -1.
          1    1    1    2  502    0 -0.10405121280E+02 -0.34783707965E+02 -0.43233011458E+02  0.56455878067E+02  0.00000000000E+00 0. -1.
         22    1    3    3    0    0  0.56296124895E+02  0.62551118091E+02 -0.12450538535E+03  0.15027803244E+03  0.00000000000E+00 0. -1.
         22    1    3    3    0    0 -0.56806768431E+02  0.45511166211E+01 -0.64733756428E+02  0.86244888679E+02  0.00000000000E+00 0. -1.
</event>
<event>
 7    1  0.5127424E-006  0.1684278E+03  0.7818608E-02  0.1351532E+00
          2   -1    0    0  502    0  0.00000000000E+00  0.00000000000E+00  0.44162836043E+03  0.44162836043E+03  0.00000000000E+00 0. -1.
          1   -1    0    0  501    0 -0.00000000000E+00 -0.00000000000E+00 -0.12386010543E+04  0.12386010543E+04  0.00000000000E+00 0. -1.
         25    2    1    2    0    0 -0.16414152457E+03 -0.64227135762E+02 -0.63729090263E+03  0.67292735779E+03  0.12499587687E+03 0.  0.
          2    1    1    2  501    0 -0.89424265323E+00  0.31264093304E+02 -0.56633581487E+03  0.56719881735E+03  0.00000000000E+00 0. -1.
          1    1    1    2  502    0  0.16503576722E+03  0.32963042457E+02  0.40665402359E+03  0.44010323963E+03  0.00000000000E+00 0. -1.
         22    1    3    3    0    0 -0.69559423632E+02 -0.75436984020E+02 -0.19342430965E+03  0.21895710890E+03  0.00000000000E+00 0.  1.
         22    1    3    3    0    0 -0.94582100934E+02  0.11209848259E+02 -0.44386659299E+03  0.45397024890E+03  0.00000000000E+00 0.  1.
</event>
<event>
 7    1  0.5127424E-006  0.8308446E+02  0.7818608E-02  0.1372406E+00
          2   -1    0    0  502    0  0.00000000000E+00  0.00000000000E+00  0.40402161145E+03  0.40402161145E+03  0.00000000000E+00 0. -1.
          1   -1    0    0  501    0 -0.00000000000E+00 -0.00000000000E+00 -0.19089378569E+04  0.19089378569E+04  0.00000000000E+00 0. -1.
         25    2    1    2    0    0 -0.21799882671E+02  0.13231003890E+03 -0.57594917785E+03  0.60442069309E+03  0.12500294992E+03 0.  0.
          2    1    1    2  501    0 -0.22865078800E+01 -0.53181443233E+02 -0.13138199169E+04  0.13148978165E+04  0.00000000000E+00 0. -1.
          1    1    1    2  502    0  0.24086390551E+02 -0.79128595666E+02  0.38485284921E+03  0.39364095876E+03  0.00000000000E+00 0. -1.
         22    1    3    3    0    0  0.50444312768E+02  0.36965707880E+02 -0.16661688625E+03  0.17796707289E+03  0.00000000000E+00 0.  1.
         22    1    3    3    0    0 -0.72244195439E+02  0.95344331019E+02 -0.40933229160E+03  0.42645362020E+03  0.00000000000E+00 0.  1.
</event>
<event>
 7    1  0.5127424E-006  0.8043055E+02  0.7818608E-02  0.1330489E+00
          2   -1    0    0  502    0  0.00000000000E+00  0.00000000000E+00  0.50559129062E+03  0.50559129062E+03  0.00000000000E+00 0. -1.
          1   -1    0    0  501    0 -0.00000000000E+00 -0.00000000000E+00 -0.24514568487E+04  0.24514568487E+04  0.00000000000E+00 0. -1.
         25    2    1    2    0    0 -0.10238002188E+03  0.71721828010E+01 -0.27368092200E+03  0.31789951699E+03  0.12500298694E+03 0.  0.
          2    1    1    2  501    0  0.48683221067E+02 -0.64532132365E+02 -0.21517104489E+04  0.21532283455E+04  0.00000000000E+00 0. -1.
          1    1    1    2  502    0  0.53696800816E+02  0.57359949564E+02  0.47952581283E+03  0.48592027680E+03  0.00000000000E+00 0. -1.
         22    1    3    3    0    0 -0.85333895994E+02  0.82658809883E+01 -0.62665759588E+02  0.10619414305E+03  0.00000000000E+00 0.  1.
         22    1    3    3    0    0 -0.17046125889E+02 -0.10936981873E+01 -0.21101516241E+03  0.21170537393E+03  0.00000000000E+00 0.  1.
</event>
<event>
 7    1  0.5127424E-006  0.7917768E+02  0.7818608E-02  0.1447907E+00
          2   -1    0    0  502    0  0.00000000000E+00  0.00000000000E+00  0.63712032344E+03  0.63712032344E+03  0.00000000000E+00 0. -1.
          1   -1    0    0  501    0 -0.00000000000E+00 -0.00000000000E+00 -0.10173687120E+04  0.10173687120E+04  0.00000000000E+00 0. -1.
         25    2    1    2    0    0  0.11042222491E+02 -0.70582475908E+02  0.11578560485E+03  0.18475710917E+03  0.12500026605E+03 0.  0.
          2    1    1    2  501    0  0.30916620993E+02  0.19884782803E+01 -0.97931616618E+03  0.97980607512E+03  0.00000000000E+00 0. -1.
          1    1    1    2  502    0 -0.41958843484E+02  0.68593997628E+02  0.48328217280E+03  0.48992585113E+03  0.00000000000E+00 0. -1.
         22    1    3    3    0    0  0.23815870206E+02  0.33446591511E+01  0.10647703331E+03  0.10915924625E+03  0.00000000000E+00 0. -1.
         22    1    3    3    0    0 -0.12773647715E+02 -0.73927135059E+02  0.93085715441E+01  0.75597862921E+02  0.00000000000E+00 0. -1.
</event>
<event>
 7    1  0.5127424E-006  0.1009908E+03  0.7818608E-02  0.1298375E+00
          2   -1    0    0  502    0  0.00000000000E+00  0.00000000000E+00  0.25407570984E+04  0.25407570984E+04  0.00000000000E+00 0. -1.
          1   -1    0    0  501    0 -0.00000000000E+00 -0.00000000000E+00 -0.13170167990E+04  0.13170167990E+04  0.00000000000E+00 0. -1.
         25    2    1    2    0    0  0.29831080969E+02  0.19377390901E+02  0.23593940097E+03  0.26936558934E+03  0.12500017248E+03 0.  0.
          2    1    1    2  501    0 -0.96936889821E+02  0.30448190298E+02 -0.12975537110E+04  0.13015258298E+04  0.00000000000E+00 0. -1.
          1    1    1    2  502    0  0.67105808852E+02 -0.49825581199E+02  0.22853546095E+04  0.22868824782E+04  0.00000000000E+00 0. -1.
         22    1    3    3    0    0  0.15007790122E+02 -0.52401977131E+02  0.77002819117E+02  0.94343177409E+02  0.00000000000E+00 0. -1.
         22    1    3    3    0    0  0.14823290847E+02  0.71779368032E+02  0.15893658185E+03  0.17502241193E+03  0.00000000000E+00 0. -1.
</event>
<event>
 7    1  0.5127424E-006  0.5352796E+02  0.7818608E-02  0.1468342E+00
          2   -1    0    0  502    0  0.00000000000E+00  0.00000000000E+00  0.14733781879E+04  0.14733781879E+04  0.00000000000E+00 0. -1.
          1   -1    0    0  501    0 -0.00000000000E+00 -0.00000000000E+00 -0.82015640905E+02  0.82015640905E+02  0.00000000000E+00 0. -1.
         25    2    1    2    0    0  0.78949013429E+02  0.29450585808E+02  0.45175997252E+02  0.15737199179E+03  0.12499915738E+03 0.  0.
          2    1    1    2  501    0 -0.46776749711E+02 -0.65527524827E+01 -0.38664142624E+01  0.47391476426E+02  0.00000000000E+00 0. -1.
          1    1    1    2  502    0 -0.32172263718E+02 -0.22897833325E+02  0.13500529640E+04  0.13506303606E+04  0.00000000000E+00 0. -1.
         22    1    3    3    0    0  0.26967711850E+02 -0.45962272032E+02  0.38095990830E+02  0.65506430601E+02  0.00000000000E+00 0. -1.
         22    1    3    3    0    0  0.51981301579E+02  0.75412857840E+02  0.70800064216E+01  0.91865561188E+02  0.00000000000E+00 0. -1.
</event>
<event>
 7    1  0.5127424E-006  0.7773577E+02  0.7818608E-02  0.1507728E+00
          2   -1    0    0  502    0  0.00000000000E+00  0.00000000000E+00  0.49246103545E+03  0.49246103545E+03  0.00000000000E+00 0. -1.
          1   -1    0    0  501    0 -0.00000000000E+00 -0.00000000000E+00 -0.88369793321E+02  0.88369793321E+02  0.00000000000E+00 0. -1.
         25    2    1    2    0    0 -0.86296227025E+02  0.22366669051E+02  0.12519044751E+03  0.19810426521E+03  0.12500138025E+03 0.  0.
          2    1    1    2  501    0  0.75863108657E+02 -0.45458197045E+01 -0.23555661386E+02  0.79565978377E+02  0.00000000000E+00 0. -1.
          1    1    1    2  502    0  0.10433118368E+02 -0.17820849346E+02  0.30245645600E+03  0.30316058518E+03  0.00000000000E+00 0. -1.
         22    1    3    3    0    0 -0.50578240578E+01 -0.29586536797E+02  0.90950478048E+02  0.95775436313E+02  0.00000000000E+00 0.  1.
         22    1    3    3    0    0 -0.81238402967E+02  0.51953205848E+02  0.34239969463E+02  0.10232882890E+03  0.00000000000E+00 0.  1.
</event>
<event>
 7    1  0.5127424E-006  0.4886454E+02  0.7818608E-02  0.1516485E+00
          2   -1    0    0  502    0  0.00000000000E+00  0.00000000000E+00  0.21233965292E+03  0.21233965292E+03  0.00000000000E+00 0. -1.
          1   -1    0    0  501    0 -0.00000000000E+00 -0.00000000000E+00 -0.29432488869E+04  0.29432488869E+04  0.00000000000E+00 0. -1.
         25    2    1    2    0    0  0.40429178173E+02 -0.83118949753E+01  0.94730939023E+02  0.16218274815E+03  0.12500274775E+03 0.  0.
          2    1    1    2  501    0 -0.43402020338E+02 -0.22508552894E+02 -0.29064529948E+04  0.29068641835E+04  0.00000000000E+00 0. -1.
          1    1    1    2  502    0  0.29728421648E+01  0.30820447869E+02  0.80812821739E+02  0.86541608229E+02  0.00000000000E+00 0. -1.
         22    1    3    3    0    0 -0.15590704764E+02  0.13225051978E+02 -0.22549490002E+02  0.30437667029E+02  0.00000000000E+00 0.  1.
         22    1    3    3    0    0  0.56019882937E+02 -0.21536946953E+02  0.11728042902E+03  0.13174508112E+03  0.00000000000E+00 0.  1.
</event>
<event>
 7    1  0.5127424E-006  0.9800258E+02  0.7818608E-02  0.1389857E+00
          2   -1    0    0  502    0  0.00000000000E+00  0.00000000000E+00  0.36217483761E+03  0.36217483761E+03  0.00000000000E+00 0. -1.
          1   -1    0    0  501    0 -0.00000000000E+00 -0.00000000000E+00 -0.11522217703E+04  0.11522217703E+04  0.00000000000E+00 0. -1.
         25    2    1    2    0    0  0.87073966500E+02 -0.67509515881E+02  0.59675084900E+02  0.17697748783E+03  0.12498201897E+03 0.  0.
          2    1    1    2  501    0 -0.51290945396E+02  0.83394492216E+02 -0.10897903847E+04  0.10941793660E+04  0.00000000000E+00 0. -1.
          1    1    1    2  502    0 -0.35783021105E+02 -0.15884976335E+02  0.24006836711E+03  0.24323975407E+03  0.00000000000E+00 0. -1.
         22    1    3    3    0    0 -0.32032970818E+02 -0.21006598173E+02  0.84018246218E+01  0.39217075914E+02  0.00000000000E+00 0. -1.
         22    1    3    3    0    0  0.11910693732E+03 -0.46502917709E+02  0.51273260279E+02  0.13776041192E+03  0.00000000000E+00 0. -1.
</event>
<event>
 7    1  0.5127424E-006  0.6302110E+02  0.7818608E-02  0.1484855E+00
          2   -1    0    0  502    0  0.00000000000E+00  0.00000000000E+00  0.14655634616E+04  0.14655634616E+04  0.00000000000E+00 0. -1.
          1   -1    0    0  501    0 -0.00000000000E+00 -0.00000000000E+00 -0.20346250168E+02  0.20346250168E+02  0.00000000000E+00 0. -1.
         25    2    1    2    0    0  0.92079712555E+00  0.69703069379E+02  0.61580169911E+03  0.63221492684E+03  0.12499846133E+03 0.  0.
          2    1    1    2  501    0  0.26740886319E+02 -0.13222053383E+02  0.94086292138E+01  0.31279705888E+02  0.00000000000E+00 0. -1.
          1    1    1    2  502    0 -0.27661683444E+02 -0.56481015995E+02  0.82000688312E+03  0.82241507906E+03  0.00000000000E+00 0. -1.
         22    1    3    3    0    0 -0.27287518366E+02 -0.78805491919E+01  0.40241823892E+03  0.40341932369E+03  0.00000000000E+00 0. -1.
         22    1    3    3    0    0  0.28208315492E+02  0.77583618571E+02  0.21338346020E+03  0.22879560315E+03  0.00000000000E+00 0. -1.
</event>
<event>
 7    1  0.5127424E-006  0.3708936E+02  0.7818608E-02  0.1562492E+00
          2   -1    0    0  502    0  0.00000000000E+00  0.00000000000E+00  0.12040040287E+03  0.12040040287E+03  0.00000000000E+00 0. -1.
          1   -1    0    0  501    0 -0.00000000000E+00 -0.00000000000E+00 -0.15841636074E+03  0.15841636074E+03  0.00000000000E+00 0. -1.
         25    2    1    2    0    0  0.38631722636E+02  0.16250946346E+01  0.27709762846E+02  0.13374515595E+03  0.12499953942E+03 0.  0.
          2    1    1    2  501    0 -0.24564508817E+02 -0.28381171488E+02 -0.95518500829E+02  0.10262889451E+03  0.00000000000E+00 0. -1.
          1    1    1    2  502    0 -0.14067213819E+02  0.26756076854E+02  0.29792780110E+02  0.42442713155E+02  0.00000000000E+00 0. -1.
         22    1    3    3    0    0  0.22134351727E+02  0.61020141648E+02 -0.27866688564E+01  0.64970398925E+02  0.00000000000E+00 0. -1.
         22    1    3    3    0    0  0.16497370909E+02 -0.59395047014E+02  0.30496431702E+02  0.68774757020E+02  0.00000000000E+00 0. -1.
</event>
<event>
 7    1  0.5127424E-006  0.8296667E+02  0.7818608E-02  0.1425556E+00
          2   -1    0    0  502    0  0.00000000000E+00  0.00000000000E+00  0.23914251264E+04  0.23914251264E+04  0.00000000000E+00 0. -1.
          1   -1    0    0  501    0 -0.00000000000E+00 -0.00000000000E+00 -0.11356439788E+03  0.11356439788E+03  0.00000000000E+00 0. -1.
         25    2    1    2    0    0  0.65723554026E+02  0.43722468341E+02  0.69752545862E+02  0.16346880224E+03  0.12500156744E+03 0.  0.
          2    1    1    2  501    0 -0.45385803698E+02 -0.72167745825E+02 -0.39275580849E+02  0.93864934698E+02  0.00000000000E+00 0. -1.
          1    1    1    2  502    0 -0.20337750328E+02  0.28445277484E+02  0.22473837635E+04  0.22476557873E+04  0.00000000000E+00 0. -1.
         22    1    3    3    0    0  0.37230323079E+02  0.63423240973E+02  0.95335364473E+02  0.12040529960E+03  0.00000000000E+00 0.  1.
         22    1    3    3    0    0  0.28493230947E+02 -0.19700772632E+02 -0.25582818611E+02  0.43063502646E+02  0.00000000000E+00 0.  1.
</event>
<event>
 7    1  0.5127424E-006  0.1361168E+03  0.7818608E-02  0.1232210E+00
          2   -1    0    0  502    0  0.00000000000E+00  0.00000000000E+00  0.30189779970E+02  0.30189779970E+02  0.00000000000E+00 0. -1.
          1   -1    0    0  501    0 -0.00000000000E+00 -0.00000000000E+00 -0.27996911577E+04  0.27996911577E+04  0.00000000000E+00 0. -1.
         25    2    1    2    0    0 -0.12986665069E+03 -0.11478504957E+03 -0.20323052884E+04  0.20435095569E+04  0.12500227719E+03 0.  0.
          2    1    1    2  501    0 -0.66176348559E+01  0.11802361124E+03 -0.48921185443E+03  0.50329077521E+03  0.00000000000E+00 0. -1.
          1    1    1    2  502    0  0.13648428555E+03 -0.32385616771E+01 -0.24798423490E+03  0.28308060555E+03  0.00000000000E+00 0. -1.
         22    1    3    3    0    0 -0.30066108974E+02 -0.63845673036E+02 -0.32706400448E+03  0.33459095011E+03  0.00000000000E+00 0. -1.
         22    1    3    3    0    0 -0.99800541719E+02 -0.50939376529E+02 -0.17052412839E+04  0.17089186067E+04  0.00000000000E+00 0. -1.
</event>
<event>
 7    1  0.5127424E-006  0.4265337E+02  0.7818608E-02  0.1495376E+00
          2   -1    0    0  502    0  0.00000000000E+00  0.00000000000E+00  0.12382023022E+04  0.12382023022E+04  0.00000000000E+00 0. -1.
          1   -1    0    0  501    0 -0.00000000000E+00 -0.00000000000E+00 -0.15988580864E+02  0.15988580864E+02  0.00000000000E+00 0. -1.
         25    2    1    2    0    0 -0.84856866358E+01 -0.85999001342E+01  0.74442155184E+03  0.75494005862E+03  0.12500032043E+03 0.  0.
          2    1    1    2  501    0 -0.41147055137E+02  0.11235194129E+02  0.39450642805E+02  0.58100455688E+02  0.00000000000E+00 0. -1.
          1    1    1    2  502    0  0.49632741772E+02 -0.26352939945E+01  0.43834152669E+03  0.44115036876E+03  0.00000000000E+00 0. -1.
         22    1    3    3    0    0  0.32018641722E+02  0.31135916131E+02  0.12165345928E+03  0.12959244903E+03  0.00000000000E+00 0. -1.
         22    1    3    3    0    0 -0.40504328358E+02 -0.39735816265E+02  0.62276809256E+03  0.62534760959E+03  0.00000000000E+00 0. -1.
</event>
<event>
 7    1  0.5127424E-006  0.7115966E+02  0.7818608E-02  0.1472002E+00
          2   -1    0    0  502    0  0.00000000000E+00  0.00000000000E+00  0.15129085191E+04  0.15129085191E+04  0.00000000000E+00 0. -1.
          1   -1    0    0  501    0 -0.00000000000E+00 -0.00000000000E+00 -0.23035779967E+03  0.23035779967E+03  0.00000000000E+00 0. -1.
         25    2    1    2    0    0  0.67754781295E+02  0.40398090259E+02  0.40295145975E+03  0.42920715440E+03  0.12500474545E+03 0.  0.
          2    1    1    2  501    0 -0.43541920959E+02 -0.56241717252E+02 -0.21121073903E+03  0.22286544354E+03  0.00000000000E+00 0. -1.
          1    1    1    2  502    0 -0.24212860336E+02  0.15843626992E+02  0.10908099987E+04  0.10911937208E+04  0.00000000000E+00 0. -1.
         22    1    3    3    0    0  0.27353300965E+01  0.50722091706E+02  0.54144392790E+02  0.74241685652E+02  0.00000000000E+00 0. -1.
         22    1    3    3    0    0  0.65019451198E+02 -0.10324001446E+02  0.34880706696E+03  0.35496546874E+03  0.00000000000E+00 0. -1.
</event>
<event>
 7    1  0.5127424E-006  0.7395902E+02  0.7818608E-02  0.1387504E+00
          2   -1    0    0  502    0  0.00000000000E+00  0.00000000000E+00  0.87891997961E+02  0.87891997961E+02  0.00000000000E+00 0. -1.
          1   -1    0    0  501    0 -0.00000000000E+00 -0.00000000000E+00 -0.36816753545E+03  0.36816753545E+03  0.00000000000E+00 0. -1.
         25    2    1    2    0    0 -0.60440352363E+02  0.11262845387E+02 -0.47846377420E+02  0.14728910961E+03  0.12499967240E+03 0.  0.
          2    1    1    2  501    0  0.45998454807E+02 -0.62122195844E+02 -0.24287444177E+03  0.25487844068E+03  0.00000000000E+00 0. -1.
          1    1    1    2  502    0  0.14441897556E+02  0.50859350458E+02  0.10445281699E+02  0.53891983112E+02  0.00000000000E+00 0. -1.
         22    1    3    3    0    0 -0.42736821558E+02 -0.33984803394E+02 -0.74113684002E+02  0.92055640430E+02  0.00000000000E+00 0. -1.
         22    1    3    3    0    0 -0.17703530805E+02  0.45247648781E+02  0.26267306582E+02  0.55233469185E+02  0.00000000000E+00 0. -1.
</event>
<event>
 7    1  0.5127424E-006  0.5650540E+02  0.7818608E-02  0.1454622E+00
          2   -1    0    0  502    0  0.00000000000E+00  0.00000000000E+00  0.25181770041E+04  0.25181770041E+04  0.00000000000E+00 0. -1.
          1   -1    0    0  501    0 -0.00000000000E+00 -0.00000000000E+00 -0.15098576144E+03  0.15098576144E+03  0.00000000000E+00 0. -1.
         25    2    1    2    0    0  0.58539491659E+02  0.39914111642E+02  0.23449092705E+04  0.23493063652E+04  0.12498360666E+03 0.  0.
          2    1    1    2  501    0 -0.41316901482E+02 -0.46449451139E+00 -0.14310952257E+03  0.14895515282E+03  0.00000000000E+00 0. -1.
          1    1    1    2  502    0 -0.17222590176E+02 -0.39449617131E+02  0.16539149472E+03  0.17090124760E+03  0.00000000000E+00 0. -1.
         22    1    3    3    0    0  0.60107253176E+02  0.27148963973E+02  0.23227432217E+04  0.23236794147E+04  0.00000000000E+00 0. -1.
         22    1    3    3    0    0 -0.15677615173E+01  0.12765147670E+02  0.22166048840E+02  0.25626950509E+02  0.00000000000E+00 0. -1.
</event>
<event>
 7    1  0.5127424E-006  0.7244950E+02  0.7818608E-02  0.1447578E+00
          2   -1    0    0  502    0  0.00000000000E+00  0.00000000000E+00  0.94197840765E+03  0.94197840765E+03  0.00000000000E+00 0. -1.
          1   -1    0    0  501    0 -0.00000000000E+00 -0.00000000000E+00 -0.67651312956E+02  0.67651312956E+02  0.00000000000E+00 0. -1.
         25    2    1    2    0    0 -0.55899046330E+02 -0.54855731659E+02  0.34822111392E+03  0.37817543224E+03  0.12499943477E+03 0.  0.
          2    1    1    2  501    0  0.68661564152E+02  0.23406569059E+02 -0.26929159824E+02  0.77378663181E+02  0.00000000000E+00 0. -1.
          1    1    1    2  502    0 -0.12762517822E+02  0.31449162601E+02  0.55303514059E+03  0.55407562518E+03  0.00000000000E+00 0. -1.
         22    1    3    3    0    0  0.12160529987E+01 -0.30518886710E+02  0.29448837597E+03  0.29606804085E+03  0.00000000000E+00 0. -1.
         22    1    3    3    0    0 -0.57115099328E+02 -0.24336844949E+02  0.53732737953E+02  0.82107391393E+02  0.00000000000E+00 0. -1.
</event>
<event>
 7    1  0.5127424E-006  0.1589736E+03  0.7818608E-02  0.1269707E+00
          2   -1    0    0  502    0  0.00000000000E+00  0.00000000000E+00  0.83205530833E+03  0.83205530833E+03  0.00000000000E+00 0. -1.
          1   -1    0    0  501    0 -0.00000000000E+00 -0.00000000000E+00 -0.67259806012E+03  0.67259806012E+03  0.00000000000E+00 0. -1.
         25    2    1    2    0    0 -0.14939010333E+03  0.74853742730E+02  0.53389577938E+03  0.57322651793E+03  0.12499380724E+03 0.  0.
          2    1    1    2  501    0  0.15898188049E+03 -0.58892970634E+01 -0.63866432992E+03  0.65818086303E+03  0.00000000000E+00 0. -1.
          1    1    1    2  502    0 -0.95917771564E+01 -0.68964445666E+02  0.26422579875E+03  0.27324598749E+03  0.00000000000E+00 0. -1.
         22    1    3    3    0    0 -0.17183350555E+03  0.64826984535E+02  0.45804916037E+03  0.49349602315E+03  0.00000000000E+00 0.  1.
         22    1    3    3    0    0  0.22443402213E+02  0.10026758194E+02  0.75846619009E+02  0.79730494780E+02  0.00000000000E+00 0.  1.
</event>
<event>
 7    1  0.5127424E-006  0.7944481E+02  0.7818608E-02  0.1408514E+00
          2   -1    0    0  502    0  0.00000000000E+00  0.00000000000E+00  0.14397218153E+04  0.14397218153E+04  0.00000000000E+00 0. -1.
          1   -1    0    0  501    0 -0.00000000000E+00 -0.00000000000E+00 -0.11657691478E+03  0.11657691478E+03  0.00000000000E+00 0. -1.
         25    2    1    2    0    0  0.48288227831E+02  0.68649697473E+02  0.85002816638E+02  0.17289909404E+03  0.12499633585E+03 0.  0.
          2    1    1    2  501    0 -0.72378526834E+02 -0.34666618341E+02 -0.50019877165E+02  0.94564336224E+02  0.00000000000E+00 0. -1.
          1    1    1    2  502    0  0.24090299003E+02 -0.33983079131E+02  0.12881619611E+04  0.12888352998E+04  0.00000000000E+00 0. -1.
         22    1    3    3    0    0  0.39602034584E+02  0.10057501367E+03  0.88404422507E+02  0.13963880706E+03  0.00000000000E+00 0.  1.
         22    1    3    3    0    0  0.86861932472E+01 -0.31925316201E+02 -0.34016058687E+01  0.33260286983E+02  0.00000000000E+00 0.  1.
</event>
<event>
 7    1  0.5127424E-006  0.9491170E+02  0.7818608E-02  0.1362370E+00
          2   -1    0    0  502    0  0.00000000000E+00  0.00000000000E+00  0.13275889067E+04  0.13275889067E+04  0.00000000000E+00 0. -1.
          1   -1    0    0  501    0 -0.00000000000E+00 -0.00000000000E+00 -0.77093215058E+03  0.77093215058E+03  0.00000000000E+00 0. -1.
         25    2    1    2    0    0 -0.27375970850E+02 -0.14086640555E+03  0.88853309885E+02  0.21003718384E+03  0.12501167915E+03 0.  0.
          2    1    1    2  501    0  0.26029502920E+02  0.90233791810E+02 -0.70668796726E+03  0.71290080325E+03  0.00000000000E+00 0. -1.
          1    1    1    2  502    0  0.13464679308E+01  0.50632613741E+02  0.11744914135E+04  0.11755830702E+04  0.00000000000E+00 0. -1.
         22    1    3    3    0    0 -0.74011675704E+01 -0.16141630881E+03  0.77530495161E+02  0.17922326777E+03  0.00000000000E+00 0.  1.
         22    1    3    3    0    0 -0.19974803280E+02  0.20549903259E+02  0.11322814724E+02  0.30813916066E+02  0.00000000000E+00 0.  1.
</event>
<event>
 7    1  0.5127424E-006  0.1416140E+03  0.7818608E-02  0.1375685E+00
          2   -1    0    0  502    0  0.00000000000E+00  0.00000000000E+00  0.21779428977E+04  0.21779428977E+04  0.00000000000E+00 0. -1.
          1   -1    0    0  501    0 -0.00000000000E+00 -0.00000000000E+00 -0.27686918209E+03  0.27686918209E+03  0.00000000000E+00 0. -1.
         25    2    1    2    0    0 -0.10643264526E+03 -0.38864004283E+02  0.90693588798E+03  0.92249468561E+03  0.12500168512E+03 0.  0.
          2    1    1    2  501    0  0.13683123897E+03  0.38712377434E+02 -0.25010428022E+03  0.28770399217E+03  0.00000000000E+00 0. -1.
          1    1    1    2  502    0 -0.30398593717E+02  0.15162684936E+00  0.12442421079E+04  0.12446134020E+04  0.00000000000E+00 0. -1.
         22    1    3    3    0    0 -0.10155943274E+03 -0.74972242771E+02  0.58262447207E+03  0.59614296190E+03  0.00000000000E+00 0. -1.
         22    1    3    3    0    0 -0.48732125191E+01  0.36108238487E+02  0.32431141590E+03  0.32635172371E+03  0.00000000000E+00 0. -1.
</event>
<event>
 7    1  0.5127424E-006  0.6012717E+02  0.7818608E-02  0.1425971E+00
          2   -1    0    0  502    0  0.00000000000E+00  0.00000000000E+00  0.21472693404E+04  0.21472693404E+04  0.00000000000E+00 0. -1.
          1   -1    0    0  501    0 -0.00000000000E+00 -0.00000000000E+00 -0.52348936222E+02  0.52348936222E+02  0.00000000000E+00 0. -1.
         25    2    1    2    0    0 -0.96133347229E+02  0.19094439584E+02  0.33042923879E+03  0.36662647708E+03  0.12500109509E+03 0.  0.
          2    1    1    2  501    0  0.57120409394E+02  0.90373882800E+01 -0.92781674108E+01  0.58570469921E+02  0.00000000000E+00 0. -1.
          1    1    1    2  502    0  0.39012937835E+02 -0.28131827864E+02  0.17737693328E+04  0.17744213296E+04  0.00000000000E+00 0. -1.
         22    1    3    3    0    0 -0.76906734311E+02 -0.34177560199E+02  0.10700238436E+03  0.13613324966E+03  0.00000000000E+00 0. -1.
         22    1    3    3    0    0 -0.19226612918E+02  0.53271999783E+02  0.22342685443E+03  0.23049322742E+03  0.00000000000E+00 0. -1.
</event>
<event>
 7    1  0.5127424E-006  0.1014528E+03  0.7818608E-02  0.1341193E+00
          2   -1    0    0  502    0  0.00000000000E+00  0.00000000000E+00  0.91125811825E+03  0.91125811825E+03  0.00000000000E+00 0. -1.
          1   -1    0    0  501    0 -0.00000000000E+00 -0.00000000000E+00 -0.52693878818E+03  0.52693878818E+03  0.00000000000E+00 0. -1.
         25    2    1    2    0    0  0.13829934973E+02  0.11140133732E+03 -0.13339575933E+02  0.16853548143E+03  0.12499895662E+03 0.  0.
          2    1    1    2  501    0 -0.53806483305E+02 -0.18009827045E+02 -0.43104026585E+03  0.43475878634E+03  0.00000000000E+00 0. -1.
          1    1    1    2  502    0  0.39976548332E+02 -0.93391510272E+02  0.82869917185E+03  0.83490263866E+03  0.00000000000E+00 0. -1.
         22    1    3    3    0    0 -0.42379872299E+02  0.16257181195E+01  0.85873336909E+01  0.43271686302E+02  0.00000000000E+00 0. -1.
         22    1    3    3    0    0  0.56209807272E+02  0.10977561920E+03 -0.21926909624E+02  0.12526379513E+03  0.00000000000E+00 0. -1.
</event>
<event>
 7    1  0.5127424E-006  0.1628008E+03  0.7818608E-02  0.1257789E+00
          2   -1    0    0  502    0  0.00000000000E+00  0.00000000000E+00  0.57398923902E+03  0.57398923902E+03  0.00000000000E+00 0. -1.
          1   -1    0    0  501    0 -0.00000000000E+00 -0.00000000000E+00 -0.88527174890E+03  0.88527174890E+03  0.00000000000E+00 0. -1.
         25    2    1    2    0    0 -0.19057070679E+02  0.92899083958E+02  0.75557410103E+02  0.17411527535E+03  0.12495517254E+03 0.  0.
          2    1    1    2  501    0  0.63611874602E+02 -0.15494487704E+03 -0.82426018586E+03  0.84110596212E+03  0.00000000000E+00 0. -1.
          1    1    1    2  502    0 -0.44554803923E+02  0.62045793084E+02  0.43742026588E+03  0.44403975046E+03  0.00000000000E+00 0. -1.
         22    1    3    3    0    0 -0.33135406481E+02  0.35733787348E+02  0.99316673768E+02  0.11062847920E+03  0.00000000000E+00 0. -1.
         22    1    3    3    0    0  0.14078335803E+02  0.57165296610E+02 -0.23759263665E+02  0.63486796150E+02  0.00000000000E+00 0. -1.
</event>
<event>
 7    1  0.5127424E-006  0.7847764E+02  0.7818608E-02  0.1355204E+00
          2   -1    0    0  502    0  0.00000000000E+00  0.00000000000E+00  0.34607960656E+04  0.34607960656E+04  0.00000000000E+00 0. -1.
          1   -1    0    0  501    0 -0.00000000000E+00 -0.00000000000E+00 -0.17214003363E+02  0.17214003363E+02  0.00000000000E+00 0. -1.
         25    2    1    2    0    0 -0.55204900137E+02 -0.12563668379E+03  0.14066282580E+04  0.14188236190E+04  0.12500099432E+03 0.  0.
          2    1    1    2  501    0  0.37241901965E+02  0.63099024113E+02  0.11646395578E+03  0.13759469140E+03  0.00000000000E+00 0. -1.
          1    1    1    2  502    0  0.17962998172E+02  0.62537659677E+02  0.19204898485E+04  0.19215917585E+04  0.00000000000E+00 0. -1.
         22    1    3    3    0    0 -0.34882669731E+02 -0.14076611162E+02  0.93131965296E+02  0.10044159790E+03  0.00000000000E+00 0. -1.
         22    1    3    3    0    0 -0.20322230406E+02 -0.11156007263E+03  0.13134962927E+04  0.13183820211E+04  0.00000000000E+00 0. -1.
</event>
<event>
 7    1  0.5127424E-006  0.1005618E+03  0.7818608E-02  0.1348385E+00
          2   -1    0    0  502    0  0.00000000000E+00  0.00000000000E+00  0.53256861604E+03  0.53256861604E+03  0.00000000000E+00 0. -1.
          1   -1    0    0  501    0 -0.00000000000E+00 -0.00000000000E+00 -0.10160573103E+04  0.10160573103E+04  0.00000000000E+00 0. -1.
         25    2    1    2    0    0  0.12860374667E+03  0.30232827121E+02  0.59142858675E+02  0.19124437015E+03  0.12499433543E+03 0.  0.
          2    1    1    2  501    0 -0.99002246581E+02  0.14703791074E+02 -0.94557682652E+03  0.95085918051E+03  0.00000000000E+00 0. -1.
          1    1    1    2  502    0 -0.29601500089E+02 -0.44936618195E+02  0.40294527357E+03  0.40652237571E+03  0.00000000000E+00 0. -1.
         22    1    3    3    0    0  0.44511025800E+02  0.71159915096E+02  0.71449409415E+01  0.84237848473E+02  0.00000000000E+00 0.  1.
         22    1    3    3    0    0  0.84092720870E+02 -0.40927087975E+02  0.51997917734E+02  0.10700652168E+03  0.00000000000E+00 0.  1.
</event>
<event>
 7    1  0.5127424E-006  0.1069645E+03  0.7818608E-02  0.1310596E+00
          2   -1    0    0  502    0  0.00000000000E+00  0.00000000000E+00  0.91618896921E+03  0.91618896921E+03  0.00000000000E+00 0. -1.
          1   -1    0    0  501    0 -0.00000000000E+00 -0.00000000000E+00 -0.61617382738E+03  0.61617382738E+03  0.00000000000E+00 0. -1.
         25    2    1    2    0    0 -0.16274149326E+03  0.50947177767E+02 -0.10005355452E+03  0.23390688360E+03  0.12498523063E+03 0.  0.
          2    1    1    2  501    0  0.92861365489E+02 -0.41162994413E+02 -0.44195669395E+03  0.45347915568E+03  0.00000000000E+00 0. -1.
          1    1    1    2  502    0  0.69880127768E+02 -0.97841833539E+01  0.84202539029E+03  0.84497675731E+03  0.00000000000E+00 0. -1.
         22    1    3    3    0    0 -0.11370432141E+03  0.59354646342E+02 -0.70811669751E+01  0.12845929190E+03  0.00000000000E+00 0.  1.
         22    1    3    3    0    0 -0.49037171849E+02 -0.84074685748E+01 -0.92972387543E+02  0.10544759170E+03  0.00000000000E+00 0.  1.
</event>
<event>
 7    1  0.5127424E-006  0.8743127E+02  0.7818608E-02  0.1370681E+00
          2   -1    0    0  502    0  0.00000000000E+00  0.00000000000E+00  0.22970952746E+03  0.22970952746E+03  0.00000000000E+00 0. -1.
          1   -1    0    0  501    0 -0.00000000000E+00 -0.00000000000E+00 -0.19332211682E+03  0.19332211682E+03  0.00000000000E+00 0. -1.
         25    2    1    2    0    0  0.33651706343E+02  0.56063765708E+02  0.95472538720E+01  0.14139047282E+03  0.12499813032E+03 0.  0.
          2    1    1    2  501    0 -0.34183968356E+02  0.38264421471E+02 -0.10655379218E+03  0.11826419691E+03  0.00000000000E+00 0. -1.
          1    1    1    2  502    0  0.53226201264E+00 -0.94328187179E+02  0.13339394895E+03  0.16337697456E+03  0.00000000000E+00 0. -1.
         22    1    3    3    0    0  0.12981324191E+02  0.30591418931E+02  0.67251238982E+02  0.75013857617E+02  0.00000000000E+00 0. -1.
         22    1    3    3    0    0  0.20670382151E+02  0.25472346777E+02 -0.57703985110E+02  0.66376615206E+02  0.00000000000E+00 0. -1.
</event>
<event>
 7    1  0.5127424E-006  0.9196760E+02  0.7818608E-02  0.1406162E+00
          2   -1    0    0  502    0  0.00000000000E+00  0.00000000000E+00  0.17127460416E+04  0.17127460416E+04  0.00000000000E+00 0. -1.
          1   -1    0    0  501    0 -0.00000000000E+00 -0.00000000000E+00 -0.11153532173E+03  0.11153532173E+03  0.00000000000E+00 0. -1.
         25    2    1    2    0    0  0.52491426667E+02 -0.11456263747E+03  0.28752650460E+03  0.33790161248E+03  0.12500424428E+03 0.  0.
          2    1    1    2  501    0 -0.39074690241E+02  0.80453896416E+02 -0.62877045172E+02  0.10933061637E+03  0.00000000000E+00 0. -1.
          1    1    1    2  502    0 -0.13416736426E+02  0.34108741058E+02  0.13765612604E+04  0.13770491345E+04  0.00000000000E+00 0. -1.
         22    1    3    3    0    0 -0.31998813798E+02 -0.92094206875E+01  0.10948496136E+03  0.11443642024E+03  0.00000000000E+00 0.  1.
         22    1    3    3    0    0  0.84490240465E+02 -0.10535321679E+03  0.17804154324E+03  0.22346519224E+03  0.00000000000E+00 0.  1.
</event>
<event>
 7    1  0.5127424E-006  0.2130898E+03  0.7818608E-02  0.1317801E+00
          2   -1    0    0  502    0  0.00000000000E+00  0.00000000000E+00  0.47820272882E+03  0.47820272882E+03  0.00000000000E+00 0. -1.
          1   -1    0    0  501    0 -0.00000000000E+00 -0.00000000000E+00 -0.78548371903E+03  0.78548371903E+03  0.00000000000E+00 0. -1.
         25    2    1    2    0    0  0.16184145865E+03  0.12742368262E+03 -0.20938564741E+03  0.31921296783E+03  0.12500046743E+03 0.  0.
          2    1    1    2  501    0  0.24600266565E+02 -0.22283394602E+02 -0.49353234849E+03  0.49464724986E+03  0.00000000000E+00 0. -1.
          1    1    1    2  502    0 -0.18644172522E+03 -0.10514028802E+03  0.39563700569E+03  0.44982623016E+03  0.00000000000E+00 0. -1.
         22    1    3    3    0    0  0.16625469877E+02 -0.14555527659E+02  0.62822268402E+01  0.22972505482E+02  0.00000000000E+00 0.  1.
         22    1    3    3    0    0  0.14521598878E+03  0.14197921028E+03 -0.21566787425E+03  0.29624046235E+03  0.00000000000E+00 0.  1.
</event>
<event>
 7    1  0.5127424E-006  0.6824643E+02  0.7818608E-02  0.1388266E+00
          2   -1    0    0  502    0  0.00000000000E+00  0.00000000000E+00  0.71762343632E+02  0.71762343632E+02  0.00000000000E+00 0. -1.
          1   -1    0    0  501    0 -0.00000000000E+00 -0.00000000000E+00 -0.97289679155E+03  0.97289679155E+03  0.00000000000E+00 0. -1.
         25    2    1    2    0    0  0.43826291659E+02 -0.77637124781E+02 -0.38811021403E+03  0.41737637681E+03  0.12500093878E+03 0.  0.
          2    1    1    2  501    0  0.19873432219E+02  0.53364637508E+02 -0.54780370023E+03  0.55075551003E+03  0.00000000000E+00 0. -1.
          1    1    1    2  502    0 -0.63699723878E+02  0.24272487273E+02  0.34779466340E+02  0.76527248347E+02  0.00000000000E+00 0. -1.
         22    1    3    3    0    0 -0.34053152911E+02 -0.22745872523E+02 -0.43104775186E+02  0.59455980219E+02  0.00000000000E+00 0. -1.
         22    1    3    3    0    0  0.77879444570E+02 -0.54891252258E+02 -0.34500543884E+03  0.35792039659E+03  0.00000000000E+00 0. -1.
</event>
<event>
 7    1  0.5127424E-006  0.8991843E+02  0.7818608E-02  0.1335284E+00
          2   -1    0    0  502    0  0.00000000000E+00  0.00000000000E+00  0.28509775379E+03  0.28509775379E+03  0.00000000000E+00 0. -1.
          1   -1    0    0  501    0 -0.00000000000E+00 -0.00000000000E+00 -0.17628185199E+04  0.17628185199E+04  0.00000000000E+00 0. -1.
         25    2    1    2    0    0  0.17029392304E+02 -0.14143324222E+03  0.40296920592E+02  0.19375834960E+03  0.12500037608E+03 0.  0.
          2    1    1    2  501    0 -0.32024032754E+02  0.59295743500E+02 -0.16749984741E+04  0.16763536059E+04  0.00000000000E+00 0. -1.
          1    1    1    2  502    0  0.14994640450E+02  0.82137498723E+02  0.15698078741E+03  0.17780431815E+03  0.00000000000E+00 0. -1.
         22    1    3    3    0    0 -0.34977881940E+02 -0.35798509772E+02  0.55847346864E+02  0.74992744174E+02  0.00000000000E+00 0.  1.
         22    1    3    3    0    0  0.52007274244E+02 -0.10563473245E+03 -0.15550426273E+02  0.11876560542E+03  0.00000000000E+00 0.  1.
</event>
<event>
 7    1  0.5127424E-006  0.7600620E+02  0.7818608E-02  0.1418847E+00
          2   -1    0    0  502    0  0.00000000000E+00  0.00000000000E+00  0.95073303231E+02  0.95073303231E+02  0.00000000000E+00 0. -1.
          1   -1    0    0  501    0 -0.00000000000E+00 -0.00000000000E+00 -0.12287073056E+04  0.12287073056E+04  0.00000000000E+00 0. -1.
         25    2    1    2    0    0 -0.18663678720E+02 -0.11078419170E+03 -0.20788750617E+03  0.26732482147E+03  0.12499549960E+03 0.  0.
          2    1    1    2  501    0  0.12716378369E+02  0.38119616688E+02 -0.97022166501E+03  0.97105349529E+03  0.00000000000E+00 0. -1.
          1    1    1    2  502    0  0.59473003506E+01  0.72664575011E+02  0.44475168838E+02  0.85402292043E+02  0.00000000000E+00 0. -1.
         22    1    3    3    0    0  0.23649294752E+02 -0.69626981485E+01  0.64095577210E+01  0.25472548713E+02  0.00000000000E+00 0.  1.
         22    1    3    3    0    0 -0.42312973471E+02 -0.10382149355E+03 -0.21429706389E+03  0.24185227276E+03  0.00000000000E+00 0.  1.
</event>
<event>
 7    1  0.5127424E-006  0.9586765E+02  0.7818608E-02  0.1398665E+00
          2   -1    0    0  502    0  0.00000000000E+00  0.00000000000E+00  0.14587270342E+04  0.14587270342E+04  0.00000000000E+00 0. -1.
          1   -1    0    0  501    0 -0.00000000000E+00 -0.00000000000E+00 -0.27632256927E+03  0.27632256927E+03  0.00000000000E+00 0. -1.
         25    2    1    2    0    0 -0.11026867552E+03 -0.71770078378E+02  0.13330562230E+03  0.22517562637E+03  0.12499419516E+03 0.  0.
          2    1    1    2  501    0  0.33105612645E+02  0.17193660238E+02 -0.22711850707E+03  0.23016172531E+03  0.00000000000E+00 0. -1.
          1    1    1    2  502    0  0.77163062876E+02  0.54576418139E+02  0.12762173497E+04  0.12797122518E+04  0.00000000000E+00 0. -1.
         22    1    3    3    0    0 -0.58564159558E+02 -0.10484709374E+03  0.87668173707E+02  0.14868887830E+03  0.00000000000E+00 0.  1.
         22    1    3    3    0    0 -0.51704515962E+02  0.33077015361E+02  0.45637448593E+02  0.76486748069E+02  0.00000000000E+00 0.  1.
</event>
<event>
 7    1  0.5127424E-006  0.5384306E+02  0.7818608E-02  0.1546107E+00
          2   -1    0    0  502    0  0.00000000000E+00  0.00000000000E+00  0.13038743209E+04  0.13038743209E+04  0.00000000000E+00 0. -1.
          1   -1    0    0  501    0 -0.00000000000E+00 -0.00000000000E+00 -0.18694885326E+03  0.18694885326E+03  0.00000000000E+00 0. -1.
         25    2    1    2    0    0 -0.71118996489E+00 -0.36518758193E+02  0.26435149570E+03  0.29468692586E+03  0.12499818198E+03 0.  0.
          2    1    1    2  501    0  0.16870732191E+02 -0.15808608945E+02 -0.17026732614E+03  0.17182984628E+03  0.00000000000E+00 0. -1.
          1    1    1    2  502    0 -0.16159542226E+02  0.52327367138E+02  0.10228412980E+04  0.10243064020E+04  0.00000000000E+00 0. -1.
         22    1    3    3    0    0  0.58572482650E+02 -0.24373254617E+02  0.89848044931E+02  0.10998846504E+03  0.00000000000E+00 0. -1.
         22    1    3    3    0    0 -0.59283672614E+02 -0.12145503576E+02  0.17450345077E+03  0.18469846081E+03  0.00000000000E+00 0. -1.
</event>
<event>
 7    1  0.5127424E-006  0.8835936E+02  0.7818608E-02  0.1331499E+00
          2   -1    0    0  502    0  0.00000000000E+00  0.00000000000E+00  0.46890458892E+03  0.46890458892E+03  0.00000000000E+00 0. -1.
          1   -1    0    0  501    0 -0.00000000000E+00 -0.00000000000E+00 -0.49823029555E+03  0.49823029555E+03  0.00000000000E+00 0. -1.
         25    2    1    2    0    0 -0.66923821604E+02 -0.73179032204E+02  0.60685081504E+02  0.17070939873E+03  0.12500020418E+03 0.  0.
          2    1    1    2  501    0 -0.22715142687E+02  0.67151473805E+02 -0.43458644564E+03  0.44033019074E+03  0.00000000000E+00 0. -1.
          1    1    1    2  502    0  0.89638964291E+02  0.60275583991E+01  0.34457565751E+03  0.35609529500E+03  0.00000000000E+00 0. -1.
         22    1    3    3    0    0 -0.87708738083E+02 -0.50963372584E+02 -0.15329779117E+01  0.10145165402E+03  0.00000000000E+00 0. -1.
         22    1    3    3    0    0  0.20784916479E+02 -0.22215659619E+02  0.62218059415E+02  0.69257744713E+02  0.00000000000E+00 0. -1.
</event>
<event>
 7    1  0.5127424E-006  0.4920612E+02  0.7818608E-02  0.1547307E+00
          2   -1    0    0  502    0  0.00000000000E+00  0.00000000000E+00  0.10164055207E+04  0.10164055207E+04  0.00000000000E+00 0. -1.
          1   -1    0    0  501    0 -0.00000000000E+00 -0.00000000000E+00 -0.38774122336E+03  0.38774122336E+03  0.00000000000E+00 0. -1.
         25    2    1    2    0    0  0.56449693063E+02  0.29963660829E+02  0.18302406287E+03  0.23066650051E+03  0.12499935221E+03 0.  0.
          2    1    1    2  501    0 -0.79652712742E+01 -0.23806309391E+02 -0.36274817541E+03  0.36361576516E+03  0.00000000000E+00 0. -1.
          1    1    1    2  502    0 -0.48484421789E+02 -0.61573514381E+01  0.80838840992E+03  0.80986447843E+03  0.00000000000E+00 0. -1.
         22    1    3    3    0    0  0.88769759923E+02  0.50384789428E+02  0.12949472952E+03  0.16488657391E+03  0.00000000000E+00 0.  1.
         22    1    3    3    0    0 -0.32320066860E+02 -0.20421128598E+02  0.53529333346E+02  0.65779926601E+02  0.00000000000E+00 0.  1.
</event>
<event>
 7    1  0.5127424E-006  0.4631242E+02  0.7818608E-02  0.1501685E+00
          2   -1    0    0  502    0  0.00000000000E+00  0.00000000000E+00  0.28853047405E+04  0.28853047405E+04  0.00000000000E+00 0. -1.
          1   -1    0    0  501    0 -0.00000000000E+00 -0.00000000000E+00 -0.16985972321E+04  0.16985972321E+04  0.00000000000E+00 0. -1.
         25    2    1    2    0    0 -0.12453546923E+02  0.49347439183E+02  0.51626834204E+03  0.53361867641E+03  0.12500252091E+03 0.  0.
          2    1    1    2  501    0 -0.22556342216E+02 -0.40454549233E+02 -0.16894664483E+04  0.16901012511E+04  0.00000000000E+00 0. -1.
          1    1    1    2  502    0  0.35009889139E+02 -0.88928899501E+01  0.23599056147E+04  0.23601820451E+04  0.00000000000E+00 0. -1.
         22    1    3    3    0    0 -0.38166087394E+02 -0.20859783283E+02  0.33079674141E+03  0.33364391934E+03  0.00000000000E+00 0. -1.
         22    1    3    3    0    0  0.25712540470E+02  0.70207222466E+02  0.18547160063E+03  0.19997475707E+03  0.00000000000E+00 0. -1.
</event>
<event>
 7    1  0.5127424E-006  0.1179092E+03  0.7818608E-02  0.1311128E+00
          2   -1    0    0  502    0  0.00000000000E+00  0.00000000000E+00  0.28654793334E+02  0.28654793334E+02  0.00000000000E+00 0. -1.
          1   -1    0    0  501    0 -0.00000000000E+00 -0.00000000000E+00 -0.24989859490E+04  0.24989859490E+04  0.00000000000E+00 0. -1.
         25    2    1    2    0    0 -0.11206731469E+03  0.59991057520E+02 -0.14496059754E+04  0.14605273274E+04  0.12499832065E+03 0.  0.
          2    1    1    2  501    0  0.49167588308E+02  0.40506628591E+02 -0.88338454281E+03  0.88567854732E+03  0.00000000000E+00 0. -1.
          1    1    1    2  502    0  0.62899726384E+02 -0.10049768611E+03 -0.13734063748E+03  0.18143486764E+03  0.00000000000E+00 0. -1.
         22    1    3    3    0    0 -0.72091842202E+02  0.17631240181E+02 -0.12598399426E+04  0.12620240787E+04  0.00000000000E+00 0.  1.
         22    1    3    3    0    0 -0.39975472489E+02  0.42359817339E+02 -0.18976603282E+03  0.19850324869E+03  0.00000000000E+00 0.  1.
</event>
<event>
 7    1  0.5127424E-006  0.3319189E+03  0.7818608E-02  0.1213760E+00
          2   -1    0    0  502    0  0.00000000000E+00  0.00000000000E+00  0.12888907240E+04  0.12888907240E+04  0.00000000000E+00 0. -1.
          1   -1    0    0  501    0 -0.00000000000E+00 -0.00000000000E+00 -0.99414660998E+03  0.99414660998E+03  0.00000000000E+00 0. -1.
         25    2    1    2    0    0  0.96610735314E+02 -0.34618675623E+03 -0.65626359955E+02  0.38615257292E+03  0.12501234373E+03 0.  0.
          2    1    1    2  501    0 -0.55486135044E+02  0.19403450776E+02 -0.74304283587E+03  0.74536424721E+03  0.00000000000E+00 0. -1.
          1    1    1    2  502    0 -0.41124600270E+02  0.32678330546E+03  0.11034133099E+04  0.11515205139E+04  0.00000000000E+00 0. -1.
         22    1    3    3    0    0  0.12201400933E+03 -0.21799907639E+03 -0.40685084243E+02  0.25311319969E+03  0.00000000000E+00 0.  1.
         22    1    3    3    0    0 -0.25403274019E+02 -0.12818767985E+03 -0.24941275711E+02  0.13303937323E+03  0.00000000000E+00 0.  1.
</event>
<event>
 7    1  0.5127424E-006  0.8475503E+02  0.7818608E-02  0.1435661E+00
          2   -1    0    0  502    0  0.00000000000E+00  0.00000000000E+00  0.84905500409E+02  0.84905500409E+02  0.00000000000E+00 0. -1.
          1   -1    0    0  501    0 -0.00000000000E+00 -0.00000000000E+00 -0.48262811523E+03  0.48262811523E+03  0.00000000000E+00 0. -1.
         25    2    1    2    0    0  0.14932156689E+02  0.85067002551E+02 -0.19260006826E+03  0.24531448807E+03  0.12500019014E+03 0.  0.
          2    1    1    2  501    0  0.16754845905E+02 -0.83912818075E+02 -0.25171443437E+03  0.26586132169E+03  0.00000000000E+00 0. -1.
          1    1    1    2  502    0 -0.31687002594E+02 -0.11541844767E+01  0.46591887806E+02  0.56357805889E+02  0.00000000000E+00 0. -1.
         22    1    3    3    0    0 -0.19117413769E+02 -0.18254074620E+02 -0.96847202561E+02  0.10038957811E+03  0.00000000000E+00 0. -1.
         22    1    3    3    0    0  0.34049570457E+02  0.10332107717E+03 -0.95752865700E+02  0.14492490996E+03  0.00000000000E+00 0. -1.
</event>
<event>
 7    1  0.5127424E-006  0.6981120E+02  0.7818608E-02  0.1453843E+00
          2   -1    0    0  502    0  0.00000000000E+00  0.00000000000E+00  0.19687098729E+04  0.19687098729E+04  0.00000000000E+00 0. -1.
          1   -1    0    0  501    0 -0.00000000000E+00 -0.00000000000E+00 -0.48459868716E+03  0.48459868716E+03  0.00000000000E+00 0. -1.
         25    2    1    2    0    0  0.30911340990E+02  0.97102344735E+02  0.37171910818E+03  0.40520028234E+03  0.12501118776E+03 0.  0.
          2    1    1    2  501    0 -0.12450247066E+02 -0.31246443801E+02 -0.46651227905E+03  0.46772326798E+03  0.00000000000E+00 0. -1.
          1    1    1    2  502    0 -0.18461093924E+02 -0.65855900934E+02  0.15789043566E+04  0.15803850097E+04  0.00000000000E+00 0. -1.
         22    1    3    3    0    0 -0.31907648015E+02 -0.11602897156E+02  0.56760545771E+02  0.66139887968E+02  0.00000000000E+00 0.  1.
         22    1    3    3    0    0  0.62818989005E+02  0.10870524189E+03  0.31495856241E+03  0.33906039437E+03  0.00000000000E+00 0.  1.
</event>
<event>
 7    1  0.5127424E-006  0.1790729E+03  0.7818608E-02  0.1250328E+00
          2   -1    0    0  502    0  0.00000000000E+00  0.00000000000E+00  0.11377605676E+04  0.11377605676E+04  0.00000000000E+00 0. -1.
          1   -1    0    0  501    0 -0.00000000000E+00 -0.00000000000E+00 -0.89595638828E+03  0.89595638828E+03  0.00000000000E+00 0. -1.
         25    2    1    2    0    0 -0.59696919904E+02 -0.15515856359E+03 -0.60790108448E+03  0.64250085233E+03  0.12500285852E+03 0.  0.
          2    1    1    2  501    0  0.13242164397E+03  0.17257762689E+03 -0.22555498381E+03  0.31335854834E+03  0.00000000000E+00 0. -1.
          1    1    1    2  502    0 -0.72724724062E+02 -0.17419063300E+02  0.10752602476E+04  0.10778575552E+04  0.00000000000E+00 0. -1.
         22    1    3    3    0    0 -0.46079414277E+02 -0.14293637908E+02 -0.62033198790E+02  0.78585865503E+02  0.00000000000E+00 0.  1.
         22    1    3    3    0    0 -0.13617505627E+02 -0.14086492569E+03 -0.54586788569E+03  0.56391498683E+03  0.00000000000E+00 0.  1.
</event>
<event>
 7    1  0.5127424E-006  0.6689287E+02  0.7818608E-02  0.1374219E+00
          2   -1    0    0  502    0  0.00000000000E+00  0.00000000000E+00  0.20883581870E+04  0.20883581870E+04  0.00000000000E+00 0. -1.
          1   -1    0    0  501    0 -0.00000000000E+00 -0.00000000000E+00 -0.34095278546E+02  0.34095278546E+02  0.00000000000E+00 0. -1.
         25    2    1    2    0    0 -0.44202215880E+01  0.33067624007E+02  0.31783703790E+03  0.34315890961E+03  0.12499859385E+03 0.  0.
          2    1    1    2  501    0  0.69554003040E+02 -0.33474698947E+02  0.50790584553E+02  0.92401289427E+02  0.00000000000E+00 0. -1.
          1    1    1    2  502    0 -0.65133781452E+02  0.40707493940E+00  0.16856352860E+04  0.16868932665E+04  0.00000000000E+00 0. -1.
         22    1    3    3    0    0  0.55255757263E+02  0.41209513745E+02  0.15973156238E+03  0.17397009730E+03  0.00000000000E+00 0.  1.
         22    1    3    3    0    0 -0.59675978851E+02 -0.81418897374E+01  0.15810547553E+03  0.16918881231E+03  0.00000000000E+00 0.  1.
</event>
<event>
 7    1  0.5127424E-006  0.5230306E+02  0.7818608E-02  0.1447774E+00
          2   -1    0    0  502    0  0.00000000000E+00  0.00000000000E+00  0.20035952248E+04  0.20035952248E+04  0.00000000000E+00 0. -1.
          1   -1    0    0  501    0 -0.00000000000E+00 -0.00000000000E+00 -0.53873985833E+02  0.53873985833E+02  0.00000000000E+00 0. -1.
         25    2    1    2    0    0 -0.68213613229E+02 -0.67011655874E+02  0.84661693188E+03  0.86112455669E+03  0.12502645212E+03 0.  0.
          2    1    1    2  501    0  0.36686213107E+02  0.29291070976E+02 -0.34134874395E+02  0.58043386540E+02  0.00000000000E+00 0. -1.
          1    1    1    2  502    0  0.31527400122E+02  0.37720584898E+02  0.11372391815E+04  0.11383012674E+04  0.00000000000E+00 0. -1.
         22    1    3    3    0    0 -0.74139822258E+02 -0.60859995385E+02  0.84715288425E+03  0.85256592799E+03  0.00000000000E+00 0. -1.
         22    1    3    3    0    0  0.59262090285E+01 -0.61516604893E+01 -0.53595236636E+00  0.85586286965E+01  0.00000000000E+00 0. -1.
</event>
<event>
 7    1  0.5127424E-006  0.9207054E+02  0.7818608E-02  0.1338642E+00
          2   -1    0    0  502    0  0.00000000000E+00  0.00000000000E+00  0.94143315111E+03  0.94143315111E+03  0.00000000000E+00 0. -1.
          1   -1    0    0  501    0 -0.00000000000E+00 -0.00000000000E+00 -0.57745306333E+03  0.57745306333E+03  0.00000000000E+00 0. -1.
         25    2    1    2    0    0 -0.14508290528E+03  0.37831568289E+02  0.10101845324E+03  0.21979521596E+03  0.12499972841E+03 0.  0.
          2    1    1    2  501    0  0.90603829808E+02 -0.43988048917E+01 -0.51276933528E+03  0.52073101949E+03  0.00000000000E+00 0. -1.
          1    1    1    2  502    0  0.54479075471E+02 -0.33432763397E+02  0.77573096982E+03  0.77835997898E+03  0.00000000000E+00 0. -1.
         22    1    3    3    0    0 -0.77260182429E+02 -0.43897501484E+02  0.41877663467E+02  0.98233727013E+02  0.00000000000E+00 0. -1.
         22    1    3    3    0    0 -0.67822722851E+02  0.81729069773E+02  0.59140789773E+02  0.12156148895E+03  0.00000000000E+00 0. -1.
</event>
<event>
 7    1  0.5127424E-006  0.6986419E+02  0.7818608E-02  0.1512094E+00
          2   -1    0    0  502    0  0.00000000000E+00  0.00000000000E+00  0.93105249807E+03  0.93105249807E+03  0.00000000000E+00 0. -1.
          1   -1    0    0  501    0 -0.00000000000E+00 -0.00000000000E+00 -0.64576034317E+02  0.64576034317E+02  0.00000000000E+00 0. -1.
         25    2    1    2    0    0 -0.50428953622E+02  0.10776503104E+02  0.14485779461E+03  0.19816114406E+03  0.12499938390E+03 0.  0.
          2    1    1    2  501    0  0.72687439519E+02 -0.12244636967E+02 -0.17720056375E+01  0.73732862431E+02  0.00000000000E+00 0. -1.
          1    1    1    2  502    0 -0.22258485897E+02  0.14681338637E+01  0.72339067478E+03  0.72373452589E+03  0.00000000000E+00 0. -1.
         22    1    3    3    0    0 -0.54712647407E+02 -0.15074910931E+02  0.62458851478E+01  0.57094113595E+02  0.00000000000E+00 0. -1.
         22    1    3    3    0    0  0.42836937854E+01  0.25851414034E+02  0.13861190947E+03  0.14106703047E+03  0.00000000000E+00 0. -1.
</event>
<event>
 7    1  0.5127424E-006  0.6807724E+02  0.7818608E-02  0.1491260E+00
          2   -1    0    0  502    0  0.00000000000E+00  0.00000000000E+00  0.61404271575E+03  0.61404271575E+03  0.00000000000E+00 0. -1.
          1   -1    0    0  501    0 -0.00000000000E+00 -0.00000000000E+00 -0.11179291836E+03  0.11179291836E+03  0.00000000000E+00 0. -1.
         25    2    1    2    0    0  0.46385322848E+02 -0.17674048730E+02  0.20667619103E+03  0.24658486350E+03  0.12500030719E+03 0.  0.
          2    1    1    2  501    0 -0.54451294943E+02  0.42819300170E+02 -0.78244063939E+02  0.10450152884E+03  0.00000000000E+00 0. -1.
          1    1    1    2  502    0  0.80659720955E+01 -0.25145251440E+02  0.37381767030E+03  0.37474924177E+03  0.00000000000E+00 0. -1.
         22    1    3    3    0    0 -0.19242672133E+02  0.11906370407E+02 -0.48523781976E+01  0.23142766932E+02  0.00000000000E+00 0. -1.
         22    1    3    3    0    0  0.65627994981E+02 -0.29580419137E+02  0.21152856923E+03  0.22344209657E+03  0.00000000000E+00 0. -1.
</event>
<event>
 7    1  0.5127424E-006  0.8605489E+02  0.7818608E-02  0.1468526E+00
          2   -1    0    0  502    0  0.00000000000E+00  0.00000000000E+00  0.16935073989E+04  0.16935073989E+04  0.00000000000E+00 0. -1.
          1   -1    0    0  501    0 -0.00000000000E+00 -0.00000000000E+00 -0.11894254115E+04  0.11894254115E+04  0.00000000000E+00 0. -1.
         25    2    1    2    0    0 -0.73677258422E+02  0.60581405299E+01 -0.13129329743E+03  0.19577477303E+03  0.12499916932E+03 0.  0.
          2    1    1    2  501    0  0.81831436611E+02 -0.29193557045E+02 -0.10239610253E+04  0.10276404182E+04  0.00000000000E+00 0. -1.
          1    1    1    2  502    0 -0.81541781888E+01  0.23135416515E+02  0.16593363102E+04  0.16595176192E+04  0.00000000000E+00 0. -1.
         22    1    3    3    0    0 -0.36459282612E+02 -0.46066490896E+02 -0.11584467352E+03  0.12988991206E+03  0.00000000000E+00 0.  1.
         22    1    3    3    0    0 -0.37217975810E+02  0.52124631426E+02 -0.15448623911E+02  0.65884860973E+02  0.00000000000E+00 0.  1.
</event>
<event>
 7    1  0.5127424E-006  0.1001974E+03  0.7818608E-02  0.1428828E+00
          2   -1    0    0  502    0  0.00000000000E+00  0.00000000000E+00  0.16560403373E+04  0.16560403373E+04  0.00000000000E+00 0. -1.
          1   -1    0    0  501    0 -0.00000000000E+00 -0.00000000000E+00 -0.83463443960E+03  0.83463443960E+03  0.00000000000E+00 0. -1.
         25    2    1    2    0    0 -0.10213350216E+03 -0.36017467136E+02 -0.24084340098E+03  0.29216186606E+03  0.12499800791E+03 0.  0.
          2    1    1    2  501    0  0.99024915922E+02  0.79467906768E+01 -0.56366545519E+03  0.57235289012E+03  0.00000000000E+00 0. -1.
          1    1    1    2  502    0  0.31085862355E+01  0.28070676459E+02  0.16259147538E+04  0.16261600207E+04  0.00000000000E+00 0. -1.
         22    1    3    3    0    0 -0.85633920321E+01  0.23625392190E+02 -0.13994974692E+03  0.14218798298E+03  0.00000000000E+00 0.  1.
         22    1    3    3    0    0 -0.93570110125E+02 -0.59642859326E+02 -0.10089365405E+03  0.14997388308E+03  0.00000000000E+00 0.  1.
</event>
<event>
 7    1  0.5127424E-006  0.1363957E+03  0.7818608E-02  0.1260601E+00
          2   -1    0    0  502    0  0.00000000000E+00  0.00000000000E+00  0.20581687891E+04  0.20581687891E+04  0.00000000000E+00 0. -1.
          1   -1    0    0  501    0 -0.00000000000E+00 -0.00000000000E+00 -0.31022020539E+03  0.31022020539E+03  0.00000000000E+00 0. -1.
         25    2    1    2    0    0  0.12137501242E+03 -0.36557004446E+02 -0.64866804750E+02  0.18947652179E+03  0.12500136693E+03 0.  0.
          2    1    1    2  501    0 -0.90302681443E+02  0.11962115979E+03 -0.15119915082E+03  0.21289664008E+03  0.00000000000E+00 0. -1.
          1    1    1    2  502    0 -0.31072330981E+02 -0.83064155347E+02  0.19640145392E+04  0.19660158326E+04  0.00000000000E+00 0. -1.
         22    1    3    3    0    0  0.60649623877E+02 -0.35304721824E+02  0.30413013324E+02  0.76483669100E+02  0.00000000000E+00 0. -1.
         22    1    3    3    0    0  0.60725388547E+02 -0.12522826217E+01 -0.95279818073E+02  0.11299285269E+03  0.00000000000E+00 0. -1.
</event>
<event>
 7    1  0.5127424E-006  0.3009817E+03  0.7818608E-02  0.1160328E+00
          2   -1    0    0  502    0  0.00000000000E+00  0.00000000000E+00  0.22069205384E+04  0.22069205384E+04  0.00000000000E+00 0. -1.
          1   -1    0    0  501    0 -0.00000000000E+00 -0.00000000000E+00 -0.16246468361E+04  0.16246468361E+04  0.00000000000E+00 0. -1.
         25    2    1    2    0    0 -0.26092479793E+03  0.12105167417E+03 -0.55269444918E+03  0.63547737766E+03  0.12500034145E+03 0.  0.
          2    1    1    2  501    0  0.21762282731E+03 -0.23013151303E+03 -0.10045783921E+04  0.10533270879E+04  0.00000000000E+00 0. -1.
          1    1    1    2  502    0  0.43301970618E+02  0.10907983886E+03  0.21395465436E+04  0.21427629090E+04  0.00000000000E+00 0. -1.
         22    1    3    3    0    0 -0.21305528495E+02 -0.19173657843E+02 -0.10361900502E+03  0.10751024556E+03  0.00000000000E+00 0.  1.
         22    1    3    3    0    0 -0.23961926943E+03  0.14022533202E+03 -0.44907544416E+03  0.52796713210E+03  0.00000000000E+00 0.  1.
</event>
<event>
 7    1  0.5127424E-006  0.5129604E+02  0.7818608E-02  0.1443254E+00
          2   -1    0    0  502    0  0.00000000000E+00  0.00000000000E+00  0.13425254541E+04  0.13425254541E+04  0.00000000000E+00 0. -1.
          1   -1    0    0  501    0 -0.00000000000E+00 -0.00000000000E+00 -0.15553020129E+04  0.15553020129E+04  0.00000000000E+00 0. -1.
         25    2    1    2    0    0 -0.50787442717E+01 -0.10008555763E+02  0.72782601075E+01  0.12571528717E+03  0.12500158210E+03 0.  0.
          2    1    1    2  501    0  0.41970775294E+02 -0.26239754973E+02 -0.14951496940E+04  0.14959688092E+04  0.00000000000E+00 0. -1.
          1    1    1    2  502    0 -0.36892031022E+02  0.36248310736E+02  0.12750948751E+04  0.12761433706E+04  0.00000000000E+00 0. -1.
         22    1    3    3    0    0  0.58269882623E+02 -0.17534491038E+02  0.10895614993E+02  0.61818702857E+02  0.00000000000E+00 0. -1.
         22    1    3    3    0    0 -0.63348626894E+02  0.75259352752E+01 -0.36173548851E+01  0.63896584318E+02  0.00000000000E+00 0. -1.
</event>
<event>
 7    1  0.5127424E-006  0.9671889E+02  0.7818608E-02  0.1422698E+00
          2   -1    0    0  502    0  0.00000000000E+00  0.00000000000E+00  0.32214390459E+04  0.32214390459E+04  0.00000000000E+00 0. -1.
          1   -1    0    0  501    0 -0.00000000000E+00 -0.00000000000E+00 -0.16488367077E+02  0.16488367077E+02  0.00000000000E+00 0. -1.
         25    2    1    2    0    0 -0.65438403266E+02 -0.44537397965E+02  0.22117227138E+04  0.22166664649E+04  0.12500835715E+03 0.  0.
          2    1    1    2  501    0  0.93165685671E+02  0.31455550694E+02  0.16227900331E+03  0.18974659831E+03  0.00000000000E+00 0. -1.
          1    1    1    2  502    0 -0.27727282405E+02  0.13081847270E+02  0.83094896167E+03  0.83151434974E+03  0.00000000000E+00 0. -1.
         22    1    3    3    0    0  0.29932842914E+02 -0.42560821900E+02  0.69269772069E+03  0.69464921427E+03  0.00000000000E+00 0.  1.
         22    1    3    3    0    0 -0.95371246180E+02 -0.19765760653E+01  0.15190249931E+04  0.15220172506E+04  0.00000000000E+00 0.  1.
</event>
<event>
 7    1  0.5127424E-006  0.1452872E+03  0.7818608E-02  0.1285569E+00
          2   -1    0    0  502    0  0.00000000000E+00  0.00000000000E+00  0.12094119453E+04  0.12094119453E+04  0.00000000000E+00 0. -1.
          1   -1    0    0  501    0 -0.00000000000E+00 -0.00000000000E+00 -0.24627896792E+03  0.24627896792E+03  0.00000000000E+00 0. -1.
         25    2    1    2    0    0  0.86879884911E+02 -0.18615825692E+03  0.40411834491E+02  0.24384629031E+03  0.12499954363E+03 0.  0.
          2    1    1    2  501    0 -0.13319264210E+02  0.64107314249E+02 -0.13210227270E+03  0.14743866858E+03  0.00000000000E+00 0. -1.
          1    1    1    2  502    0 -0.73560620701E+02  0.12205094268E+03  0.10548234156E+04  0.10644059543E+04  0.00000000000E+00 0. -1.
         22    1    3    3    0    0  0.22389198746E+02 -0.33545198680E+02  0.64855828844E+02  0.76372999875E+02  0.00000000000E+00 0.  1.
         22    1    3    3    0    0  0.64490686165E+02 -0.15261305825E+03 -0.24443994353E+02  0.16747329043E+03  0.00000000000E+00 0.  1.
</event>
<event>
 7    1  0.5127424E-006  0.1485216E+03  0.7818608E-02  0.1320508E+00
          2   -1    0    0  502    0  0.00000000000E+00  0.00000000000E+00  0.38751255439E+03  0.38751255439E+03  0.00000000000E+00 0. -1.
          1   -1    0    0  501    0 -0.00000000000E+00 -0.00000000000E+00 -0.11873376132E+04  0.11873376132E+04  0.00000000000E+00 0. -1.
         25    2    1    2    0    0 -0.13844117296E+03 -0.64581206290E+02 -0.93785881400E+03  0.95840441523E+03  0.12499271003E+03 0.  0.
          2    1    1    2  501    0  0.29231080704E+02 -0.36141304126E+02 -0.22207865343E+03  0.22689111541E+03  0.00000000000E+00 0. -1.
          1    1    1    2  502    0  0.10921009225E+03  0.10072251042E+03  0.36011240860E+03  0.38955463697E+03  0.00000000000E+00 0. -1.
         22    1    3    3    0    0 -0.68009927943E+02 -0.60545030936E+02 -0.78248176303E+03  0.78776186792E+03  0.00000000000E+00 0. -1.
         22    1    3    3    0    0 -0.70431245014E+02 -0.40361753534E+01 -0.15537705097E+03  0.17064254732E+03  0.00000000000E+00 0. -1.
</event>
<event>
 7    1  0.5127424E-006  0.6851139E+02  0.7818608E-02  0.1388409E+00
          2   -1    0    0  502    0  0.00000000000E+00  0.00000000000E+00  0.69884294292E+03  0.69884294292E+03  0.00000000000E+00 0. -1.
          1   -1    0    0  501    0 -0.00000000000E+00 -0.00000000000E+00 -0.26811905784E+03  0.26811905784E+03  0.00000000000E+00 0. -1.
         25    2    1    2    0    0  0.38446247133E+02 -0.93280598291E+02 -0.15282171254E+03  0.22172053016E+03  0.12500453487E+03 0.  0.
          2    1    1    2  501    0 -0.47629753549E+02  0.37370530401E+02 -0.68110222764E+02  0.91127122256E+02  0.00000000000E+00 0. -1.
          1    1    1    2  502    0  0.91835064165E+01  0.55910067890E+02  0.65165582037E+03  0.65411434834E+03  0.00000000000E+00 0. -1.
         22    1    3    3    0    0  0.38195617817E+01 -0.26477120170E+02 -0.14341715287E+03  0.14589073543E+03  0.00000000000E+00 0.  1.
         22    1    3    3    0    0  0.34626685351E+02 -0.66803478121E+02 -0.94045596626E+01  0.75829794737E+02  0.00000000000E+00 0.  1.
</event>
<event>
 7    1  0.5127424E-006  0.2290417E+03  0.7818608E-02  0.1211600E+00
          2   -1    0    0  502    0  0.00000000000E+00  0.00000000000E+00  0.11654686551E+04  0.11654686551E+04  0.00000000000E+00 0. -1.
          1   -1    0    0  501    0 -0.00000000000E+00 -0.00000000000E+00 -0.73791032109E+03  0.73791032109E+03  0.00000000000E+00 0. -1.
         25    2    1    2    0    0 -0.22201520867E+03  0.19249469485E+03  0.65456369707E+02  0.32596564930E+03  0.12499643101E+03 0.  0.
          2    1    1    2  501    0  0.27803050468E+02 -0.82608578249E+02 -0.59158344159E+03  0.59797002866E+03  0.00000000000E+00 0. -1.
          1    1    1    2  502    0  0.19421215820E+03 -0.10988611660E+03  0.95368540590E+03  0.97944329823E+03  0.00000000000E+00 0. -1.
         22    1    3    3    0    0 -0.13986219573E+03  0.40621817654E+02  0.17026932850E+02  0.14663383752E+03  0.00000000000E+00 0.  1.
         22    1    3    3    0    0 -0.82153012938E+02  0.15187287720E+03  0.48429436857E+02  0.17933181178E+03  0.00000000000E+00 0.  1.
</event>
<event>
 7    1  0.5127424E-006  0.1544782E+03  0.7818608E-02  0.1284560E+00
          2   -1    0    0  502    0  0.00000000000E+00  0.00000000000E+00  0.57589932245E+03  0.57589932245E+03  0.00000000000E+00 0. -1.
          1   -1    0    0  501    0 -0.00000000000E+00 -0.00000000000E+00 -0.48078923792E+03  0.48078923792E+03  0.00000000000E+00 0. -1.
         25    2    1    2    0    0 -0.90943419293E+02  0.18955843564E+03  0.21234155769E+02  0.24549360126E+03  0.12495244237E+03 0.  0.
          2    1    1    2  501    0  0.67257555311E+02 -0.13207740166E+03 -0.35141035657E+03  0.38138859118E+03  0.00000000000E+00 0. -1.
          1    1    1    2  502    0  0.23685863982E+02 -0.57481033983E+02  0.42528628533E+03  0.42980636793E+03  0.00000000000E+00 0. -1.
         22    1    3    3    0    0  0.12674614432E+02  0.10708355140E+03 -0.13253773609E+02  0.10864251169E+03  0.00000000000E+00 0.  1.
         22    1    3    3    0    0 -0.10361803372E+03  0.82474884237E+02  0.34487929379E+02  0.13685108957E+03  0.00000000000E+00 0.  1.
</event>
<event>
 7    1  0.5127424E-006  0.1529642E+03  0.7818608E-02  0.1373711E+00
          2   -1    0    0  502    0  0.00000000000E+00  0.00000000000E+00  0.31559968133E+03  0.31559968133E+03  0.00000000000E+00 0. -1.
          1   -1    0    0  501    0 -0.00000000000E+00 -0.00000000000E+00 -0.15026063444E+04  0.15026063444E+04  0.00000000000E+00 0. -1.
         25    2    1    2    0    0  0.48627083808E+01  0.13132892690E+03 -0.72566220035E+02  0.19535158028E+03  0.12500180261E+03 0.  0.
          2    1    1    2  501    0  0.14999533057E+02  0.24355181436E+02 -0.13442563941E+04  0.13445606769E+04  0.00000000000E+00 0. -1.
          1    1    1    2  502    0 -0.19862241438E+02 -0.15568410833E+03  0.22981595108E+03  0.27829376851E+03  0.00000000000E+00 0. -1.
         22    1    3    3    0    0  0.46873266734E+02  0.55168947981E+02  0.12759467752E+02  0.73508638764E+02  0.00000000000E+00 0.  1.
         22    1    3    3    0    0 -0.42010558353E+02  0.76159978915E+02 -0.85325687787E+02  0.12184294152E+03  0.00000000000E+00 0.  1.
</event>
<event>
 7    1  0.1069593E-005  0.8619030E+02  0.7818608E-02  0.1327375E+00
          2   -1    0    0  502    0  0.00000000000E+00  0.00000000000E+00  0.24349586170E+04  0.24349586170E+04  0.00000000000E+00 0. -1.
          1   -1    0    0  501    0 -0.00000000000E+00 -0.00000000000E+00 -0.20318892656E+04  0.20318892656E+04  0.00000000000E+00 0. -1.
         25    2    1    2    0    0  0.94900754898E+02  0.14057830937E+01 -0.92562702130E+03  0.93883840319E+03  0.12499614093E+03 0.  0.
          2    1    1    2  501    0 -0.39178566954E+02  0.64375436615E+02 -0.10975989848E+04  0.11001830250E+04  0.00000000000E+00 0. -1.
          1    1    1    2  502    0 -0.55722187944E+02 -0.65781219709E+02  0.24262953575E+04  0.24278264544E+04  0.00000000000E+00 0. -1.
         22    1    3    3    0    0  0.92912807265E+02  0.47957816377E+02 -0.51001997196E+03  0.52062761519E+03  0.00000000000E+00 0. -1.
         22    1    3    3    0    0  0.19879476332E+01 -0.46552033284E+02 -0.41560704934E+03  0.41821078800E+03  0.00000000000E+00 0. -1.
</event>
<event>
 7    1  0.5127424E-006  0.1221721E+03  0.7818608E-02  0.1356270E+00
          2   -1    0    0  502    0  0.00000000000E+00  0.00000000000E+00  0.45525405225E+03  0.45525405225E+03  0.00000000000E+00 0. -1.
          1   -1    0    0  501    0 -0.00000000000E+00 -0.00000000000E+00 -0.36675275326E+03  0.36675275326E+03  0.00000000000E+00 0. -1.
         25    2    1    2    0    0  0.49137690378E+02  0.68910755120E+02 -0.52151081704E+02  0.15971078633E+03  0.12499838063E+03 0.  0.
          2    1    1    2  501    0  0.18226747826E+02  0.37194417716E+02 -0.24923415424E+03  0.25265253350E+03  0.00000000000E+00 0. -1.
          1    1    1    2  502    0 -0.67364438204E+02 -0.10610517284E+03  0.38988653493E+03  0.40964348568E+03  0.00000000000E+00 0. -1.
         22    1    3    3    0    0  0.48349789834E+02 -0.26650502090E+02 -0.22906258902E+02  0.59771633201E+02  0.00000000000E+00 0. -1.
         22    1    3    3    0    0  0.78790054427E+00  0.95561257210E+02 -0.29244822802E+02  0.99939153126E+02  0.00000000000E+00 0. -1.
</event>
<event>
 7    1  0.5127424E-006  0.5328888E+02  0.7818608E-02  0.1471369E+00
          2   -1    0    0  502    0  0.00000000000E+00  0.00000000000E+00  0.13124899815E+04  0.13124899815E+04  0.00000000000E+00 0. -1.
          1   -1    0    0  501    0 -0.00000000000E+00 -0.00000000000E+00 -0.93708993817E+03  0.93708993817E+03  0.00000000000E+00 0. -1.
         25    2    1    2    0    0 -0.75233647559E+02 -0.12084548167E+02  0.38386139935E+02  0.15134390737E+03  0.12500137810E+03 0.  0.
          2    1    1    2  501    0  0.25068233692E+02  0.29634009261E+02 -0.87960292612E+03  0.88045891357E+03  0.00000000000E+00 0. -1.
          1    1    1    2  502    0  0.50165413868E+02 -0.17549461094E+02  0.12166168296E+04  0.12177770988E+04  0.00000000000E+00 0. -1.
         22    1    3    3    0    0 -0.24925967767E+02  0.50667363911E+02 -0.10198755522E+02  0.57380312382E+02  0.00000000000E+00 0. -1.
         22    1    3    3    0    0 -0.50307679792E+02 -0.62751912078E+02  0.48584895458E+02  0.93963594983E+02  0.00000000000E+00 0. -1.
</event>
<event>
 7    1  0.5127424E-006  0.7904093E+02  0.7818608E-02  0.1497069E+00
          2   -1    0    0  502    0  0.00000000000E+00  0.00000000000E+00  0.10696389563E+03  0.10696389563E+03  0.00000000000E+00 0. -1.
          1   -1    0    0  501    0 -0.00000000000E+00 -0.00000000000E+00 -0.14238855818E+04  0.14238855818E+04  0.00000000000E+00 0. -1.
         25    2    1    2    0    0 -0.59018511694E+02  0.17474733983E+02 -0.55407113398E+02  0.14994671284E+03  0.12500206968E+03 0.  0.
          2    1    1    2  501    0  0.71031390317E+02 -0.35722930471E+02 -0.13179707382E+04  0.13203667873E+04  0.00000000000E+00 0. -1.
          1    1    1    2  502    0 -0.12012878623E+02  0.18248196488E+02  0.56456165465E+02  0.60535977294E+02  0.00000000000E+00 0. -1.
         22    1    3    3    0    0 -0.39880974029E+02  0.70480302203E+02 -0.44983453830E+02  0.92636257516E+02  0.00000000000E+00 0. -1.
         22    1    3    3    0    0 -0.19137537665E+02 -0.53005568219E+02 -0.10423659568E+02  0.57310455319E+02  0.00000000000E+00 0. -1.
</event>
<event>
 7    1  0.5127424E-006  0.7622901E+02  0.7818608E-02  0.1381819E+00
          2   -1    0    0  502    0  0.00000000000E+00  0.00000000000E+00  0.46465067183E+03  0.46465067183E+03  0.00000000000E+00 0. -1.
          1   -1    0    0  501    0 -0.00000000000E+00 -0.00000000000E+00 -0.49820039068E+03  0.49820039068E+03  0.00000000000E+00 0. -1.
         25    2    1    2    0    0  0.11862654093E+03  0.50873754690E+02 -0.17382806139E+03  0.25000272044E+03  0.12499908069E+03 0.  0.
          2    1    1    2  501    0 -0.49901164369E+02 -0.19873474468E+02 -0.28038432457E+03  0.28548283777E+03  0.00000000000E+00 0. -1.
          1    1    1    2  502    0 -0.68725376560E+02 -0.31000280222E+02  0.42066266712E+03  0.42736550430E+03  0.00000000000E+00 0. -1.
         22    1    3    3    0    0  0.74360656332E+01  0.45827236680E+02 -0.35349455753E+01  0.46560997992E+02  0.00000000000E+00 0. -1.
         22    1    3    3    0    0  0.11119047530E+03  0.50465180103E+01 -0.17029311581E+03  0.20344172245E+03  0.00000000000E+00 0. -1.
</event>
<event>
 7    1  0.5127424E-006  0.6698468E+02  0.7818608E-02  0.1387567E+00
          2   -1    0    0  502    0  0.00000000000E+00  0.00000000000E+00  0.17437844079E+04  0.17437844079E+04  0.00000000000E+00 0. -1.
          1   -1    0    0  501    0 -0.00000000000E+00 -0.00000000000E+00 -0.67591760320E+03  0.67591760320E+03  0.00000000000E+00 0. -1.
         25    2    1    2    0    0 -0.99880512729E+02  0.38118521559E+02  0.56111362436E+03  0.58472355268E+03  0.12499598036E+03 0.  0.
          2    1    1    2  501    0  0.35586473027E+02 -0.46235770071E+02 -0.66193176792E+03  0.66449816319E+03  0.00000000000E+00 0. -1.
          1    1    1    2  502    0  0.64294039702E+02  0.81172485112E+01  0.11686849483E+04  0.11704802953E+04  0.00000000000E+00 0. -1.
         22    1    3    3    0    0 -0.65225349551E+02  0.26789572110E+02  0.53560409740E+03  0.54022567187E+03  0.00000000000E+00 0. -1.
         22    1    3    3    0    0 -0.34655163177E+02  0.11328949449E+02  0.25509526955E+02  0.44497880803E+02  0.00000000000E+00 0. -1.
</event>
<event>
 7    1  0.5127424E-006  0.9895013E+02  0.7818608E-02  0.1353318E+00
          2   -1    0    0  502    0  0.00000000000E+00  0.00000000000E+00  0.29171409172E+04  0.29171409172E+04  0.00000000000E+00 0. -1.
          1   -1    0    0  501    0 -0.00000000000E+00 -0.00000000000E+00 -0.73956504646E+03  0.73956504646E+03  0.00000000000E+00 0. -1.
         25    2    1    2    0    0  0.14429980110E+02 -0.68987474733E+02  0.14068046398E+04  0.14141044494E+04  0.12499841343E+03 0.  0.
          2    1    1    2  501    0 -0.19041868489E+02 -0.48856213260E+02 -0.73266893644E+03  0.73454291417E+03  0.00000000000E+00 0. -1.
          1    1    1    2  502    0  0.46118883789E+01  0.11784368799E+03  0.15034401674E+04  0.15080586001E+04  0.00000000000E+00 0. -1.
         22    1    3    3    0    0  0.16545871411E+02  0.33824287901E+02  0.26223988150E+03  0.26492943166E+03  0.00000000000E+00 0.  1.
         22    1    3    3    0    0 -0.21158913008E+01 -0.10281176263E+03  0.11445647583E+04  0.11491750178E+04  0.00000000000E+00 0.  1.
</event>
<event>
 7    1  0.5127424E-006  0.6940302E+02  0.7818608E-02  0.1448212E+00
          2   -1    0    0  502    0  0.00000000000E+00  0.00000000000E+00  0.13441789166E+04  0.13441789166E+04  0.00000000000E+00 0. -1.
          1   -1    0    0  501    0 -0.00000000000E+00 -0.00000000000E+00 -0.27744689029E+03  0.27744689029E+03  0.00000000000E+00 0. -1.
         25    2    1    2    0    0 -0.69325781489E+02 -0.75802610319E+02  0.27280724883E+03  0.31717433240E+03  0.12499464951E+03 0.  0.
          2    1    1    2  501    0  0.20887480765E+02  0.28412668703E+02 -0.25294469956E+03  0.25539104845E+03  0.00000000000E+00 0. -1.
          1    1    1    2  502    0  0.48438300725E+02  0.47389941616E+02  0.10468694770E+04  0.10490604260E+04  0.00000000000E+00 0. -1.
         22    1    3    3    0    0  0.58738415414E+00 -0.82333076656E+02  0.19870552118E+03  0.21508827183E+03  0.00000000000E+00 0.  1.
         22    1    3    3    0    0 -0.69913165643E+02  0.65304663374E+01  0.74101727655E+02  0.10208606057E+03  0.00000000000E+00 0.  1.
</event>
<event>
 7    1  0.5127424E-006  0.7805152E+02  0.7818608E-02  0.1421422E+00
          2   -1    0    0  502    0  0.00000000000E+00  0.00000000000E+00  0.10429228031E+04  0.10429228031E+04  0.00000000000E+00 0. -1.
          1   -1    0    0  501    0 -0.00000000000E+00 -0.00000000000E+00 -0.74914066767E+03  0.74914066767E+03  0.00000000000E+00 0. -1.
         25    2    1    2    0    0 -0.13863707717E+02  0.98142418785E+02 -0.19846342900E+03  0.25463028962E+03  0.12499885994E+03 0.  0.
          2    1    1    2  501    0 -0.16508454529E+02 -0.74703889249E+02 -0.51942820575E+03  0.52503224765E+03  0.00000000000E+00 0. -1.
          1    1    1    2  502    0  0.30372162246E+02 -0.23438529536E+02  0.10116737702E+04  0.10124009335E+04  0.00000000000E+00 0. -1.
         22    1    3    3    0    0 -0.49590625344E+02  0.10579098881E+03 -0.17751376432E+03  0.21251376416E+03  0.00000000000E+00 0. -1.
         22    1    3    3    0    0  0.35726917627E+02 -0.76485700250E+01 -0.20949664678E+02  0.42116525458E+02  0.00000000000E+00 0. -1.
</event>
<event>
 7    1  0.5127424E-006  0.4991096E+02  0.7818608E-02  0.1454382E+00
          2   -1    0    0  502    0  0.00000000000E+00  0.00000000000E+00  0.14770813628E+03  0.14770813628E+03  0.00000000000E+00 0. -1.
          1   -1    0    0  501    0 -0.00000000000E+00 -0.00000000000E+00 -0.12525480877E+03  0.12525480877E+03  0.00000000000E+00 0. -1.
         25    2    1    2    0    0 -0.12869077649E+02 -0.10589624769E+02  0.24498947696E+02  0.12846655834E+03  0.12500281941E+03 0.  0.
          2    1    1    2  501    0 -0.48909090047E+01 -0.46605196931E+02 -0.49442541121E+02  0.68121437480E+02  0.00000000000E+00 0. -1.
          1    1    1    2  502    0  0.17759986653E+02  0.57194821700E+02  0.47396920934E+02  0.76374949226E+02  0.00000000000E+00 0. -1.
         22    1    3    3    0    0 -0.31639283834E+02 -0.37268753384E+02  0.61874892978E+02  0.78857508465E+02  0.00000000000E+00 0. -1.
         22    1    3    3    0    0  0.18770206186E+02  0.26679128615E+02 -0.37375945282E+02  0.49609049876E+02  0.00000000000E+00 0. -1.
</event>
<event>
 7    1  0.5127424E-006  0.8589146E+02  0.7818608E-02  0.1385017E+00
          2   -1    0    0  502    0  0.00000000000E+00  0.00000000000E+00  0.13185495382E+04  0.13185495382E+04  0.00000000000E+00 0. -1.
          1   -1    0    0  501    0 -0.00000000000E+00 -0.00000000000E+00 -0.24664304560E+03  0.24664304560E+03  0.00000000000E+00 0. -1.
         25    2    1    2    0    0 -0.43342462351E+02 -0.16795320979E+02  0.20224148201E+03  0.24225704163E+03  0.12500482120E+03 0.  0.
          2    1    1    2  501    0  0.66159379198E+02  0.57254370681E+02 -0.21767659296E+03  0.23460227096E+03  0.00000000000E+00 0. -1.
          1    1    1    2  502    0 -0.22816916847E+02 -0.40459049702E+02  0.10873416035E+04  0.10883332712E+04  0.00000000000E+00 0. -1.
         22    1    3    3    0    0 -0.73172599357E+02  0.26604859914E+02  0.95379468734E+02  0.12312307226E+03  0.00000000000E+00 0. -1.
         22    1    3    3    0    0  0.29830137006E+02 -0.43400180893E+02  0.10686201328E+03  0.11913396937E+03  0.00000000000E+00 0. -1.
</event>
<event>
 7    1  0.5127424E-006  0.7799176E+02  0.7818608E-02  0.1373581E+00
          2   -1    0    0  502    0  0.00000000000E+00  0.00000000000E+00  0.16925219535E+04  0.16925219535E+04  0.00000000000E+00 0. -1.
          1   -1    0    0  501    0 -0.00000000000E+00 -0.00000000000E+00 -0.75148683963E+03  0.75148683963E+03  0.00000000000E+00 0. -1.
         25    2    1    2    0    0  0.53684904850E+01 -0.12025052110E+03  0.82326564128E+02  0.19206179835E+03  0.12498424984E+03 0.  0.
          2    1    1    2  501    0  0.26286554595E+02  0.49628370034E+02 -0.69452232857E+03  0.69678922419E+03  0.00000000000E+00 0. -1.
          1    1    1    2  502    0 -0.31655045080E+02  0.70622151069E+02  0.15532308783E+04  0.15551577706E+04  0.00000000000E+00 0. -1.
         22    1    3    3    0    0 -0.27896927634E+02 -0.11461722478E+03  0.17870272944E+02  0.11930923452E+03  0.00000000000E+00 0. -1.
         22    1    3    3    0    0  0.33265418119E+02 -0.56332963276E+01  0.64456291184E+02  0.72752563826E+02  0.00000000000E+00 0. -1.
</event>
<event>
 7    1  0.5127424E-006  0.1083970E+03  0.7818608E-02  0.1332633E+00
          2   -1    0    0  502    0  0.00000000000E+00  0.00000000000E+00  0.64343544301E+03  0.64343544301E+03  0.00000000000E+00 0. -1.
          1   -1    0    0  501    0 -0.00000000000E+00 -0.00000000000E+00 -0.79998843918E+03  0.79998843918E+03  0.00000000000E+00 0. -1.
         25    2    1    2    0    0  0.14509010284E+03 -0.28066617779E+02 -0.25474611632E+02  0.19522555586E+03  0.12500075539E+03 0.  0.
          2    1    1    2  501    0 -0.93204979949E+02  0.52177132107E+02 -0.68401734264E+03  0.69230726302E+03  0.00000000000E+00 0. -1.
          1    1    1    2  502    0 -0.51885122894E+02 -0.24110514329E+02  0.55293895810E+03  0.55589106330E+03  0.00000000000E+00 0. -1.
         22    1    3    3    0    0  0.13349848923E+03 -0.39640172609E+02  0.25596156945E+02  0.14159220728E+03  0.00000000000E+00 0. -1.
         22    1    3    3    0    0  0.11591613612E+02  0.11573554831E+02 -0.51070768576E+02  0.53633348586E+02  0.00000000000E+00 0. -1.
</event>
<event>
 7    1  0.5127424E-006  0.3396649E+02  0.7818608E-02  0.1609886E+00
          2   -1    0    0  502    0  0.00000000000E+00  0.00000000000E+00  0.18638585660E+03  0.18638585660E+03  0.00000000000E+00 0. -1.
          1   -1    0    0  501    0 -0.00000000000E+00 -0.00000000000E+00 -0.27789339924E+04  0.27789339924E+04  0.00000000000E+00 0. -1.
         25    2    1    2    0    0 -0.19160122451E+02  0.95584754200E+01 -0.10739441339E+04  0.10814076285E+04  0.12501192538E+03 0.  0.
          2    1    1    2  501    0  0.33141960085E+02  0.10791330047E+02 -0.17002443130E+04  0.17006015307E+04  0.00000000000E+00 0. -1.
          1    1    1    2  502    0 -0.13981837634E+02 -0.20349805467E+02  0.18164031112E+03  0.18331068979E+03  0.00000000000E+00 0. -1.
         22    1    3    3    0    0 -0.29732386380E+02  0.29199711989E+02 -0.11693816831E+03  0.12414174635E+03  0.00000000000E+00 0.  1.
         22    1    3    3    0    0  0.10572263929E+02 -0.19641236569E+02 -0.95700596558E+03  0.95726588214E+03  0.00000000000E+00 0.  1.
</event>
<event>
 7    1  0.5127424E-006  0.1962676E+03  0.7818608E-02  0.1153371E+00
          2   -1    0    0  502    0  0.00000000000E+00  0.00000000000E+00  0.74190920521E+03  0.74190920521E+03  0.00000000000E+00 0. -1.
          1   -1    0    0  501    0 -0.00000000000E+00 -0.00000000000E+00 -0.53423817130E+03  0.53423817130E+03  0.00000000000E+00 0. -1.
         25    2    1    2    0    0 -0.63102004986E+01 -0.19213428205E+03  0.41726032309E+02  0.23306765149E+03  0.12499626966E+03 0.  0.
          2    1    1    2  501    0  0.18165377877E+03  0.71565488004E+02 -0.39637011842E+03  0.44184724192E+03  0.00000000000E+00 0. -1.
          1    1    1    2  502    0 -0.17534357827E+03  0.12056879405E+03  0.56231512002E+03  0.60123248310E+03  0.00000000000E+00 0. -1.
         22    1    3    3    0    0 -0.18808611671E+02 -0.13696171511E+03  0.84606644665E+02  0.16208195334E+03  0.00000000000E+00 0.  1.
         22    1    3    3    0    0  0.12498411173E+02 -0.55172566943E+02 -0.42880612356E+02  0.70985698144E+02  0.00000000000E+00 0.  1.
</event>
<event>
 7    1  0.5127424E-006  0.1038483E+03  0.7818608E-02  0.1335020E+00
          2   -1    0    0  502    0  0.00000000000E+00  0.00000000000E+00  0.12625272775E+03  0.12625272775E+03  0.00000000000E+00 0. -1.
          1   -1    0    0  501    0 -0.00000000000E+00 -0.00000000000E+00 -0.67335714024E+03  0.67335714024E+03  0.00000000000E+00 0. -1.
         25    2    1    2    0    0 -0.58554870160E+02  0.24599332234E+02 -0.22208085377E+03  0.26263814078E+03  0.12500034967E+03 0.  0.
          2    1    1    2  501    0  0.11606712679E+03 -0.35225770319E+02 -0.41349384585E+03  0.43091715373E+03  0.00000000000E+00 0. -1.
          1    1    1    2  502    0 -0.57512256632E+02  0.10626438084E+02  0.88470287141E+02  0.10605457348E+03  0.00000000000E+00 0. -1.
         22    1    3    3    0    0 -0.21256562706E+02  0.74420461331E+02 -0.11116041615E+03  0.13545067235E+03  0.00000000000E+00 0.  1.
         22    1    3    3    0    0 -0.37298307454E+02 -0.49821129096E+02 -0.11092043762E+03  0.12718746843E+03  0.00000000000E+00 0.  1.
</event>
<event>
 7    1  0.5127424E-006  0.5243598E+02  0.7818608E-02  0.1556351E+00
          2   -1    0    0  502    0  0.00000000000E+00  0.00000000000E+00  0.29753784263E+02  0.29753784263E+02  0.00000000000E+00 0. -1.
          1   -1    0    0  501    0 -0.00000000000E+00 -0.00000000000E+00 -0.90480031845E+03  0.90480031845E+03  0.00000000000E+00 0. -1.
         25    2    1    2    0    0 -0.19623291902E+02  0.48556259917E+02 -0.17211435052E+03  0.21906890569E+03  0.12500020729E+03 0.  0.
          2    1    1    2  501    0  0.21498541382E+02  0.56595607104E+01 -0.58772012200E+03  0.58814042516E+03  0.00000000000E+00 0. -1.
          1    1    1    2  502    0 -0.18752494799E+01 -0.54215820627E+02 -0.11521206167E+03  0.12734477186E+03  0.00000000000E+00 0. -1.
         22    1    3    3    0    0 -0.11329272498E+02  0.69174014209E+02 -0.18178599208E+03  0.19483209071E+03  0.00000000000E+00 0.  1.
         22    1    3    3    0    0 -0.82940194043E+01 -0.20617754292E+02  0.96716415512E+01  0.24236814977E+02  0.00000000000E+00 0.  1.
</event>
<event>
 7    1  0.5127424E-006  0.9730762E+02  0.7818608E-02  0.1296578E+00
          2   -1    0    0  502    0  0.00000000000E+00  0.00000000000E+00  0.77421179100E+03  0.77421179100E+03  0.00000000000E+00 0. -1.
          1   -1    0    0  501    0 -0.00000000000E+00 -0.00000000000E+00 -0.16775342397E+04  0.16775342397E+04  0.00000000000E+00 0. -1.
         25    2    1    2    0    0 -0.26893774972E+02  0.63537583349E+02 -0.78223656250E+02  0.16280014658E+03  0.12499859079E+03 0.  0.
          2    1    1    2  501    0  0.86863445147E+02  0.15293699788E+02 -0.15524138453E+04  0.15549173297E+04  0.00000000000E+00 0. -1.
          1    1    1    2  502    0 -0.59969670174E+02 -0.78831283137E+02  0.72731505283E+03  0.73402855436E+03  0.00000000000E+00 0. -1.
         22    1    3    3    0    0  0.41459082212E+02  0.15541387285E+02 -0.64386150605E+02  0.78140684706E+02  0.00000000000E+00 0.  1.
         22    1    3    3    0    0 -0.68352857185E+02  0.47996196064E+02 -0.13837505645E+02  0.84659461872E+02  0.00000000000E+00 0.  1.
</event>
<event>
 7    1  0.5127424E-006  0.4735338E+02  0.7818608E-02  0.1503657E+00
          2   -1    0    0  502    0  0.00000000000E+00  0.00000000000E+00  0.12263995455E+04  0.12263995455E+04  0.00000000000E+00 0. -1.
          1   -1    0    0  501    0 -0.00000000000E+00 -0.00000000000E+00 -0.40980947269E+03  0.40980947269E+03  0.00000000000E+00 0. -1.
         25    2    1    2    0    0  0.42188020342E+02  0.12314772408E+02  0.65807157531E+03  0.67127646207E+03  0.12498963004E+03 0.  0.
          2    1    1    2  501    0 -0.16935940284E+02  0.30462490780E+02 -0.40135208017E+03  0.40286260893E+03  0.00000000000E+00 0. -1.
          1    1    1    2  502    0 -0.25252080057E+02 -0.42777263188E+02  0.55987057766E+03  0.56206994718E+03  0.00000000000E+00 0. -1.
         22    1    3    3    0    0  0.67276084892E+01  0.64498752631E+02  0.24604839195E+03  0.25445070443E+03  0.00000000000E+00 0. -1.
         22    1    3    3    0    0  0.35460411853E+02 -0.52183980223E+02  0.41202318336E+03  0.41682575764E+03  0.00000000000E+00 0. -1.
</event>
<event>
 7    1  0.5127424E-006  0.5259748E+02  0.7818608E-02  0.1491275E+00
          2   -1    0    0  502    0  0.00000000000E+00  0.00000000000E+00  0.64903614081E+03  0.64903614081E+03  0.00000000000E+00 0. -1.
          1   -1    0    0  501    0 -0.00000000000E+00 -0.00000000000E+00 -0.14214949041E+03  0.14214949041E+03  0.00000000000E+00 0. -1.
         25    2    1    2    0    0  0.34249307026E+02  0.19900841604E+02  0.21527832505E+03  0.25206847162E+03  0.12499879449E+03 0.  0.
          2    1    1    2  501    0 -0.14346697348E+02  0.31018302773E+02 -0.11955058772E+03  0.12433947826E+03  0.00000000000E+00 0. -1.
          1    1    1    2  502    0 -0.19902609678E+02 -0.50919144376E+02  0.41115891307E+03  0.41477768133E+03  0.00000000000E+00 0. -1.
         22    1    3    3    0    0  0.37046241454E+02  0.49383869183E+02  0.38345877737E+02  0.72674595842E+02  0.00000000000E+00 0.  1.
         22    1    3    3    0    0 -0.27969344283E+01 -0.29483027579E+02  0.17693244731E+03  0.17939387578E+03  0.00000000000E+00 0.  1.
</event>
<event>
 7    1  0.5531352E-006  0.7145790E+02  0.7818608E-02  0.1373158E+00
          2   -1    0    0  502    0  0.00000000000E+00  0.00000000000E+00  0.12130845517E+04  0.12130845517E+04  0.00000000000E+00 0. -1.
          1   -1    0    0  501    0 -0.00000000000E+00 -0.00000000000E+00 -0.22854799493E+04  0.22854799493E+04  0.00000000000E+00 0. -1.
         25    2    1    2    0    0  0.28829050420E+02 -0.46050846949E+02 -0.11161353634E+03  0.17612474201E+03  0.12494218104E+03 0.  0.
          2    1    1    2  501    0 -0.58385515793E+02 -0.19351423530E+02 -0.21400779733E+04  0.21409617180E+04  0.00000000000E+00 0. -1.
          1    1    1    2  502    0  0.29556465373E+02  0.65402270479E+02  0.11792961120E+04  0.11814780410E+04  0.00000000000E+00 0. -1.
         22    1    3    3    0    0 -0.25013405467E+02  0.24013626075E+01 -0.99576018024E+02  0.10269771351E+03  0.00000000000E+00 0. -1.
         22    1    3    3    0    0  0.53842455887E+02 -0.48452209557E+02 -0.12037518313E+02  0.73427028498E+02  0.00000000000E+00 0. -1.
</event>
<event>
 7    1  0.5127424E-006  0.9461442E+02  0.7818608E-02  0.1352156E+00
          2   -1    0    0  502    0  0.00000000000E+00  0.00000000000E+00  0.54094706537E+03  0.54094706537E+03  0.00000000000E+00 0. -1.
          1   -1    0    0  501    0 -0.00000000000E+00 -0.00000000000E+00 -0.23874060904E+03  0.23874060904E+03  0.00000000000E+00 0. -1.
         25    2    1    2    0    0  0.48506099380E+02 -0.57066426306E+02 -0.13118617852E+03  0.19607259715E+03  0.12500092492E+03 0.  0.
          2    1    1    2  501    0 -0.75228588488E+02  0.10557604683E+03 -0.16181408869E+02  0.13064256651E+03  0.00000000000E+00 0. -1.
          1    1    1    2  502    0  0.26722489108E+02 -0.48509620524E+02  0.44957404373E+03  0.45297251075E+03  0.00000000000E+00 0. -1.
         22    1    3    3    0    0  0.79205024358E+02 -0.10990983449E+02 -0.11171154750E+03  0.13738161248E+03  0.00000000000E+00 0. -1.
         22    1    3    3    0    0 -0.30698924978E+02 -0.46075442857E+02 -0.19474631017E+02  0.58690984678E+02  0.00000000000E+00 0. -1.
</event>
<event>
 7    1  0.5127424E-006  0.6114722E+02  0.7818608E-02  0.1454804E+00
          2   -1    0    0  502    0  0.00000000000E+00  0.00000000000E+00  0.20824593456E+04  0.20824593456E+04  0.00000000000E+00 0. -1.
          1   -1    0    0  501    0 -0.00000000000E+00 -0.00000000000E+00 -0.10285829863E+03  0.10285829863E+03  0.00000000000E+00 0. -1.
         25    2    1    2    0    0  0.44655320061E+02 -0.71406874767E+02  0.42971949064E+03  0.45538664144E+03  0.12500045277E+03 0.  0.
          2    1    1    2  501    0  0.55381912121E+01  0.37727682059E+02 -0.85403226230E+02  0.93529463839E+02  0.00000000000E+00 0. -1.
          1    1    1    2  502    0 -0.50193511273E+02  0.33679192708E+02  0.16352847826E+04  0.16364015390E+04  0.00000000000E+00 0. -1.
         22    1    3    3    0    0  0.25007665917E+02 -0.10490525519E+03  0.26400872957E+03  0.28518608874E+03  0.00000000000E+00 0.  1.
         22    1    3    3    0    0  0.19647654144E+02  0.33498380427E+02  0.16571076107E+03  0.17020055270E+03  0.00000000000E+00 0.  1.
</event>
<event>
 7    1  0.5127424E-006  0.8513547E+02  0.7818608E-02  0.1426421E+00
          2   -1    0    0  502    0  0.00000000000E+00  0.00000000000E+00  0.15075373419E+04  0.15075373419E+04  0.00000000000E+00 0. -1.
          1   -1    0    0  501    0 -0.00000000000E+00 -0.00000000000E+00 -0.29566768797E+03  0.29566768797E+03  0.00000000000E+00 0. -1.
         25    2    1    2    0    0  0.29041303705E+02  0.46004874069E+02  0.52326755574E+02  0.14602195792E+03  0.12499790833E+03 0.  0.
          2    1    1    2  501    0 -0.39088686085E+02 -0.78332503733E+02 -0.24090895079E+03  0.25632211979E+03  0.00000000000E+00 0. -1.
          1    1    1    2  502    0  0.10047382379E+02  0.32327629664E+02  0.14004518491E+04  0.14008609522E+04  0.00000000000E+00 0. -1.
         22    1    3    3    0    0 -0.14081438414E+01  0.29954202620E+02 -0.38552885762E+02  0.48842216619E+02  0.00000000000E+00 0. -1.
         22    1    3    3    0    0  0.30449447547E+02  0.16050671449E+02  0.90879641336E+02  0.97179741300E+02  0.00000000000E+00 0. -1.
</event>
<event>
 7    1  0.5127424E-006  0.8767949E+02  0.7818608E-02  0.1406056E+00
          2   -1    0    0  502    0  0.00000000000E+00  0.00000000000E+00  0.45628453000E+03  0.45628453000E+03  0.00000000000E+00 0. -1.
          1   -1    0    0  501    0 -0.00000000000E+00 -0.00000000000E+00 -0.52226352200E+03  0.52226352200E+03  0.00000000000E+00 0. -1.
         25    2    1    2    0    0  0.10817818048E+02  0.72618927268E+02  0.26092263455E+02  0.14729624480E+03  0.12499937494E+03 0.  0.
          2    1    1    2  501    0  0.38416706167E+02  0.21570698037E+01 -0.45541645909E+03  0.45703899994E+03  0.00000000000E+00 0. -1.
          1    1    1    2  502    0 -0.49234524215E+02 -0.74775997072E+02  0.36334520363E+03  0.37421280725E+03  0.00000000000E+00 0. -1.
         22    1    3    3    0    0  0.30168903608E+02 -0.12122675213E+02  0.47700748516E+02  0.57727665882E+02  0.00000000000E+00 0. -1.
         22    1    3    3    0    0 -0.19351085559E+02  0.84741602481E+02 -0.21608485061E+02  0.89568578921E+02  0.00000000000E+00 0. -1.
</event>
<event>
 7    1  0.5127424E-006  0.7415559E+02  0.7818608E-02  0.1416953E+00
          2   -1    0    0  502    0  0.00000000000E+00  0.00000000000E+00  0.27763577345E+04  0.27763577345E+04  0.00000000000E+00 0. -1.
          1   -1    0    0  501    0 -0.00000000000E+00 -0.00000000000E+00 -0.39722330193E+03  0.39722330193E+03  0.00000000000E+00 0. -1.
         25    2    1    2    0    0  0.10318391221E+03 -0.20164186860E+02  0.56587547181E+03  0.58898464146E+03  0.12503737086E+03 0.  0.
          2    1    1    2  501    0 -0.39197237153E+02 -0.14501631313E+02 -0.38393225427E+03  0.38620033218E+03  0.00000000000E+00 0. -1.
          1    1    1    2  502    0 -0.63986675056E+02  0.34665818172E+02  0.21971912150E+04  0.21983960627E+04  0.00000000000E+00 0. -1.
         22    1    3    3    0    0  0.64991782504E+02  0.20096809920E+02  0.10719242135E+03  0.12695679878E+03  0.00000000000E+00 0. -1.
         22    1    3    3    0    0  0.38192129705E+02 -0.40260996779E+02  0.45868305045E+03  0.46202784268E+03  0.00000000000E+00 0. -1.
</event>
<event>
 7    1  0.5127424E-006  0.1257239E+03  0.7818608E-02  0.1407702E+00
          2   -1    0    0  502    0  0.00000000000E+00  0.00000000000E+00  0.68097688387E+03  0.68097688387E+03  0.00000000000E+00 0. -1.
          1   -1    0    0  501    0 -0.00000000000E+00 -0.00000000000E+00 -0.64576900482E+03  0.64576900482E+03  0.00000000000E+00 0. -1.
         25    2    1    2    0    0 -0.75657652567E+02  0.68974076192E+02  0.62811592504E+01  0.16169487465E+03  0.12499710376E+03 0.  0.
          2    1    1    2  501    0 -0.12972198623E+02  0.23096388588E+02 -0.56090656017E+03  0.56153173583E+03  0.00000000000E+00 0. -1.
          1    1    1    2  502    0  0.88629851190E+02 -0.92070464779E+02  0.58983327997E+03  0.60351927821E+03  0.00000000000E+00 0. -1.
         22    1    3    3    0    0 -0.97358896501E+02  0.10151525039E+02 -0.48930581063E+01  0.98008929216E+02  0.00000000000E+00 0. -1.
         22    1    3    3    0    0  0.21701243934E+02  0.58822551153E+02  0.11174217357E+02  0.63685945435E+02  0.00000000000E+00 0. -1.
</event>
<event>
 7    1  0.5127424E-006  0.1983008E+03  0.7818608E-02  0.1237430E+00
          2   -1    0    0  502    0  0.00000000000E+00  0.00000000000E+00  0.31726810525E+03  0.31726810525E+03  0.00000000000E+00 0. -1.
          1   -1    0    0  501    0 -0.00000000000E+00 -0.00000000000E+00 -0.31127709593E+04  0.31127709593E+04  0.00000000000E+00 0. -1.
         25    2    1    2    0    0  0.20734126875E+03 -0.17517126901E+03 -0.10119113874E+04  0.10551127984E+04  0.12499194488E+03 0.  0.
          2    1    1    2  501    0 -0.66213917335E+02  0.39139885040E+02 -0.20459695459E+04  0.20474148569E+04  0.00000000000E+00 0. -1.
          1    1    1    2  502    0 -0.14112735141E+03  0.13603138397E+03  0.26237807921E+03  0.32751140925E+03  0.00000000000E+00 0. -1.
         22    1    3    3    0    0  0.22464169129E+02 -0.49280224577E+02 -0.79127445004E+02  0.95887079327E+02  0.00000000000E+00 0.  1.
         22    1    3    3    0    0  0.18487709962E+03 -0.12589104443E+03 -0.93278394235E+03  0.95922571908E+03  0.00000000000E+00 0.  1.
</event>
<event>
 7    1  0.5127424E-006  0.1221319E+03  0.7818608E-02  0.1401605E+00
          2   -1    0    0  502    0  0.00000000000E+00  0.00000000000E+00  0.55381463039E+03  0.55381463039E+03  0.00000000000E+00 0. -1.
          1   -1    0    0  501    0 -0.00000000000E+00 -0.00000000000E+00 -0.73820025475E+03  0.73820025475E+03  0.00000000000E+00 0. -1.
         25    2    1    2    0    0  0.11870788806E+03 -0.27878008697E+02  0.20857632249E+03  0.27202462987E+03  0.12499828358E+03 0.  0.
          2    1    1    2  501    0  0.44185751960E+01  0.28264995123E+02 -0.69408107462E+03  0.69467040523E+03  0.00000000000E+00 0. -1.
          1    1    1    2  502    0 -0.12312646325E+03 -0.38698642523E+00  0.30111912778E+03  0.32531985003E+03  0.00000000000E+00 0. -1.
         22    1    3    3    0    0 -0.21507216590E+02  0.16107177253E+02  0.23454515890E+02  0.35666732961E+02  0.00000000000E+00 0. -1.
         22    1    3    3    0    0  0.14021510465E+03 -0.43985185950E+02  0.18512180660E+03  0.23635789691E+03  0.00000000000E+00 0. -1.
</event>
<event>
 7    1  0.5127424E-006  0.9576965E+02  0.7818608E-02  0.1330387E+00
          2   -1    0    0  502    0  0.00000000000E+00  0.00000000000E+00  0.10002034868E+04  0.10002034868E+04  0.00000000000E+00 0. -1.
          1   -1    0    0  501    0 -0.00000000000E+00 -0.00000000000E+00 -0.70170390314E+03  0.70170390314E+03  0.00000000000E+00 0. -1.
         25    2    1    2    0    0  0.13450236237E+03  0.28344742710E+02  0.88585604979E+02  0.20583310178E+03  0.12500218580E+03 0.  0.
          2    1    1    2  501    0 -0.42653223308E+02 -0.50426172845E+02 -0.63875675199E+03  0.64216219492E+03  0.00000000000E+00 0. -1.
          1    1    1    2  502    0 -0.91849139064E+02  0.22081430136E+02  0.84867073065E+03  0.85391209323E+03  0.00000000000E+00 0. -1.
         22    1    3    3    0    0  0.15734382744E+03  0.16723086342E+02  0.65192330597E+02  0.17113381203E+03  0.00000000000E+00 0.  1.
         22    1    3    3    0    0 -0.22841465066E+02  0.11621656368E+02  0.23393274382E+02  0.34699289753E+02  0.00000000000E+00 0.  1.
</event>
<event>
 7    1  0.5127424E-006  0.5989047E+02  0.7818608E-02  0.1499684E+00
          2   -1    0    0  502    0  0.00000000000E+00  0.00000000000E+00  0.12215137076E+04  0.12215137076E+04  0.00000000000E+00 0. -1.
          1   -1    0    0  501    0 -0.00000000000E+00 -0.00000000000E+00 -0.14754967128E+03  0.14754967128E+03  0.00000000000E+00 0. -1.
         25    2    1    2    0    0 -0.13470248840E+02  0.55270150323E+02  0.17851311921E+03  0.22523885318E+03  0.12501747930E+03 0.  0.
          2    1    1    2  501    0  0.28141398870E+02  0.31633721198E+01 -0.12166936520E+03  0.12492149407E+03  0.00000000000E+00 0. -1.
          1    1    1    2  502    0 -0.14671150030E+02 -0.58433522442E+02  0.10171202823E+04  0.10189030316E+04  0.00000000000E+00 0. -1.
         22    1    3    3    0    0  0.53247570207E+02  0.64433363659E+01  0.57007595192E+02  0.78273151374E+02  0.00000000000E+00 0. -1.
         22    1    3    3    0    0 -0.66717819048E+02  0.48826813957E+02  0.12150552402E+03  0.14696570180E+03  0.00000000000E+00 0. -1.
</event>
<event>
 7    1  0.5127424E-006  0.4020814E+02  0.7818608E-02  0.1587808E+00
          2   -1    0    0  502    0  0.00000000000E+00  0.00000000000E+00  0.16158889884E+03  0.16158889884E+03  0.00000000000E+00 0. -1.
          1   -1    0    0  501    0 -0.00000000000E+00 -0.00000000000E+00 -0.66397831536E+02  0.66397831536E+02  0.00000000000E+00 0. -1.
         25    2    1    2    0    0 -0.56503195254E+01  0.21149682337E+02  0.48863510255E+02  0.13598448209E+03  0.12499960624E+03 0.  0.
          2    1    1    2  501    0  0.16205085984E+02 -0.42509413912E+02  0.70115186045E+01  0.46030603690E+02  0.00000000000E+00 0. -1.
          1    1    1    2  502    0 -0.10554766459E+02  0.21359731575E+02  0.39316038449E+02  0.45971644601E+02  0.00000000000E+00 0. -1.
         22    1    3    3    0    0  0.17595204473E+01  0.46012349532E+02 -0.28658902147E+02  0.54236195423E+02  0.00000000000E+00 0. -1.
         22    1    3    3    0    0 -0.74098399727E+01 -0.24862667195E+02  0.77522412402E+02  0.81748286667E+02  0.00000000000E+00 0. -1.
</event>
<event>
 7    1  0.5127424E-006  0.5602674E+02  0.7818608E-02  0.1494406E+00
          2   -1    0    0  502    0  0.00000000000E+00  0.00000000000E+00  0.96090726895E+03  0.96090726895E+03  0.00000000000E+00 0. -1.
          1   -1    0    0  501    0 -0.00000000000E+00 -0.00000000000E+00 -0.79995837155E+02  0.79995837155E+02  0.00000000000E+00 0. -1.
         25    2    1    2    0    0 -0.48518656890E+02 -0.70177650859E+02  0.17772057543E+03  0.23342914999E+03  0.12500240953E+03 0.  0.
          2    1    1    2  501    0  0.29054747501E+02  0.45545493275E+02 -0.37725863991E+02  0.65892420838E+02  0.00000000000E+00 0. -1.
          1    1    1    2  502    0  0.19463909389E+02  0.24632157584E+02  0.74091672036E+03  0.74158153528E+03  0.00000000000E+00 0. -1.
         22    1    3    3    0    0  0.92489258078E+01 -0.21188725085E+01 -0.16860835371E+02  0.19347351723E+02  0.00000000000E+00 0. -1.
         22    1    3    3    0    0 -0.57767582698E+02 -0.68058778350E+02  0.19458141080E+03  0.21408179827E+03  0.00000000000E+00 0. -1.
</event>
<event>
 7    1  0.5127424E-006  0.1054488E+03  0.7818608E-02  0.1372343E+00
          2   -1    0    0  502    0  0.00000000000E+00  0.00000000000E+00  0.10325292178E+04  0.10325292178E+04  0.00000000000E+00 0. -1.
          1   -1    0    0  501    0 -0.00000000000E+00 -0.00000000000E+00 -0.19339970001E+03  0.19339970001E+03  0.00000000000E+00 0. -1.
         25    2    1    2    0    0 -0.23362451393E+02 -0.90312979743E+02  0.65891586183E+03  0.67712309977E+03  0.12499336317E+03 0.  0.
          2    1    1    2  501    0  0.64808996093E+02  0.83750398861E+02 -0.16771823148E+03  0.19835256604E+03  0.00000000000E+00 0. -1.
          1    1    1    2  502    0 -0.41446544700E+02  0.65625808821E+01  0.34793188744E+03  0.35045325199E+03  0.00000000000E+00 0. -1.
         22    1    3    3    0    0 -0.39693066341E+02  0.12067029582E+02  0.93640962130E+02  0.10241963926E+03  0.00000000000E+00 0. -1.
         22    1    3    3    0    0  0.16330614948E+02 -0.10238000933E+03  0.56527489970E+03  0.57470346051E+03  0.00000000000E+00 0. -1.
</event>
<event>
 7    1  0.5127424E-006  0.2457902E+03  0.7818608E-02  0.1211734E+00
          2   -1    0    0  502    0  0.00000000000E+00  0.00000000000E+00  0.14292644928E+04  0.14292644928E+04  0.00000000000E+00 0. -1.
          1   -1    0    0  501    0 -0.00000000000E+00 -0.00000000000E+00 -0.40290852710E+03  0.40290852710E+03  0.00000000000E+00 0. -1.
         25    2    1    2    0    0 -0.22343068672E+03  0.10309431772E+03 -0.67503472879E+02  0.28412760065E+03  0.12498825739E+03 0.  0.
          2    1    1    2  501    0  0.24941835192E+03 -0.26263577755E+02 -0.15613163910E+03  0.29542575805E+03  0.00000000000E+00 0. -1.
          1    1    1    2  502    0 -0.25987665198E+02 -0.76830739961E+02  0.12499910776E+04  0.12526196612E+04  0.00000000000E+00 0. -1.
         22    1    3    3    0    0 -0.73904810392E+02 -0.23141401235E+02 -0.10029256582E+01  0.77449669529E+02  0.00000000000E+00 0. -1.
         22    1    3    3    0    0 -0.14952587633E+03  0.12623571895E+03 -0.66500547220E+02  0.20667793112E+03  0.00000000000E+00 0. -1.
</event>
<event>
 7    1  0.5127424E-006  0.6778038E+02  0.7818608E-02  0.1382041E+00
          2   -1    0    0  502    0  0.00000000000E+00  0.00000000000E+00  0.91947003500E+02  0.91947003500E+02  0.00000000000E+00 0. -1.
          1   -1    0    0  501    0 -0.00000000000E+00 -0.00000000000E+00 -0.45980297156E+03  0.45980297156E+03  0.00000000000E+00 0. -1.
         25    2    1    2    0    0 -0.60740695279E+01 -0.91415711197E+01 -0.11326855297E+03  0.16904246582E+03  0.12500051006E+03 0.  0.
          2    1    1    2  501    0  0.57446607475E+02 -0.35973149792E+02 -0.29540405871E+03  0.30308041526E+03  0.00000000000E+00 0. -1.
          1    1    1    2  502    0 -0.51372537947E+02  0.45114720912E+02  0.40816643621E+02  0.79627093973E+02  0.00000000000E+00 0. -1.
         22    1    3    3    0    0 -0.61834343105E+02  0.18810935511E-01 -0.30823814754E+02  0.69091199853E+02  0.00000000000E+00 0. -1.
         22    1    3    3    0    0  0.55760273577E+02 -0.91603820552E+01 -0.82444738218E+02  0.99951265968E+02  0.00000000000E+00 0. -1.
</event>
<event>
 7    1  0.5127424E-006  0.5940017E+02  0.7818608E-02  0.1507191E+00
          2   -1    0    0  502    0  0.00000000000E+00  0.00000000000E+00  0.74017263860E+03  0.74017263860E+03  0.00000000000E+00 0. -1.
          1   -1    0    0  501    0 -0.00000000000E+00 -0.00000000000E+00 -0.32284560898E+03  0.32284560898E+03  0.00000000000E+00 0. -1.
         25    2    1    2    0    0 -0.36723226418E+02  0.41162352386E+02  0.77617191957E+02  0.15714003667E+03  0.12500251207E+03 0.  0.
          2    1    1    2  501    0 -0.18941325820E+02 -0.19414051337E+02 -0.28099599854E+03  0.28230201985E+03  0.00000000000E+00 0. -1.
          1    1    1    2  502    0  0.55664552237E+02 -0.21748301049E+02  0.62070583620E+03  0.62357619107E+03  0.00000000000E+00 0. -1.
         22    1    3    3    0    0 -0.17374913378E+02  0.29627347631E+02 -0.30966220998E+02  0.46244720622E+02  0.00000000000E+00 0. -1.
         22    1    3    3    0    0 -0.19348313039E+02  0.11535004755E+02  0.10858341296E+03  0.11089531605E+03  0.00000000000E+00 0. -1.
</event>
<event>
 7    1  0.5127424E-006  0.6582603E+02  0.7818608E-02  0.1385126E+00
          2   -1    0    0  502    0  0.00000000000E+00  0.00000000000E+00  0.20735720823E+04  0.20735720823E+04  0.00000000000E+00 0. -1.
          1   -1    0    0  501    0 -0.00000000000E+00 -0.00000000000E+00 -0.46367475750E+03  0.46367475750E+03  0.00000000000E+00 0. -1.
         25    2    1    2    0    0  0.92645552478E+02  0.28307549347E+02 -0.36139079500E+02  0.16222111272E+03  0.12500056240E+03 0.  0.
          2    1    1    2  501    0 -0.31243970474E+02 -0.51872065403E+02 -0.36143736208E+03  0.36647491533E+03  0.00000000000E+00 0. -1.
          1    1    1    2  502    0 -0.61401582004E+02  0.23564516056E+02  0.20074737663E+04  0.20085508117E+04  0.00000000000E+00 0. -1.
         22    1    3    3    0    0  0.38984281458E+02  0.56660398506E+02 -0.65344294211E+02  0.94868602528E+02  0.00000000000E+00 0.  1.
         22    1    3    3    0    0  0.53661271020E+02 -0.28352849159E+02  0.29205214711E+02  0.67352510192E+02  0.00000000000E+00 0.  1.
</event>
<event>
 7    1  0.5127424E-006  0.1480252E+03  0.7818608E-02  0.1318870E+00
          2   -1    0    0  502    0  0.00000000000E+00  0.00000000000E+00  0.36304388665E+03  0.36304388665E+03  0.00000000000E+00 0. -1.
          1   -1    0    0  501    0 -0.00000000000E+00 -0.00000000000E+00 -0.16026651555E+03  0.16026651555E+03  0.00000000000E+00 0. -1.
         25    2    1    2    0    0  0.49348801268E+02  0.11702067057E+03  0.71794866006E+02  0.19211670599E+03  0.12500073763E+03 0.  0.
          2    1    1    2  501    0 -0.24785447716E+02  0.40317363239E+02 -0.63903963373E+02  0.79520593130E+02  0.00000000000E+00 0. -1.
          1    1    1    2  502    0 -0.24563353552E+02 -0.15733803381E+03  0.19488646847E+03  0.25167310308E+03  0.00000000000E+00 0. -1.
         22    1    3    3    0    0  0.45756826612E+02  0.14346049493E+03  0.53666713040E+02  0.15985842760E+03  0.00000000000E+00 0.  1.
         22    1    3    3    0    0  0.35919746562E+01 -0.26439824362E+02  0.18128152966E+02  0.32258278382E+02  0.00000000000E+00 0.  1.
</event>
<event>
 7    1  0.5127424E-006  0.1024445E+03  0.7818608E-02  0.1368139E+00
          2   -1    0    0  502    0  0.00000000000E+00  0.00000000000E+00  0.61365699091E+02  0.61365699091E+02  0.00000000000E+00 0. -1.
          1   -1    0    0  501    0 -0.00000000000E+00 -0.00000000000E+00 -0.20078065417E+04  0.20078065417E+04  0.00000000000E+00 0. -1.
         25    2    1    2    0    0  0.35768755094E+02 -0.11607697533E+03 -0.18286539980E+03  0.25262199570E+03  0.12499940089E+03 0.  0.
          2    1    1    2  501    0 -0.62721597631E+02  0.80389004970E+02 -0.17686088494E+04  0.17715455549E+04  0.00000000000E+00 0. -1.
          1    1    1    2  502    0  0.26952842538E+02  0.35687970359E+02  0.50334066682E+01  0.45004690110E+02  0.00000000000E+00 0. -1.
         22    1    3    3    0    0  0.39162089114E+02  0.35449601552E+01 -0.98908193846E+02  0.10643808893E+03  0.00000000000E+00 0.  1.
         22    1    3    3    0    0 -0.33933340204E+01 -0.11962193548E+03 -0.83957205953E+02  0.14618390676E+03  0.00000000000E+00 0.  1.
</event>
<event>
 7    1  0.5127424E-006  0.1425103E+03  0.7818608E-02  0.1377420E+00
          2   -1    0    0  502    0  0.00000000000E+00  0.00000000000E+00  0.15139561869E+04  0.15139561869E+04  0.00000000000E+00 0. -1.
          1   -1    0    0  501    0 -0.00000000000E+00 -0.00000000000E+00 -0.11034390773E+04  0.11034390773E+04  0.00000000000E+00 0. -1.
         25    2    1    2    0    0 -0.30897622199E+02  0.12247468072E+03  0.51978045305E+03  0.54931924238E+03  0.12500080081E+03 0.  0.
          2    1    1    2  501    0  0.59833830890E+02 -0.12951785638E+03 -0.10837669559E+04  0.10931174581E+04  0.00000000000E+00 0. -1.
          1    1    1    2  502    0 -0.28936208691E+02  0.70431756558E+01  0.97450361236E+03  0.97495856374E+03  0.00000000000E+00 0. -1.
         22    1    3    3    0    0 -0.74814335009E+02  0.42940421573E+02  0.27559316599E+03  0.28877786908E+03  0.00000000000E+00 0. -1.
         22    1    3    3    0    0  0.43916712811E+02  0.79534259147E+02  0.24418728706E+03  0.26054137331E+03  0.00000000000E+00 0. -1.
</event>
<event>
 7    1  0.5127424E-006  0.3737287E+02  0.7818608E-02  0.1564408E+00
          2   -1    0    0  502    0  0.00000000000E+00  0.00000000000E+00  0.14875076538E+04  0.14875076538E+04  0.00000000000E+00 0. -1.
          1   -1    0    0  501    0 -0.00000000000E+00 -0.00000000000E+00 -0.43650981874E+02  0.43650981874E+02  0.00000000000E+00 0. -1.
         25    2    1    2    0    0  0.16653047619E+02  0.26650116161E+02  0.45718628516E+03  0.47500752410E+03  0.12500118370E+03 0.  0.
          2    1    1    2  501    0  0.20956666008E+02 -0.20959127655E+02 -0.27996818445E+02  0.40771175176E+02  0.00000000000E+00 0. -1.
          1    1    1    2  502    0 -0.37609713627E+02 -0.56909885064E+01  0.10146672052E+04  0.10153799364E+04  0.00000000000E+00 0. -1.
         22    1    3    3    0    0 -0.25808589220E+02  0.60842717620E+02  0.16436802626E+03  0.17715746561E+03  0.00000000000E+00 0. -1.
         22    1    3    3    0    0  0.42461636839E+02 -0.34192601458E+02  0.29281825890E+03  0.29785005849E+03  0.00000000000E+00 0. -1.
</event>
<event>
 7    1  0.5127424E-006  0.1874654E+03  0.7818608E-02  0.1162812E+00
          2   -1    0    0  502    0  0.00000000000E+00  0.00000000000E+00  0.27243361494E+03  0.27243361494E+03  0.00000000000E+00 0. -1.
          1   -1    0    0  501    0 -0.00000000000E+00 -0.00000000000E+00 -0.13815180393E+04  0.13815180393E+04  0.00000000000E+00 0. -1.
         25    2    1    2    0    0  0.41630729121E+02 -0.30312365183E+02 -0.78540182334E+02  0.15634939497E+03  0.12499846390E+03 0.  0.
          2    1    1    2  501    0 -0.22448237898E+03  0.21382373384E+02 -0.12161641428E+04  0.12368931912E+04  0.00000000000E+00 0. -1.
          1    1    1    2  502    0  0.18285164986E+03  0.89299917997E+01  0.18561990073E+03  0.26070906804E+03  0.00000000000E+00 0. -1.
         22    1    3    3    0    0  0.36741705561E+02 -0.46871325667E+02 -0.10734913751E+03  0.12276282590E+03  0.00000000000E+00 0.  1.
         22    1    3    3    0    0  0.48890235598E+01  0.16558960483E+02  0.28808955180E+02  0.33586569075E+02  0.00000000000E+00 0.  1.
</event>
<event>
 7    1  0.5127424E-006  0.5145429E+02  0.7818608E-02  0.1496078E+00
          2   -1    0    0  502    0  0.00000000000E+00  0.00000000000E+00  0.15247567685E+04  0.15247567685E+04  0.00000000000E+00 0. -1.
          1   -1    0    0  501    0 -0.00000000000E+00 -0.00000000000E+00 -0.68979140152E+02  0.68979140152E+02  0.00000000000E+00 0. -1.
         25    2    1    2    0    0 -0.60213076193E+02  0.36985279788E+02  0.24848992479E+03  0.28699456943E+03  0.12500045876E+03 0.  0.
          2    1    1    2  501    0  0.50648447175E+02 -0.45761300535E+01 -0.36434991436E+02  0.62559689645E+02  0.00000000000E+00 0. -1.
          1    1    1    2  502    0  0.95646290179E+01 -0.32409149735E+02  0.12437226950E+04  0.12441816496E+04  0.00000000000E+00 0. -1.
         22    1    3    3    0    0  0.25079136819E+01  0.71192539912E+02  0.14021977565E+03  0.15727762985E+03  0.00000000000E+00 0.  1.
         22    1    3    3    0    0 -0.62720989875E+02 -0.34207260123E+02  0.10827014915E+03  0.12971693957E+03  0.00000000000E+00 0.  1.
</event>
<event>
 7    1  0.5127424E-006  0.6283559E+02  0.7818608E-02  0.1431001E+00
          2   -1    0    0  502    0  0.00000000000E+00  0.00000000000E+00  0.77065314898E+02  0.77065314898E+02  0.00000000000E+00 0. -1.
          1   -1    0    0  501    0 -0.00000000000E+00 -0.00000000000E+00 -0.61222037049E+03  0.61222037049E+03  0.00000000000E+00 0. -1.
         25    2    1    2    0    0 -0.50418943062E+02 -0.75888157160E+02 -0.17156764498E+03  0.23100051660E+03  0.12499879860E+03 0.  0.
          2    1    1    2  501    0  0.88475461766E+01  0.60582909969E+02 -0.39769275356E+03  0.40237804896E+03  0.00000000000E+00 0. -1.
          1    1    1    2  502    0  0.41571396886E+02  0.15305247191E+02  0.34105342939E+02  0.55907119829E+02  0.00000000000E+00 0. -1.
         22    1    3    3    0    0 -0.27665100962E+02  0.27125117815E+02 -0.88889624412E+02  0.96966464078E+02  0.00000000000E+00 0. -1.
         22    1    3    3    0    0 -0.22753842100E+02 -0.10301327498E+03 -0.82678020566E+02  0.13403405252E+03  0.00000000000E+00 0. -1.
</event>
<event>
 7    1  0.5127424E-006  0.8177325E+02  0.7818608E-02  0.1422266E+00
          2   -1    0    0  502    0  0.00000000000E+00  0.00000000000E+00  0.30941950339E+03  0.30941950339E+03  0.00000000000E+00 0. -1.
          1   -1    0    0  501    0 -0.00000000000E+00 -0.00000000000E+00 -0.70359563096E+03  0.70359563096E+03  0.00000000000E+00 0. -1.
         25    2    1    2    0    0 -0.94014171303E+02 -0.19559523633E+02  0.12167372284E+03  0.19912586557E+03  0.12500150455E+03 0.  0.
          2    1    1    2  501    0  0.80413606099E+02 -0.14184763978E+02 -0.66009519214E+03  0.66512646787E+03  0.00000000000E+00 0. -1.
          1    1    1    2  502    0  0.13600565204E+02  0.33744287611E+02  0.14424534174E+03  0.14876280091E+03  0.00000000000E+00 0. -1.
         22    1    3    3    0    0 -0.39178021914E+01  0.21035667921E+00 -0.25301429366E+02  0.25603822994E+02  0.00000000000E+00 0.  1.
         22    1    3    3    0    0 -0.90096369112E+02 -0.19769880312E+02  0.14697515220E+03  0.17352204258E+03  0.00000000000E+00 0.  1.
</event>
<event>
 7    1  0.5127424E-006  0.8101498E+02  0.7818608E-02  0.1356985E+00
          2   -1    0    0  502    0  0.00000000000E+00  0.00000000000E+00  0.79611533667E+03  0.79611533667E+03  0.00000000000E+00 0. -1.
          1   -1    0    0  501    0 -0.00000000000E+00 -0.00000000000E+00 -0.48782562648E+03  0.48782562648E+03  0.00000000000E+00 0. -1.
         25    2    1    2    0    0  0.35809630870E+02  0.34626982983E+02  0.19644976100E+03  0.23811398817E+03  0.12499762058E+03 0.  0.
          2    1    1    2  501    0  0.46959818549E+01 -0.81680485623E+02 -0.46172190003E+03  0.46891456252E+03  0.00000000000E+00 0. -1.
          1    1    1    2  502    0 -0.40505612725E+02  0.47053502640E+02  0.57356184922E+03  0.57691241246E+03  0.00000000000E+00 0. -1.
         22    1    3    3    0    0  0.37462784054E+02  0.79508041630E+02  0.14734900437E+03  0.17157132034E+03  0.00000000000E+00 0.  1.
         22    1    3    3    0    0 -0.16531531840E+01 -0.44881058648E+02  0.49100756627E+02  0.66542667831E+02  0.00000000000E+00 0.  1.
</event>
<event>
 7    1  0.5127424E-006  0.9658168E+02  0.7818608E-02  0.1362567E+00
          2   -1    0    0  502    0  0.00000000000E+00  0.00000000000E+00  0.19709120698E+04  0.19709120698E+04  0.00000000000E+00 0. -1.
          1   -1    0    0  501    0 -0.00000000000E+00 -0.00000000000E+00 -0.46127029849E+03  0.46127029849E+03  0.00000000000E+00 0. -1.
         25    2    1    2    0    0  0.47738771622E+01 -0.98894752815E+02  0.69376523755E+02  0.17390270297E+03  0.12500434398E+03 0.  0.
          2    1    1    2  501    0 -0.51578239004E+02  0.82200196550E+02 -0.40291149560E+03  0.41443317958E+03  0.00000000000E+00 0. -1.
          1    1    1    2  502    0  0.46804361842E+02  0.16694556265E+02  0.18431767431E+04  0.18438464857E+04  0.00000000000E+00 0. -1.
         22    1    3    3    0    0 -0.45300352994E+02 -0.70115992705E+02 -0.20189302481E+00  0.83477033818E+02  0.00000000000E+00 0. -1.
         22    1    3    3    0    0  0.50074230156E+02 -0.28778760110E+02  0.69578416780E+02  0.90425669147E+02  0.00000000000E+00 0. -1.
</event>
<event>
 7    1  0.5127424E-006  0.1078467E+03  0.7818608E-02  0.1375578E+00
          2   -1    0    0  502    0  0.00000000000E+00  0.00000000000E+00  0.15281613013E+04  0.15281613013E+04  0.00000000000E+00 0. -1.
          1   -1    0    0  501    0 -0.00000000000E+00 -0.00000000000E+00 -0.21750328967E+03  0.21750328967E+03  0.00000000000E+00 0. -1.
         25    2    1    2    0    0 -0.12835061562E+03  0.22402197746E+02  0.26072518842E+03  0.31714078874E+03  0.12499966804E+03 0.  0.
          2    1    1    2  501    0  0.10635185720E+03  0.10947594851E+02 -0.17384726792E+03  0.20409174390E+03  0.00000000000E+00 0. -1.
          1    1    1    2  502    0  0.21998758416E+02 -0.33349792598E+02  0.12237800912E+04  0.12244320584E+04  0.00000000000E+00 0. -1.
         22    1    3    3    0    0 -0.63016794553E+02 -0.51883366520E+02  0.11833779670E+03  0.14375964053E+03  0.00000000000E+00 0.  1.
         22    1    3    3    0    0 -0.65333821062E+02  0.74285564267E+02  0.14238739172E+03  0.17338114821E+03  0.00000000000E+00 0.  1.
</event>
<event>
 7    1  0.5127424E-006  0.5032972E+02  0.7818608E-02  0.1470179E+00
          2   -1    0    0  502    0  0.00000000000E+00  0.00000000000E+00  0.16027326204E+04  0.16027326204E+04  0.00000000000E+00 0. -1.
          1   -1    0    0  501    0 -0.00000000000E+00 -0.00000000000E+00 -0.69364792681E+02  0.69364792681E+02  0.00000000000E+00 0. -1.
         25    2    1    2    0    0  0.50352766801E+01 -0.87108272473E+01  0.50552311052E+03  0.52084621818E+03  0.12500374074E+03 0.  0.
          2    1    1    2  501    0 -0.35143361801E+02  0.37197454228E+02 -0.50626156175E+02  0.71984124422E+02  0.00000000000E+00 0. -1.
          1    1    1    2  502    0  0.30108085121E+02 -0.28486626981E+02  0.10784708734E+04  0.10792670705E+04  0.00000000000E+00 0. -1.
         22    1    3    3    0    0  0.42643224351E+02 -0.35658426841E+02  0.11650672126E+03  0.12908828020E+03  0.00000000000E+00 0. -1.
         22    1    3    3    0    0 -0.37607947671E+02  0.26947599594E+02  0.38901638926E+03  0.39175793797E+03  0.00000000000E+00 0. -1.
</event>
<event>
 7    1  0.5127424E-006  0.4059566E+02  0.7818608E-02  0.1589022E+00
          2   -1    0    0  502    0  0.00000000000E+00  0.00000000000E+00  0.68273992703E+01  0.68273992703E+01  0.00000000000E+00 0. -1.
          1   -1    0    0  501    0 -0.00000000000E+00 -0.00000000000E+00 -0.19422846751E+04  0.19422846751E+04  0.00000000000E+00 0. -1.
         25    2    1    2    0    0  0.24157915511E+02  0.23713003107E+02 -0.11844436823E+04  0.11915021773E+04  0.12499876267E+03 0.  0.
          2    1    1    2  501    0  0.20498014189E+02 -0.11335189208E+02 -0.51654108622E+02  0.56716858495E+02  0.00000000000E+00 0. -1.
          1    1    1    2  502    0 -0.44655929700E+02 -0.12377813899E+02 -0.69935948495E+03  0.70089303857E+03  0.00000000000E+00 0. -1.
         22    1    3    3    0    0  0.73286450092E+02  0.53082689661E+01 -0.54879580075E+03  0.55369297666E+03  0.00000000000E+00 0.  1.
         22    1    3    3    0    0 -0.49128534581E+02  0.18404734141E+02 -0.63564788150E+03  0.63780920063E+03  0.00000000000E+00 0.  1.
</event>
<event>
 7    1  0.5127424E-006  0.1320856E+03  0.7818608E-02  0.1301206E+00
          2   -1    0    0  502    0  0.00000000000E+00  0.00000000000E+00  0.24742588163E+04  0.24742588163E+04  0.00000000000E+00 0. -1.
          1   -1    0    0  501    0 -0.00000000000E+00 -0.00000000000E+00 -0.30889631067E+03  0.30889631067E+03  0.00000000000E+00 0. -1.
         25    2    1    2    0    0  0.22867226219E+02  0.17359289190E+03  0.11672946033E+03  0.24476169826E+03  0.12500047950E+03 0.  0.
          2    1    1    2  501    0 -0.51019481040E+02 -0.11806298343E+03 -0.22753743519E+03  0.26137165094E+03  0.00000000000E+00 0. -1.
          1    1    1    2  502    0  0.28152254821E+02 -0.55529908469E+02  0.22761704805E+04  0.22770217778E+04  0.00000000000E+00 0. -1.
         22    1    3    3    0    0  0.29451201861E+02  0.14646277015E+03  0.28327749768E+02  0.15205649522E+03  0.00000000000E+00 0. -1.
         22    1    3    3    0    0 -0.65839756417E+01  0.27130121745E+02  0.88401710560E+02  0.92705203042E+02  0.00000000000E+00 0. -1.
</event>
<event>
 7    1  0.5127424E-006  0.5085915E+02  0.7818608E-02  0.1485669E+00
          2   -1    0    0  502    0  0.00000000000E+00  0.00000000000E+00  0.10619466446E+04  0.10619466446E+04  0.00000000000E+00 0. -1.
          1   -1    0    0  501    0 -0.00000000000E+00 -0.00000000000E+00 -0.29974797209E+03  0.29974797209E+03  0.00000000000E+00 0. -1.
         25    2    1    2    0    0 -0.59898483053E+02  0.33665280156E+02  0.43788539305E+03  0.46053184431E+03  0.12499913127E+03 0.  0.
          2    1    1    2  501    0  0.50783272606E+02  0.19407117450E+01 -0.28562862509E+03  0.29011449224E+03  0.00000000000E+00 0. -1.
          1    1    1    2  502    0  0.91152104475E+01 -0.35605991901E+02  0.60994190458E+03  0.61104828016E+03  0.00000000000E+00 0. -1.
         22    1    3    3    0    0  0.31806010181E+02  0.24229833771E+02  0.22526402348E+03  0.22878502442E+03  0.00000000000E+00 0.  1.
         22    1    3    3    0    0 -0.91704493235E+02  0.94354463848E+01  0.21262136957E+03  0.23174681988E+03  0.00000000000E+00 0.  1.
</event>
<event>
 7    1  0.5127424E-006  0.3901669E+03  0.7818608E-02  0.1123643E+00
          2   -1    0    0  502    0  0.00000000000E+00  0.00000000000E+00  0.22449766507E+04  0.22449766507E+04  0.00000000000E+00 0. -1.
          1   -1    0    0  501    0 -0.00000000000E+00 -0.00000000000E+00 -0.18128315891E+04  0.18128315891E+04  0.00000000000E+00 0. -1.
         25    2    1    2    0    0  0.13295750231E+03  0.48240339587E+03  0.74357859522E+01  0.51582045016E+03  0.12499884846E+03 0.  0.
          2    1    1    2  501    0 -0.16205485817E+03 -0.34473454713E+03 -0.15328020066E+04  0.15794257426E+04  0.00000000000E+00 0. -1.
          1    1    1    2  502    0  0.29097355856E+02 -0.13766884875E+03  0.19575112823E+04  0.19625620470E+04  0.00000000000E+00 0. -1.
         22    1    3    3    0    0  0.64965000973E+02  0.11862904215E+03  0.48027849666E+02  0.14352691502E+03  0.00000000000E+00 0.  1.
         22    1    3    3    0    0  0.67992501338E+02  0.36377435373E+03 -0.40592063714E+02  0.37229353514E+03  0.00000000000E+00 0.  1.
</event>
<event>
 7    1  0.5127424E-006  0.5945483E+02  0.7818608E-02  0.1464056E+00
          2   -1    0    0  502    0  0.00000000000E+00  0.00000000000E+00  0.29824989637E+03  0.29824989637E+03  0.00000000000E+00 0. -1.
          1   -1    0    0  501    0 -0.00000000000E+00 -0.00000000000E+00 -0.15709219390E+03  0.15709219390E+03  0.00000000000E+00 0. -1.
         25    2    1    2    0    0  0.87790965393E+02  0.30669478424E+02  0.78335806000E+02  0.17438131660E+03  0.12499789825E+03 0.  0.
          2    1    1    2  501    0 -0.51495783259E+02 -0.25464129115E+02 -0.99313035644E+02  0.11473149792E+03  0.00000000000E+00 0. -1.
          1    1    1    2  502    0 -0.36295182134E+02 -0.52053493094E+01  0.16213493211E+03  0.16622927575E+03  0.00000000000E+00 0. -1.
         22    1    3    3    0    0  0.39906346837E+02  0.58776102579E+02 -0.82514599246E+01  0.71520859496E+02  0.00000000000E+00 0.  1.
         22    1    3    3    0    0  0.47884618556E+02 -0.28106624154E+02  0.86587265924E+02  0.10286045711E+03  0.00000000000E+00 0.  1.
</event>
<event>
 7    1  0.5127424E-006  0.6286591E+02  0.7818608E-02  0.1453676E+00
          2   -1    0    0  502    0  0.00000000000E+00  0.00000000000E+00  0.80625889542E+03  0.80625889542E+03  0.00000000000E+00 0. -1.
          1   -1    0    0  501    0 -0.00000000000E+00 -0.00000000000E+00 -0.16706165444E+04  0.16706165444E+04  0.00000000000E+00 0. -1.
         25    2    1    2    0    0 -0.10112582543E+02 -0.93319208553E+02 -0.10028050839E+03  0.18572129786E+03  0.12500192440E+03 0.  0.
          2    1    1    2  501    0 -0.98164190153E+01  0.61674480040E+02 -0.15265188814E+04  0.15277957975E+04  0.00000000000E+00 0. -1.
          1    1    1    2  502    0  0.19929001558E+02  0.31644728513E+02  0.76244174080E+03  0.76335834446E+03  0.00000000000E+00 0. -1.
         22    1    3    3    0    0  0.23554305452E+02 -0.84875515532E+02 -0.11760047972E+03  0.14693036198E+03  0.00000000000E+00 0.  1.
         22    1    3    3    0    0 -0.33666887994E+02 -0.84436930213E+01  0.17319971332E+02  0.38790935874E+02  0.00000000000E+00 0.  1.
</event>
<event>
 7    1  0.5127424E-006  0.3009638E+03  0.7818608E-02  0.1230114E+00
          2   -1    0    0  502    0  0.00000000000E+00  0.00000000000E+00  0.71115910367E+03  0.71115910367E+03  0.00000000000E+00 0. -1.
          1   -1    0    0  501    0 -0.00000000000E+00 -0.00000000000E+00 -0.18588013082E+04  0.18588013082E+04  0.00000000000E+00 0. -1.
         25    2    1    2    0    0  0.29439774538E+03 -0.72874861633E+02  0.23130227641E+03  0.40138240950E+03  0.12500527045E+03 0.  0.
          2    1    1    2  501    0 -0.19633925118E+02 -0.50979746064E+02 -0.17157458243E+04  0.17166153207E+04  0.00000000000E+00 0. -1.
          1    1    1    2  502    0 -0.27476382026E+03  0.12385460770E+03  0.33680134336E+03  0.45196268171E+03  0.00000000000E+00 0. -1.
         22    1    3    3    0    0  0.22223503706E+02 -0.47609411273E+02  0.21350666755E+02  0.56713235930E+02  0.00000000000E+00 0. -1.
         22    1    3    3    0    0  0.27217424167E+03 -0.25265450360E+02  0.20995160966E+03  0.34466917357E+03  0.00000000000E+00 0. -1.
</event>
<event>
 7    1  0.5127424E-006  0.8699007E+02  0.7818608E-02  0.1386635E+00
          2   -1    0    0  502    0  0.00000000000E+00  0.00000000000E+00  0.18324402376E+04  0.18324402376E+04  0.00000000000E+00 0. -1.
          1   -1    0    0  501    0 -0.00000000000E+00 -0.00000000000E+00 -0.91091793693E+02  0.91091793693E+02  0.00000000000E+00 0. -1.
         25    2    1    2    0    0 -0.90358980747E+02  0.78020104354E+02  0.71094560050E+03  0.73165451485E+03  0.12499120027E+03 0.  0.
          2    1    1    2  501    0  0.79042738943E+02 -0.34190956520E+02 -0.57166058887E+02  0.10336698881E+03  0.00000000000E+00 0. -1.
          1    1    1    2  502    0  0.11316241804E+02 -0.43829147835E+02  0.10875689023E+04  0.10885105276E+04  0.00000000000E+00 0. -1.
         22    1    3    3    0    0  0.22559572768E+02  0.52298064044E+02  0.24464716250E+03  0.25118968121E+03  0.00000000000E+00 0. -1.
         22    1    3    3    0    0 -0.11291855352E+03  0.25722040310E+02  0.46629843800E+03  0.48046483364E+03  0.00000000000E+00 0. -1.
</event>
<event>
 7    1  0.5127424E-006  0.4458592E+02  0.7818608E-02  0.1540338E+00
          2   -1    0    0  502    0  0.00000000000E+00  0.00000000000E+00  0.24346613652E+03  0.24346613652E+03  0.00000000000E+00 0. -1.
          1   -1    0    0  501    0 -0.00000000000E+00 -0.00000000000E+00 -0.13944938721E+04  0.13944938721E+04  0.00000000000E+00 0. -1.
         25    2    1    2    0    0  0.22216033955E+02 -0.52929756199E+01 -0.76500109203E+02  0.14833895598E+03  0.12502244357E+03 0.  0.
          2    1    1    2  501    0  0.20177779057E+02  0.20806766155E+02 -0.12794535084E+04  0.12797817566E+04  0.00000000000E+00 0. -1.
          1    1    1    2  502    0 -0.42393813012E+02 -0.15513790535E+02  0.20492588200E+03  0.20983929611E+03  0.00000000000E+00 0. -1.
         22    1    3    3    0    0 -0.24556571860E+02 -0.30833317166E+02  0.15225916982E+02  0.42255735905E+02  0.00000000000E+00 0. -1.
         22    1    3    3    0    0  0.46772605814E+02  0.25540341546E+02 -0.91726026185E+02  0.10608322007E+03  0.00000000000E+00 0. -1.
</event>
<event>
 7    1  0.5127424E-006  0.8698018E+02  0.7818608E-02  0.1466071E+00
          2   -1    0    0  502    0  0.00000000000E+00  0.00000000000E+00  0.98631975993E+02  0.98631975993E+02  0.00000000000E+00 0. -1.
          1   -1    0    0  501    0 -0.00000000000E+00 -0.00000000000E+00 -0.54251672553E+03  0.54251672553E+03  0.00000000000E+00 0. -1.
         25    2    1    2    0    0  0.18727210029E+02  0.81255911710E+02  0.14990336838E+02  0.15100744177E+03  0.12500122274E+03 0.  0.
          2    1    1    2  501    0 -0.42878013844E+02 -0.76068771803E+02 -0.45711111028E+03  0.46537678203E+03  0.00000000000E+00 0. -1.
          1    1    1    2  502    0  0.24150803815E+02 -0.51871399070E+01 -0.17639760979E+01  0.24764477725E+02  0.00000000000E+00 0. -1.
         22    1    3    3    0    0 -0.49042758002E+01  0.61406948919E+02 -0.49818370038E+02  0.79225849884E+02  0.00000000000E+00 0.  1.
         22    1    3    3    0    0  0.23631485829E+02  0.19848962791E+02  0.64808706876E+02  0.71781591883E+02  0.00000000000E+00 0.  1.
</event>
<event>
 7    1  0.5127424E-006  0.2684276E+02  0.7818608E-02  0.1648401E+00
          2   -1    0    0  502    0  0.00000000000E+00  0.00000000000E+00  0.24902430865E+02  0.24902430865E+02  0.00000000000E+00 0. -1.
          1   -1    0    0  501    0 -0.00000000000E+00 -0.00000000000E+00 -0.30643374496E+04  0.30643374496E+04  0.00000000000E+00 0. -1.
         25    2    1    2    0    0  0.44173476880E+02 -0.13311229204E+02 -0.16054463456E+04  0.16109660639E+04  0.12500082221E+03 0.  0.
          2    1    1    2  501    0 -0.17749401824E+02  0.17592098957E+02 -0.14478935602E+04  0.14481092103E+04  0.00000000000E+00 0. -1.
          1    1    1    2  502    0 -0.26424075055E+02 -0.42808697527E+01  0.13904887065E+02  0.30164606291E+02  0.00000000000E+00 0. -1.
         22    1    3    3    0    0 -0.14070284247E+02  0.25910116117E+01 -0.21236520452E+02  0.25606171929E+02  0.00000000000E+00 0.  1.
         22    1    3    3    0    0  0.58243761127E+02 -0.15902240816E+02 -0.15842098251E+04  0.15853598920E+04  0.00000000000E+00 0.  1.
</event>
<event>
 7    1  0.5127424E-006  0.8279665E+02  0.7818608E-02  0.1399186E+00
          2   -1    0    0  502    0  0.00000000000E+00  0.00000000000E+00  0.64182563899E+03  0.64182563899E+03  0.00000000000E+00 0. -1.
          1   -1    0    0  501    0 -0.00000000000E+00 -0.00000000000E+00 -0.86867924723E+03  0.86867924723E+03  0.00000000000E+00 0. -1.
         25    2    1    2    0    0 -0.28052631093E+02 -0.46060480463E+02  0.12219543348E+03  0.18293589457E+03  0.12500119834E+03 0.  0.
          2    1    1    2  501    0 -0.42786317157E+02 -0.44311384630E+01 -0.83388343393E+03  0.83499214685E+03  0.00000000000E+00 0. -1.
          1    1    1    2  502    0  0.70838948250E+02  0.50491618926E+02  0.48483439221E+03  0.49257684481E+03  0.00000000000E+00 0. -1.
         22    1    3    3    0    0  0.29722667449E+02 -0.63133668599E+02  0.92220515411E+02  0.11564566803E+03  0.00000000000E+00 0.  1.
         22    1    3    3    0    0 -0.57775298543E+02  0.17073188136E+02  0.29974918070E+02  0.67290226543E+02  0.00000000000E+00 0.  1.
</event>
<event>
 7    1  0.5127424E-006  0.5277780E+02  0.7818608E-02  0.1481596E+00
          2   -1    0    0  502    0  0.00000000000E+00  0.00000000000E+00  0.38485685593E+04  0.38485685593E+04  0.00000000000E+00 0. -1.
          1   -1    0    0  501    0 -0.00000000000E+00 -0.00000000000E+00 -0.66473153727E+01  0.66473153727E+01  0.00000000000E+00 0. -1.
         25    2    1    2    0    0 -0.15956775079E+02 -0.73916112316E+02  0.20379881892E+04  0.20432176433E+04  0.12499707324E+03 0.  0.
          2    1    1    2  501    0 -0.11602316918E+02  0.50065716534E+02  0.16859235729E+03  0.17625144727E+03  0.00000000000E+00 0. -1.
          1    1    1    2  502    0  0.27559091997E+02  0.23850395782E+02  0.16353406975E+04  0.16357467841E+04  0.00000000000E+00 0. -1.
         22    1    3    3    0    0  0.34829930651E+02  0.11916620802E+02  0.28097706613E+03  0.28337826595E+03  0.00000000000E+00 0.  1.
         22    1    3    3    0    0 -0.50786705730E+02 -0.85832733118E+02  0.17570111231E+04  0.17598393774E+04  0.00000000000E+00 0.  1.
</event>
<event>
 7    1  0.5127424E-006  0.6065245E+02  0.7818608E-02  0.1510453E+00
          2   -1    0    0  502    0  0.00000000000E+00  0.00000000000E+00  0.81048337875E+03  0.81048337875E+03  0.00000000000E+00 0. -1.
          1   -1    0    0  501    0 -0.00000000000E+00 -0.00000000000E+00 -0.19128832663E+03  0.19128832663E+03  0.00000000000E+00 0. -1.
         25    2    1    2    0    0 -0.12889068487E+02 -0.47771325379E+02  0.41103768505E+03  0.43246294522E+03  0.12499597132E+03 0.  0.
          2    1    1    2  501    0 -0.10029432933E+02  0.60010364728E+02 -0.17499818546E+03  0.18527330707E+03  0.00000000000E+00 0. -1.
          1    1    1    2  502    0  0.22918501420E+02 -0.12239039349E+02  0.38315555253E+03  0.38403545309E+03  0.00000000000E+00 0. -1.
         22    1    3    3    0    0 -0.86049810894E+01  0.83213384142E+01  0.34707349567E+03  0.34727986088E+03  0.00000000000E+00 0.  1.
         22    1    3    3    0    0 -0.42840873972E+01 -0.56092663793E+02  0.63964189374E+02  0.85183084345E+02  0.00000000000E+00 0.  1.
</event>
<event>
 7    1  0.5127424E-006  0.4388222E+02  0.7818608E-02  0.1561333E+00
          2   -1    0    0  502    0  0.00000000000E+00  0.00000000000E+00  0.10596827628E+04  0.10596827628E+04  0.00000000000E+00 0. -1.
          1   -1    0    0  501    0 -0.00000000000E+00 -0.00000000000E+00 -0.58915084158E+03  0.58915084158E+03  0.00000000000E+00 0. -1.
         25    2    1    2    0    0 -0.59234613239E+02  0.28197290941E+01 -0.13964424054E+02  0.13905721493E+03  0.12500085442E+03 0.  0.
          2    1    1    2  501    0  0.39319065954E+02 -0.19122481385E+02 -0.51154122494E+03  0.51340635276E+03  0.00000000000E+00 0. -1.
          1    1    1    2  502    0  0.19915547285E+02  0.16302752291E+02  0.99603757023E+03  0.99637003672E+03  0.00000000000E+00 0. -1.
         22    1    3    3    0    0 -0.48128687069E+02  0.59920517158E+02 -0.22920695682E+02  0.80200979956E+02  0.00000000000E+00 0. -1.
         22    1    3    3    0    0 -0.11105926170E+02 -0.57100788064E+02  0.89562716275E+01  0.58856234972E+02  0.00000000000E+00 0. -1.
</event>
<event>
 7    1  0.5127424E-006  0.7330254E+02  0.7818608E-02  0.1431687E+00
          2   -1    0    0  502    0  0.00000000000E+00  0.00000000000E+00  0.16952511283E+03  0.16952511283E+03  0.00000000000E+00 0. -1.
          1   -1    0    0  501    0 -0.00000000000E+00 -0.00000000000E+00 -0.45305162360E+03  0.45305162360E+03  0.00000000000E+00 0. -1.
         25    2    1    2    0    0 -0.46383455680E+02  0.99261060735E+02  0.85630146047E+02  0.18697935121E+03  0.12499829090E+03 0.  0.
          2    1    1    2  501    0  0.35625126786E+02 -0.63048138073E+02 -0.38707159193E+03  0.39378755015E+03  0.00000000000E+00 0. -1.
          1    1    1    2  502    0  0.10758328894E+02 -0.36212922662E+02  0.17914935109E+02  0.41809835067E+02  0.00000000000E+00 0. -1.
         22    1    3    3    0    0 -0.41338673098E+02  0.12008888765E+03  0.99597152210E+02  0.16139956493E+03  0.00000000000E+00 0. -1.
         22    1    3    3    0    0 -0.50447825822E+01 -0.20827826912E+02 -0.13967006163E+02  0.25579786284E+02  0.00000000000E+00 0. -1.
</event>
<event>
 7    1  0.5127424E-006  0.6304889E+02  0.7818608E-02  0.1392767E+00
          2   -1    0    0  502    0  0.00000000000E+00  0.00000000000E+00  0.14962871416E+04  0.14962871416E+04  0.00000000000E+00 0. -1.
          1   -1    0    0  501    0 -0.00000000000E+00 -0.00000000000E+00 -0.54843130862E+02  0.54843130862E+02  0.00000000000E+00 0. -1.
         25    2    1    2    0    0 -0.93734319153E+02  0.56992990212E+02  0.98635629097E+03  0.10002791028E+04  0.12500090891E+03 0.  0.
          2    1    1    2  501    0  0.34506863197E+02 -0.51836167814E+02 -0.24995694871E+02  0.67100645775E+02  0.00000000000E+00 0. -1.
          1    1    1    2  502    0  0.59227455956E+02 -0.51568223986E+01  0.48008341466E+03  0.48375052391E+03  0.00000000000E+00 0. -1.
         22    1    3    3    0    0 -0.68317797333E+02  0.21507014352E+02  0.90605384009E+03  0.90888031898E+03  0.00000000000E+00 0. -1.
         22    1    3    3    0    0 -0.25416521820E+02  0.35485975861E+02  0.80302450884E+02  0.91398783811E+02  0.00000000000E+00 0. -1.
</event>
<event>
 7    1  0.5127424E-006  0.3674029E+02  0.7818608E-02  0.1570310E+00
          2   -1    0    0  502    0  0.00000000000E+00  0.00000000000E+00  0.60981749471E+03  0.60981749471E+03  0.00000000000E+00 0. -1.
          1   -1    0    0  501    0 -0.00000000000E+00 -0.00000000000E+00 -0.16715985963E+04  0.16715985963E+04  0.00000000000E+00 0. -1.
         25    2    1    2    0    0  0.11612992066E+02 -0.14910972939E+02  0.10406676896E+03  0.16374075849E+03  0.12499577950E+03 0.  0.
          2    1    1    2  501    0  0.25704288706E+02  0.13540889434E+02 -0.16409003002E+04  0.16411574761E+04  0.00000000000E+00 0. -1.
          1    1    1    2  502    0 -0.37317280773E+02  0.13700835046E+01  0.47505242965E+03  0.47651785642E+03  0.00000000000E+00 0. -1.
         22    1    3    3    0    0 -0.14653764661E+02 -0.62267152460E+02  0.26727905194E+02  0.69327570347E+02  0.00000000000E+00 0. -1.
         22    1    3    3    0    0  0.26266756728E+02  0.47356179521E+02  0.77338863762E+02  0.94413188145E+02  0.00000000000E+00 0. -1.
</event>
<event>
 7    1  0.5127424E-006  0.1572376E+03  0.7818608E-02  0.1336275E+00
          2   -1    0    0  502    0  0.00000000000E+00  0.00000000000E+00  0.60233571712E+03  0.60233571712E+03  0.00000000000E+00 0. -1.
          1   -1    0    0  501    0 -0.00000000000E+00 -0.00000000000E+00 -0.89201851801E+03  0.89201851801E+03  0.00000000000E+00 0. -1.
         25    2    1    2    0    0 -0.17314094739E+02 -0.18873118596E+03  0.37090240062E+01  0.22706745383E+03  0.12500653304E+03 0.  0.
          2    1    1    2  501    0 -0.87283946371E+00  0.15513091291E+03 -0.77186004324E+03  0.78729555336E+03  0.00000000000E+00 0. -1.
          1    1    1    2  502    0  0.18186934203E+02  0.33600273046E+02  0.47846821835E+03  0.47999122793E+03  0.00000000000E+00 0. -1.
         22    1    3    3    0    0 -0.50683174392E+02 -0.19244838388E+02 -0.17349308430E+01  0.54241662549E+02  0.00000000000E+00 0.  1.
         22    1    3    3    0    0  0.33369079653E+02 -0.16948634757E+03  0.54439548492E+01  0.17282579128E+03  0.00000000000E+00 0.  1.
</event>
<event>
 7    1  0.5127424E-006  0.8327379E+02  0.7818608E-02  0.1349458E+00
          2   -1    0    0  502    0  0.00000000000E+00  0.00000000000E+00  0.21693903645E+04  0.21693903645E+04  0.00000000000E+00 0. -1.
          1   -1    0    0  501    0 -0.00000000000E+00 -0.00000000000E+00 -0.71270088859E+02  0.71270088859E+02  0.00000000000E+00 0. -1.
         25    2    1    2    0    0  0.24661547344E+02  0.65838477338E+01  0.41048641908E+03  0.42985507317E+03  0.12499897882E+03 0.  0.
          2    1    1    2  501    0 -0.71682430462E+02 -0.50571603060E+02 -0.29432812178E+02  0.92531877241E+02  0.00000000000E+00 0. -1.
          1    1    1    2  502    0  0.47020883118E+02  0.43987755326E+02  0.17170666688E+04  0.17182735030E+04  0.00000000000E+00 0. -1.
         22    1    3    3    0    0 -0.20398857426E+02  0.23048518654E+02  0.20619173522E+02  0.37047238942E+02  0.00000000000E+00 0. -1.
         22    1    3    3    0    0  0.45060404770E+02 -0.16464670921E+02  0.38986724556E+03  0.39280783422E+03  0.00000000000E+00 0. -1.
</event>
<event>
 7    1  0.5127424E-006  0.7275701E+02  0.7818608E-02  0.1506486E+00
          2   -1    0    0  502    0  0.00000000000E+00  0.00000000000E+00  0.63224420993E+02  0.63224420993E+02  0.00000000000E+00 0. -1.
          1   -1    0    0  501    0 -0.00000000000E+00 -0.00000000000E+00 -0.46364139285E+03  0.46364139285E+03  0.00000000000E+00 0. -1.
         25    2    1    2    0    0 -0.41330443522E+02 -0.60838065483E+02 -0.11031317521E+03  0.18221490543E+03  0.12499519737E+03 0.  0.
          2    1    1    2  501    0  0.57266448867E+02  0.45309536111E+02 -0.30772328776E+03  0.31626890783E+03  0.00000000000E+00 0. -1.
          1    1    1    2  502    0 -0.15936005345E+02  0.15528529372E+02  0.17619491102E+02  0.28382000590E+02  0.00000000000E+00 0. -1.
         22    1    3    3    0    0  0.55932079751E+01  0.36357683718E+02 -0.22941767054E+02  0.43353083124E+02  0.00000000000E+00 0. -1.
         22    1    3    3    0    0 -0.46923651497E+02 -0.97195749201E+02 -0.87371408151E+02  0.13886182231E+03  0.00000000000E+00 0. -1.
</event>
<event>
 7    1  0.5127424E-006  0.7551423E+02  0.7818608E-02  0.1423463E+00
          2   -1    0    0  502    0  0.00000000000E+00  0.00000000000E+00  0.33429406792E+03  0.33429406792E+03  0.00000000000E+00 0. -1.
          1   -1    0    0  501    0 -0.00000000000E+00 -0.00000000000E+00 -0.42694793513E+03  0.42694793513E+03  0.00000000000E+00 0. -1.
         25    2    1    2    0    0  0.45316635546E+02  0.27834109683E+01 -0.33295521214E+02  0.13709387505E+03  0.12499917603E+03 0.  0.
          2    1    1    2  501    0 -0.71746161833E+02 -0.31514242776E+02 -0.33587206165E+03  0.34489230353E+03  0.00000000000E+00 0. -1.
          1    1    1    2  502    0  0.26429526287E+02  0.28730831807E+02  0.27651371565E+03  0.27925582447E+03  0.00000000000E+00 0. -1.
         22    1    3    3    0    0  0.26444395542E+02 -0.10905723402E+02 -0.79963747443E+02  0.84926095893E+02  0.00000000000E+00 0. -1.
         22    1    3    3    0    0  0.18872240005E+02  0.13689134370E+02  0.46668226229E+02  0.52167779155E+02  0.00000000000E+00 0. -1.
</event>
<event>
 7    1  0.5127424E-006  0.1007689E+03  0.7818608E-02  0.1343537E+00
          2   -1    0    0  502    0  0.00000000000E+00  0.00000000000E+00  0.44543018345E+03  0.44543018345E+03  0.00000000000E+00 0. -1.
          1   -1    0    0  501    0 -0.00000000000E+00 -0.00000000000E+00 -0.79569645684E+03  0.79569645684E+03  0.00000000000E+00 0. -1.
         25    2    1    2    0    0  0.74513430803E+02  0.78326656688E+02 -0.24693008804E+03  0.29713186585E+03  0.12500224320E+03 0.  0.
          2    1    1    2  501    0 -0.22603567921E+02 -0.99286707835E+02 -0.51681120762E+03  0.52674718410E+03  0.00000000000E+00 0. -1.
          1    1    1    2  502    0 -0.51909862882E+02  0.20960051147E+02  0.41347502227E+03  0.41724759034E+03  0.00000000000E+00 0. -1.
         22    1    3    3    0    0  0.69872263040E+02  0.30463367338E+02 -0.23574322838E+03  0.24776000408E+03  0.00000000000E+00 0.  1.
         22    1    3    3    0    0  0.46411677626E+01  0.47863289350E+02 -0.11186859658E+02  0.49371861770E+02  0.00000000000E+00 0.  1.
</event>
<event>
 7    1  0.5127424E-006  0.8695228E+02  0.7818608E-02  0.1372223E+00
          2   -1    0    0  502    0  0.00000000000E+00  0.00000000000E+00  0.12230460766E+04  0.12230460766E+04  0.00000000000E+00 0. -1.
          1   -1    0    0  501    0 -0.00000000000E+00 -0.00000000000E+00 -0.30158873685E+02  0.30158873685E+02  0.00000000000E+00 0. -1.
         25    2    1    2    0    0  0.11309994095E+03 -0.18289132706E+02  0.73843872282E+03  0.75765555088E+03  0.12499638952E+03 0.  0.
          2    1    1    2  501    0 -0.81680209552E+02 -0.21806075637E+02  0.75975254244E+02  0.11366354220E+03  0.00000000000E+00 0. -1.
          1    1    1    2  502    0 -0.31419731401E+02  0.40095208343E+02  0.37847322588E+03  0.38188585724E+03  0.00000000000E+00 0. -1.
         22    1    3    3    0    0  0.81689326633E+02  0.75033441743E+01  0.18082575503E+03  0.19856333987E+03  0.00000000000E+00 0. -1.
         22    1    3    3    0    0  0.31410614320E+02 -0.25792476880E+02  0.55761296779E+03  0.55909221101E+03  0.00000000000E+00 0. -1.
</event>
<event>
 7    1  0.5127424E-006  0.6403698E+02  0.7818608E-02  0.1480961E+00
          2   -1    0    0  502    0  0.00000000000E+00  0.00000000000E+00  0.20856778519E+03  0.20856778519E+03  0.00000000000E+00 0. -1.
          1   -1    0    0  501    0 -0.00000000000E+00 -0.00000000000E+00 -0.13517690000E+03  0.13517690000E+03  0.00000000000E+00 0. -1.
         25    2    1    2    0    0  0.41000121160E+02 -0.80870451842E+01  0.72516160285E+02  0.15043323548E+03  0.12500061839E+03 0.  0.
          2    1    1    2  501    0  0.28817606492E+02 -0.89428658335E+01 -0.79773902363E+02  0.85289535064E+02  0.00000000000E+00 0. -1.
          1    1    1    2  502    0 -0.69817727652E+02  0.17029911018E+02  0.80648627274E+02  0.10802191465E+03  0.00000000000E+00 0. -1.
         22    1    3    3    0    0  0.18264622727E+02 -0.45611222842E+02  0.90531191158E+02  0.10300425557E+03  0.00000000000E+00 0.  1.
         22    1    3    3    0    0  0.22735498432E+02  0.37524177658E+02 -0.18015030873E+02  0.47428979909E+02  0.00000000000E+00 0.  1.
</event>
<event>
 7    1  0.5127424E-006  0.7420763E+02  0.7818608E-02  0.1369707E+00
          2   -1    0    0  502    0  0.00000000000E+00  0.00000000000E+00  0.11573903293E+03  0.11573903293E+03  0.00000000000E+00 0. -1.
          1   -1    0    0  501    0 -0.00000000000E+00 -0.00000000000E+00 -0.40265276228E+03  0.40265276228E+03  0.00000000000E+00 0. -1.
         25    2    1    2    0    0  0.81985164394E+02 -0.80771618768E+02 -0.71147026884E+02  0.18420473585E+03  0.12499545471E+03 0.  0.
          2    1    1    2  501    0 -0.68333681429E+02  0.21377722295E+02 -0.25288823698E+03  0.26282876446E+03  0.00000000000E+00 0. -1.
          1    1    1    2  502    0 -0.13651482965E+02  0.59393896473E+02  0.37121534510E+02  0.71358294891E+02  0.00000000000E+00 0. -1.
         22    1    3    3    0    0  0.20962344921E+01 -0.77634985407E+02 -0.73206450760E+00  0.77666730822E+02  0.00000000000E+00 0.  1.
         22    1    3    3    0    0  0.79888929902E+02 -0.31366333610E+01 -0.70414962377E+02  0.10653800503E+03  0.00000000000E+00 0.  1.
</event>
<event>
 7    1  0.5127424E-006  0.9724852E+02  0.7818608E-02  0.1386034E+00
          2   -1    0    0  502    0  0.00000000000E+00  0.00000000000E+00  0.38728696975E+03  0.38728696975E+03  0.00000000000E+00 0. -1.
          1   -1    0    0  501    0 -0.00000000000E+00 -0.00000000000E+00 -0.14087844484E+04  0.14087844484E+04  0.00000000000E+00 0. -1.
         25    2    1    2    0    0  0.69837923437E+01 -0.57483506067E+02 -0.19064830272E+03  0.23521451457E+03  0.12500386278E+03 0.  0.
          2    1    1    2  501    0  0.90581621511E+00 -0.40678391796E+02 -0.11888562641E+04  0.11895523396E+04  0.00000000000E+00 0. -1.
          1    1    1    2  502    0 -0.78896085588E+01  0.98161897863E+02  0.35800708811E+03  0.37130456400E+03  0.00000000000E+00 0. -1.
         22    1    3    3    0    0  0.52072683719E+02 -0.56615776913E+02 -0.16795003946E+03  0.18472716730E+03  0.00000000000E+00 0. -1.
         22    1    3    3    0    0 -0.45088891375E+02 -0.86772915430E+00 -0.22698263262E+02  0.50487347271E+02  0.00000000000E+00 0. -1.
</event>
<event>
 7    1  0.5127424E-006  0.1139483E+03  0.7818608E-02  0.1275017E+00
          2   -1    0    0  502    0  0.00000000000E+00  0.00000000000E+00  0.23739392028E+03  0.23739392028E+03  0.00000000000E+00 0. -1.
          1   -1    0    0  501    0 -0.00000000000E+00 -0.00000000000E+00 -0.60426973441E+03  0.60426973441E+03  0.00000000000E+00 0. -1.
         25    2    1    2    0    0 -0.88921047809E+02 -0.10886588162E+03 -0.26378952028E+03  0.32398874990E+03  0.12500026450E+03 0.  0.
          2    1    1    2  501    0 -0.32775622496E+01  0.11313687882E+03 -0.28885636995E+03  0.31023974314E+03  0.00000000000E+00 0. -1.
          1    1    1    2  502    0  0.92198610059E+02 -0.42709971997E+01  0.18577007610E+03  0.20743516165E+03  0.00000000000E+00 0. -1.
         22    1    3    3    0    0 -0.75177277724E+02  0.26271113919E+01 -0.93858538049E+02  0.12028279164E+03  0.00000000000E+00 0. -1.
         22    1    3    3    0    0 -0.13743770085E+02 -0.11149299301E+03 -0.16993098224E+03  0.20370595826E+03  0.00000000000E+00 0. -1.
</event>
<event>
 7    1  0.5127424E-006  0.7258075E+02  0.7818608E-02  0.1489674E+00
          2   -1    0    0  502    0  0.00000000000E+00  0.00000000000E+00  0.11231145938E+04  0.11231145938E+04  0.00000000000E+00 0. -1.
          1   -1    0    0  501    0 -0.00000000000E+00 -0.00000000000E+00 -0.25187821735E+03  0.25187821735E+03  0.00000000000E+00 0. -1.
         25    2    1    2    0    0  0.49787503187E+02  0.10185246058E+02 -0.19404261413E+02  0.13631250416E+03  0.12498815432E+03 0.  0.
          2    1    1    2  501    0 -0.74807154172E+02 -0.11283684917E+02 -0.16564200956E+03  0.18210081601E+03  0.00000000000E+00 0. -1.
          1    1    1    2  502    0  0.25019650985E+02  0.10984388592E+01  0.10562826474E+04  0.10565794909E+04  0.00000000000E+00 0. -1.
         22    1    3    3    0    0  0.83555143258E+02  0.25974971136E+02 -0.37110716870E+02  0.95044023468E+02  0.00000000000E+00 0. -1.
         22    1    3    3    0    0 -0.33767640072E+02 -0.15789725078E+02  0.17706455457E+02  0.41268480696E+02  0.00000000000E+00 0. -1.
</event>
<event>
 7    1  0.5127424E-006  0.1088755E+03  0.7818608E-02  0.1405804E+00
          2   -1    0    0  502    0  0.00000000000E+00  0.00000000000E+00  0.11866461617E+04  0.11866461617E+04  0.00000000000E+00 0. -1.
          1   -1    0    0  501    0 -0.00000000000E+00 -0.00000000000E+00 -0.42266378033E+02  0.42266378033E+02  0.00000000000E+00 0. -1.
         25    2    1    2    0    0 -0.38647897535E+02 -0.11075648766E+03  0.35875053980E+03  0.39760190842E+03  0.12499867290E+03 0.  0.
          2    1    1    2  501    0  0.78612910674E+01  0.10673707303E+03  0.10486076306E+03  0.14983451634E+03  0.00000000000E+00 0. -1.
          1    1    1    2  502    0  0.30786606468E+02  0.40194146345E+01  0.68076848076E+03  0.68147611493E+03  0.00000000000E+00 0. -1.
         22    1    3    3    0    0  0.23708220795E+02 -0.10270863508E+03  0.25975461851E+03  0.28032767486E+03  0.00000000000E+00 0. -1.
         22    1    3    3    0    0 -0.62356118331E+02 -0.80478525761E+01  0.98995921286E+02  0.11727423355E+03  0.00000000000E+00 0. -1.
</event>
<event>
 7    1  0.5127424E-006  0.8578320E+02  0.7818608E-02  0.1475370E+00
          2   -1    0    0  502    0  0.00000000000E+00  0.00000000000E+00  0.99831293421E+03  0.99831293421E+03  0.00000000000E+00 0. -1.
          1   -1    0    0  501    0 -0.00000000000E+00 -0.00000000000E+00 -0.96229500025E+03  0.96229500025E+03  0.00000000000E+00 0. -1.
         25    2    1    2    0    0 -0.41450148266E+02  0.80190715552E+02 -0.30705757055E+03  0.34359414094E+03  0.12499566553E+03 0.  0.
          2    1    1    2  501    0  0.18254228672E+02 -0.83522552016E+02 -0.63395926194E+03  0.63969803764E+03  0.00000000000E+00 0. -1.
          1    1    1    2  502    0  0.23195919595E+02  0.33318364646E+01  0.97703476646E+03  0.97731575588E+03  0.00000000000E+00 0. -1.
         22    1    3    3    0    0 -0.78673293981E+02  0.23189287047E+02 -0.12791950487E+03  0.15195601319E+03  0.00000000000E+00 0. -1.
         22    1    3    3    0    0  0.37223145715E+02  0.57001428505E+02 -0.17913806569E+03  0.19163812775E+03  0.00000000000E+00 0. -1.
</event>
<event>
 7    1  0.5127424E-006  0.1866534E+03  0.7818608E-02  0.1325655E+00
          2   -1    0    0  502    0  0.00000000000E+00  0.00000000000E+00  0.13380942929E+04  0.13380942929E+04  0.00000000000E+00 0. -1.
          1   -1    0    0  501    0 -0.00000000000E+00 -0.00000000000E+00 -0.60123565485E+03  0.60123565485E+03  0.00000000000E+00 0. -1.
         25    2    1    2    0    0  0.98743777142E+02 -0.18748259490E+03  0.10248580171E+04  0.10539732048E+04  0.12500201695E+03 0.  0.
          2    1    1    2  501    0 -0.65987469427E+02  0.17423905821E+03 -0.57075838668E+03  0.60039881037E+03  0.00000000000E+00 0. -1.
          1    1    1    2  502    0 -0.32756307715E+02  0.13243536694E+02  0.28275900757E+03  0.28495793255E+03  0.00000000000E+00 0. -1.
         22    1    3    3    0    0  0.10439210514E+03 -0.79807567321E+02  0.43777683517E+03  0.45707276973E+03  0.00000000000E+00 0.  1.
         22    1    3    3    0    0 -0.56483279943E+01 -0.10767502758E+03  0.58708118196E+03  0.59690043507E+03  0.00000000000E+00 0.  1.
</event>
<event>
 7    1  0.5127424E-006  0.3004062E+02  0.7818608E-02  0.1605326E+00
          2   -1    0    0  502    0  0.00000000000E+00  0.00000000000E+00  0.71237216130E+02  0.71237216130E+02  0.00000000000E+00 0. -1.
          1   -1    0    0  501    0 -0.00000000000E+00 -0.00000000000E+00 -0.12714574587E+04  0.12714574587E+04  0.00000000000E+00 0. -1.
         25    2    1    2    0    0 -0.11375238887E+02  0.39567075429E+02 -0.55668704094E+02  0.14287920822E+03  0.12498205474E+03 0.  0.
          2    1    1    2  501    0  0.25513570594E+02 -0.13111944520E+02 -0.11638137363E+04  0.11641672037E+04  0.00000000000E+00 0. -1.
          1    1    1    2  502    0 -0.14138331707E+02 -0.26455130909E+02  0.19262197904E+02  0.35648262832E+02  0.00000000000E+00 0. -1.
         22    1    3    3    0    0 -0.75893890855E+01  0.68826769449E+02  0.10870803428E+02  0.70092063649E+02  0.00000000000E+00 0.  1.
         22    1    3    3    0    0 -0.37858498019E+01 -0.29259694019E+02 -0.66539507522E+02  0.72787144566E+02  0.00000000000E+00 0.  1.
</event>
<event>
 7    1  0.5127424E-006  0.4381507E+02  0.7818608E-02  0.1557040E+00
          2   -1    0    0  502    0  0.00000000000E+00  0.00000000000E+00  0.12885967553E+02  0.12885967553E+02  0.00000000000E+00 0. -1.
          1   -1    0    0  501    0 -0.00000000000E+00 -0.00000000000E+00 -0.10668946332E+04  0.10668946332E+04  0.00000000000E+00 0. -1.
         25    2    1    2    0    0 -0.47385232999E+02 -0.30415123729E+00 -0.80686227292E+03  0.81786118042E+03  0.12499892068E+03 0.  0.
          2    1    1    2  501    0  0.37132150484E+02  0.24727992801E+02 -0.21806916964E+03  0.22258578790E+03  0.00000000000E+00 0. -1.
          1    1    1    2  502    0  0.10253082514E+02 -0.24423841563E+02 -0.29077223099E+02  0.39333632439E+02  0.00000000000E+00 0. -1.
         22    1    3    3    0    0 -0.10132027597E+02  0.19350515113E+02 -0.19223926470E+02  0.29097418567E+02  0.00000000000E+00 0. -1.
         22    1    3    3    0    0 -0.37253205402E+02 -0.19654666350E+02 -0.78763834645E+03  0.78876376186E+03  0.00000000000E+00 0. -1.
</event>
<event>
 7    1  0.5465986E-006  0.4927186E+02  0.7818608E-02  0.1454492E+00
          2   -1    0    0  502    0  0.00000000000E+00  0.00000000000E+00  0.35678652367E+03  0.35678652367E+03  0.00000000000E+00 0. -1.
          1   -1    0    0  501    0 -0.00000000000E+00 -0.00000000000E+00 -0.14445494189E+04  0.14445494189E+04  0.00000000000E+00 0. -1.
         25    2    1    2    0    0  0.90023299358E+02 -0.30915297959E+02 -0.52671854801E+03  0.54965298250E+03  0.12500408907E+03 0.  0.
          2    1    1    2  501    0 -0.41562834306E+02  0.22851667046E+02 -0.90399152965E+03  0.90523497147E+03  0.00000000000E+00 0. -1.
          1    1    1    2  502    0 -0.48460465052E+02  0.80636309123E+01  0.34294718247E+03  0.34644798856E+03  0.00000000000E+00 0. -1.
         22    1    3    3    0    0  0.50380977794E+02  0.22002754401E+02 -0.74295822487E+02  0.92424203344E+02  0.00000000000E+00 0. -1.
         22    1    3    3    0    0  0.39642321563E+02 -0.52918052359E+02 -0.45242272552E+03  0.45722877916E+03  0.00000000000E+00 0. -1.
</event>
<event>
 7    1  0.5127424E-006  0.8262573E+02  0.7818608E-02  0.1375649E+00
          2   -1    0    0  502    0  0.00000000000E+00  0.00000000000E+00  0.20239588481E+03  0.20239588481E+03  0.00000000000E+00 0. -1.
          1   -1    0    0  501    0 -0.00000000000E+00 -0.00000000000E+00 -0.10487822269E+04  0.10487822269E+04  0.00000000000E+00 0. -1.
         25    2    1    2    0    0  0.58525636608E+02  0.66248926879E+02 -0.17693593145E+03  0.23399944984E+03  0.12504098622E+03 0.  0.
          2    1    1    2  501    0 -0.81045866729E+02 -0.19249184112E+02 -0.83729526986E+03  0.84142874477E+03  0.00000000000E+00 0. -1.
          1    1    1    2  502    0  0.22520230121E+02 -0.46999742766E+02  0.16784485923E+03  0.17574991709E+03  0.00000000000E+00 0. -1.
         22    1    3    3    0    0 -0.12210598427E+01 -0.33653390071E+02 -0.22068654618E+02  0.40262478402E+02  0.00000000000E+00 0. -1.
         22    1    3    3    0    0  0.59746696451E+02  0.99902316950E+02 -0.15486727683E+03  0.19373697144E+03  0.00000000000E+00 0. -1.
</event>
<event>
 7    1  0.5127424E-006  0.1328863E+03  0.7818608E-02  0.1275537E+00
          2   -1    0    0  502    0  0.00000000000E+00  0.00000000000E+00  0.14206655378E+04  0.14206655378E+04  0.00000000000E+00 0. -1.
          1   -1    0    0  501    0 -0.00000000000E+00 -0.00000000000E+00 -0.80535833680E+03  0.80535833680E+03  0.00000000000E+00 0. -1.
         25    2    1    2    0    0 -0.14347632286E+03  0.97692580103E+02  0.35418502424E+02  0.21682644651E+03  0.12501976710E+03 0.  0.
          2    1    1    2  501    0  0.66378797287E+02 -0.11374008584E+03 -0.70737394868E+03  0.71952821705E+03  0.00000000000E+00 0. -1.
          1    1    1    2  502    0  0.77097525575E+02  0.16047505734E+02  0.12872626473E+04  0.12896692110E+04  0.00000000000E+00 0. -1.
         22    1    3    3    0    0 -0.26542131881E+02 -0.12703115026E+02  0.47158207610E+02  0.55585523665E+02  0.00000000000E+00 0.  1.
         22    1    3    3    0    0 -0.11693419098E+03  0.11039569513E+03 -0.11739705186E+02  0.16124092285E+03  0.00000000000E+00 0.  1.
</event>
<event>
 7    1  0.5127424E-006  0.6035679E+02  0.7818608E-02  0.1444651E+00
          2   -1    0    0  502    0  0.00000000000E+00  0.00000000000E+00  0.11441022454E+04  0.11441022454E+04  0.00000000000E+00 0. -1.
          1   -1    0    0  501    0 -0.00000000000E+00 -0.00000000000E+00 -0.64999670753E+03  0.64999670753E+03  0.00000000000E+00 0. -1.
         25    2    1    2    0    0 -0.50605818741E+02  0.21284834399E+02  0.21586488816E+03  0.25541378217E+03  0.12499822845E+03 0.  0.
          2    1    1    2  501    0 -0.74918205604E+01 -0.40953541901E+02 -0.62849744149E+03  0.62987487165E+03  0.00000000000E+00 0. -1.
          1    1    1    2  502    0  0.58097639301E+02  0.19668707502E+02  0.90673809118E+03  0.90881029909E+03  0.00000000000E+00 0. -1.
         22    1    3    3    0    0  0.72003913326E+01 -0.13631030441E+02  0.17664921856E+03  0.17732060524E+03  0.00000000000E+00 0.  1.
         22    1    3    3    0    0 -0.57806210074E+02  0.34915864840E+02  0.39215669608E+02  0.78093176932E+02  0.00000000000E+00 0.  1.
</event>
<event>
 7    1  0.5127424E-006  0.9923742E+02  0.7818608E-02  0.1361106E+00
          2   -1    0    0  502    0  0.00000000000E+00  0.00000000000E+00  0.21993935511E+03  0.21993935511E+03  0.00000000000E+00 0. -1.
          1   -1    0    0  501    0 -0.00000000000E+00 -0.00000000000E+00 -0.59177328666E+03  0.59177328666E+03  0.00000000000E+00 0. -1.
         25    2    1    2    0    0  0.64577048940E+02 -0.33638579515E+01 -0.53217212403E+02  0.15046067737E+03  0.12499933180E+03 0.  0.
          2    1    1    2  501    0  0.36591443963E+02  0.32526865385E+02 -0.47237192534E+03  0.47490227057E+03  0.00000000000E+00 0. -1.
          1    1    1    2  502    0 -0.10116849290E+03 -0.29163007433E+02  0.15375520619E+03  0.18634969383E+03  0.00000000000E+00 0. -1.
         22    1    3    3    0    0  0.51956561253E+02  0.43204512071E+01 -0.93775915368E+02  0.10729432818E+03  0.00000000000E+00 0. -1.
         22    1    3    3    0    0  0.12620487687E+02 -0.76843091586E+01  0.40558702965E+02  0.43166349196E+02  0.00000000000E+00 0. -1.
</event>
<event>
 7    1  0.5127424E-006  0.8824518E+02  0.7818608E-02  0.1403257E+00
          2   -1    0    0  502    0  0.00000000000E+00  0.00000000000E+00  0.37027324726E+03  0.37027324726E+03  0.00000000000E+00 0. -1.
          1   -1    0    0  501    0 -0.00000000000E+00 -0.00000000000E+00 -0.15314644580E+03  0.15314644580E+03  0.00000000000E+00 0. -1.
         25    2    1    2    0    0 -0.96104644282E+02  0.61495609226E+02 -0.79963505826E+01  0.16942966531E+03  0.12499862903E+03 0.  0.
          2    1    1    2  501    0  0.13073518928E+02 -0.36829980708E+02 -0.51198859354E+02  0.64410306437E+02  0.00000000000E+00 0. -1.
          1    1    1    2  502    0  0.83031125354E+02 -0.24665628517E+02  0.27632201140E+03  0.28957972131E+03  0.00000000000E+00 0. -1.
         22    1    3    3    0    0 -0.72702130428E+02  0.60742517450E+02  0.49829532520E+02  0.10704314787E+03  0.00000000000E+00 0.  1.
         22    1    3    3    0    0 -0.23402513854E+02  0.75309177620E+00 -0.57825883102E+02  0.62386517441E+02  0.00000000000E+00 0.  1.
</event>
<event>
 7    1  0.5127424E-006  0.5558930E+02  0.7818608E-02  0.1417611E+00
          2   -1    0    0  502    0  0.00000000000E+00  0.00000000000E+00  0.33148091605E+03  0.33148091605E+03  0.00000000000E+00 0. -1.
          1   -1    0    0  501    0 -0.00000000000E+00 -0.00000000000E+00 -0.15489414092E+04  0.15489414092E+04  0.00000000000E+00 0. -1.
         25    2    1    2    0    0 -0.39632295282E+02  0.54541209425E+02 -0.12768900766E+03  0.19098300001E+03  0.12499824503E+03 0.  0.
          2    1    1    2  501    0 -0.15828918021E+02 -0.53548670179E+02 -0.13864730651E+04  0.13875970507E+04  0.00000000000E+00 0. -1.
          1    1    1    2  502    0  0.55461213304E+02 -0.99253924575E+00  0.29670157967E+03  0.30184227453E+03  0.00000000000E+00 0. -1.
         22    1    3    3    0    0 -0.40952038862E+02 -0.14417401810E+02  0.26749392745E+01  0.43498117913E+02  0.00000000000E+00 0.  1.
         22    1    3    3    0    0  0.13197435793E+01  0.68958611235E+02 -0.13036394694E+03  0.14748488210E+03  0.00000000000E+00 0.  1.
</event>
<event>
 7    1  0.5127424E-006  0.4224668E+02  0.7818608E-02  0.1597520E+00
          2   -1    0    0  502    0  0.00000000000E+00  0.00000000000E+00  0.41449554569E+03  0.41449554569E+03  0.00000000000E+00 0. -1.
          1   -1    0    0  501    0 -0.00000000000E+00 -0.00000000000E+00 -0.17332905986E+03  0.17332905986E+03  0.00000000000E+00 0. -1.
         25    2    1    2    0    0  0.83936179950E+00 -0.55660587604E+02  0.13883682918E+03  0.19493421006E+03  0.12499950229E+03 0.  0.
          2    1    1    2  501    0 -0.13953680804E+02  0.16194306406E+02 -0.14273253013E+03  0.14432441209E+03  0.00000000000E+00 0. -1.
          1    1    1    2  502    0  0.13114319004E+02  0.39466281198E+02  0.24506218678E+03  0.24856598340E+03  0.00000000000E+00 0. -1.
         22    1    3    3    0    0  0.11559634831E+02 -0.66230054505E+02  0.15732720022E+03  0.17109030716E+03  0.00000000000E+00 0.  1.
         22    1    3    3    0    0 -0.10720273031E+02  0.10569466901E+02 -0.18490371034E+02  0.23843902898E+02  0.00000000000E+00 0.  1.
</event>
<event>
 7    1  0.5127424E-006  0.6029089E+02  0.7818608E-02  0.1545899E+00
          2   -1    0    0  502    0  0.00000000000E+00  0.00000000000E+00  0.28905266781E+03  0.28905266781E+03  0.00000000000E+00 0. -1.
          1   -1    0    0  501    0 -0.00000000000E+00 -0.00000000000E+00 -0.29806524449E+03  0.29806524449E+03  0.00000000000E+00 0. -1.
         25    2    1    2    0    0  0.49117983800E+02 -0.19455141572E+02  0.10150811888E+03  0.16947980440E+03  0.12501370738E+03 0.  0.
          2    1    1    2  501    0 -0.60518668102E+02  0.22073873680E+01 -0.25988609305E+03  0.26684857712E+03  0.00000000000E+00 0. -1.
          1    1    1    2  502    0  0.11400684301E+02  0.17247754204E+02  0.14936539749E+03  0.15078953079E+03  0.00000000000E+00 0. -1.
         22    1    3    3    0    0  0.97710214943E+01  0.24840844047E+02 -0.20625768023E+02  0.33733702740E+02  0.00000000000E+00 0.  1.
         22    1    3    3    0    0  0.39346962306E+02 -0.44295985620E+02  0.12213388691E+03  0.13574610166E+03  0.00000000000E+00 0.  1.
</event>
<event>
 7    1  0.5127424E-006  0.1019034E+03  0.7818608E-02  0.1400670E+00
          2   -1    0    0  502    0  0.00000000000E+00  0.00000000000E+00  0.67486639206E+03  0.67486639206E+03  0.00000000000E+00 0. -1.
          1   -1    0    0  501    0 -0.00000000000E+00 -0.00000000000E+00 -0.13721743385E+04  0.13721743385E+04  0.00000000000E+00 0. -1.
         25    2    1    2    0    0 -0.30418045762E+02 -0.12754741800E+03  0.21727848461E+03  0.28288813168E+03  0.12498861478E+03 0.  0.
          2    1    1    2  501    0  0.38737611263E+02  0.94022712665E+02 -0.13367329211E+04  0.13405953063E+04  0.00000000000E+00 0. -1.
          1    1    1    2  502    0 -0.83195655012E+01  0.33524705337E+02  0.42214649003E+03  0.42355729256E+03  0.00000000000E+00 0. -1.
         22    1    3    3    0    0  0.25831862545E+02 -0.65479441056E+02  0.27729389860E+02  0.75655544315E+02  0.00000000000E+00 0.  1.
         22    1    3    3    0    0 -0.56249908306E+02 -0.62067976946E+02  0.18954909475E+03  0.20723258737E+03  0.00000000000E+00 0.  1.
</event>
<event>
 7    1  0.5127424E-006  0.3840758E+02  0.7818608E-02  0.1543699E+00
          2   -1    0    0  502    0  0.00000000000E+00  0.00000000000E+00  0.12049792197E+03  0.12049792197E+03  0.00000000000E+00 0. -1.
          1   -1    0    0  501    0 -0.00000000000E+00 -0.00000000000E+00 -0.32308861071E+03  0.32308861071E+03  0.00000000000E+00 0. -1.
         25    2    1    2    0    0  0.38805012822E+01  0.10303584136E+02 -0.21792368343E+03  0.25146956707E+03  0.12499995690E+03 0.  0.
          2    1    1    2  501    0 -0.41389055484E+02 -0.20421830779E+01 -0.79582485825E+02  0.89725116192E+02  0.00000000000E+00 0. -1.
          1    1    1    2  502    0  0.37508554202E+02 -0.82614010584E+01  0.94915480517E+02  0.10239184942E+03  0.00000000000E+00 0. -1.
         22    1    3    3    0    0 -0.15509038447E+02 -0.36978652056E+02 -0.18804400129E+03  0.19227193608E+03  0.00000000000E+00 0. -1.
         22    1    3    3    0    0  0.19389539729E+02  0.47282236192E+02 -0.29879682140E+02  0.59197630992E+02  0.00000000000E+00 0. -1.
</event>
<event>
 7    1  0.5488172E-006  0.1406826E+03  0.7818608E-02  0.1274318E+00
          2   -1    0    0  502    0  0.00000000000E+00  0.00000000000E+00  0.16094594954E+04  0.16094594954E+04  0.00000000000E+00 0. -1.
          1   -1    0    0  501    0 -0.00000000000E+00 -0.00000000000E+00 -0.66905193236E+03  0.66905193236E+03  0.00000000000E+00 0. -1.
         25    2    1    2    0    0  0.82967925683E+00 -0.66773367602E+02 -0.30046417490E+03  0.33220937877E+03  0.12499991983E+03 0.  0.
          2    1    1    2  501    0  0.14921732726E+02 -0.73767380660E+02 -0.34551871470E+03  0.35362051237E+03  0.00000000000E+00 0. -1.
          1    1    1    2  502    0 -0.15751411983E+02  0.14054074826E+03  0.15863904527E+04  0.15926815367E+04  0.00000000000E+00 0. -1.
         22    1    3    3    0    0  0.19718499114E+01  0.11575954799E+02 -0.21850267789E+03  0.21881798639E+03  0.00000000000E+00 0.  1.
         22    1    3    3    0    0 -0.11421706545E+01 -0.78349322401E+02 -0.81961497001E+02  0.11339139238E+03  0.00000000000E+00 0.  1.
</event>
<event>
 7    1  0.5127424E-006  0.4965878E+02  0.7818608E-02  0.1482418E+00
          2   -1    0    0  502    0  0.00000000000E+00  0.00000000000E+00  0.15433286424E+04  0.15433286424E+04  0.00000000000E+00 0. -1.
          1   -1    0    0  501    0 -0.00000000000E+00 -0.00000000000E+00 -0.11786124624E+03  0.11786124624E+03  0.00000000000E+00 0. -1.
         25    2    1    2    0    0 -0.24010371606E+02 -0.99926289146E+01  0.35071005136E+03  0.37322773347E+03  0.12500020130E+03 0.  0.
          2    1    1    2  501    0  0.15836791584E+02  0.47627461739E+02 -0.10036153033E+03  0.11221236941E+03  0.00000000000E+00 0. -1.
          1    1    1    2  502    0  0.81735800223E+01 -0.37634832824E+02  0.11751188751E+04  0.11757497858E+04  0.00000000000E+00 0. -1.
         22    1    3    3    0    0  0.94227913431E+00  0.46683480533E+02  0.60173060325E+02  0.76164509016E+02  0.00000000000E+00 0.  1.
         22    1    3    3    0    0 -0.24952650740E+02 -0.56676109448E+02  0.29053699104E+03  0.29706322445E+03  0.00000000000E+00 0.  1.
</event>
<event>
 7    1  0.5127424E-006  0.1638606E+03  0.7818608E-02  0.1242896E+00
          2   -1    0    0  502    0  0.00000000000E+00  0.00000000000E+00  0.79064309625E+03  0.79064309625E+03  0.00000000000E+00 0. -1.
          1   -1    0    0  501    0 -0.00000000000E+00 -0.00000000000E+00 -0.10216201463E+04  0.10216201463E+04  0.00000000000E+00 0. -1.
         25    2    1    2    0    0  0.95031519851E+02  0.96771275734E+01  0.20388786264E+02  0.15864041853E+03  0.12500577276E+03 0.  0.
          2    1    1    2  501    0 -0.15178681498E+03 -0.77005627456E+02 -0.94207312988E+03  0.95732485913E+03  0.00000000000E+00 0. -1.
          1    1    1    2  502    0  0.56755295127E+02  0.67328499883E+02  0.69070729361E+03  0.69629796485E+03  0.00000000000E+00 0. -1.
         22    1    3    3    0    0  0.85453989390E+02 -0.42873096130E+02 -0.11712559975E+02  0.96320666192E+02  0.00000000000E+00 0.  1.
         22    1    3    3    0    0  0.95775304606E+01  0.52550223703E+02  0.32101346238E+02  0.62319752336E+02  0.00000000000E+00 0.  1.
</event>
<event>
 7    1  0.5127424E-006  0.1219230E+03  0.7818608E-02  0.1264059E+00
          2   -1    0    0  502    0  0.00000000000E+00  0.00000000000E+00  0.88847956810E+03  0.88847956810E+03  0.00000000000E+00 0. -1.
          1   -1    0    0  501    0 -0.00000000000E+00 -0.00000000000E+00 -0.47002454801E+03  0.47002454801E+03  0.00000000000E+00 0. -1.
         25    2    1    2    0    0  0.12929551628E+03  0.37193375025E+02 -0.85136214342E+02  0.20241926332E+03  0.12499882198E+03 0.  0.
          2    1    1    2  501    0 -0.67099443087E+02  0.68530256257E+02 -0.31452556111E+03  0.32882375200E+03  0.00000000000E+00 0. -1.
          1    1    1    2  502    0 -0.62196073197E+02 -0.10572363128E+03  0.81811679554E+03  0.82726110079E+03  0.00000000000E+00 0. -1.
         22    1    3    3    0    0  0.37627131999E+02  0.56651510297E+02  0.10163391047E+02  0.68764010928E+02  0.00000000000E+00 0. -1.
         22    1    3    3    0    0  0.91668384286E+02 -0.19458135273E+02 -0.95299605388E+02  0.13365525240E+03  0.00000000000E+00 0. -1.
</event>
<event>
 7    1  0.5127424E-006  0.9112213E+02  0.7818608E-02  0.1324092E+00
          2   -1    0    0  502    0  0.00000000000E+00  0.00000000000E+00  0.26187608797E+03  0.26187608797E+03  0.00000000000E+00 0. -1.
          1   -1    0    0  501    0 -0.00000000000E+00 -0.00000000000E+00 -0.43331165738E+03  0.43331165738E+03  0.00000000000E+00 0. -1.
         25    2    1    2    0    0  0.66444291639E+02  0.56022518802E+01 -0.38921186344E+02  0.14693575998E+03  0.12501611775E+03 0.  0.
          2    1    1    2  501    0 -0.69611462870E+02  0.67713791193E+02 -0.32661264176E+03  0.34074437785E+03  0.00000000000E+00 0. -1.
          1    1    1    2  502    0  0.31671712308E+01 -0.73316043073E+02  0.19409825870E+03  0.20750760751E+03  0.00000000000E+00 0. -1.
         22    1    3    3    0    0  0.25188559687E+02 -0.50301377361E+02 -0.51569035610E+02  0.76315513084E+02  0.00000000000E+00 0.  1.
         22    1    3    3    0    0  0.41255731952E+02  0.55903629241E+02  0.12647849265E+02  0.70620246900E+02  0.00000000000E+00 0.  1.
</event>
<event>
 7    1  0.5701701E-006  0.5545030E+02  0.7818608E-02  0.1427287E+00
          2   -1    0    0  502    0  0.00000000000E+00  0.00000000000E+00  0.24856138360E+04  0.24856138360E+04  0.00000000000E+00 0. -1.
          1   -1    0    0  501    0 -0.00000000000E+00 -0.00000000000E+00 -0.94341859870E+03  0.94341859870E+03  0.00000000000E+00 0. -1.
         25    2    1    2    0    0  0.54089339727E+01  0.10652608699E+03 -0.75171548220E+01  0.16449437792E+03  0.12499931590E+03 0.  0.
          2    1    1    2  501    0  0.91245564375E+00 -0.51626649566E+02 -0.85631788792E+03  0.85787322414E+03  0.00000000000E+00 0. -1.
          1    1    1    2  502    0 -0.63213896164E+01 -0.54899437426E+02  0.24060302800E+04  0.24066648326E+04  0.00000000000E+00 0. -1.
         22    1    3    3    0    0  0.18309317434E+02  0.12952106199E+03  0.12479563252E+02  0.13140272487E+03  0.00000000000E+00 0.  1.
         22    1    3    3    0    0 -0.12900383461E+02 -0.22994974995E+02 -0.19996718074E+02  0.33091653059E+02  0.00000000000E+00 0.  1.
</event>
<event>
 7    1  0.5127424E-006  0.9727889E+02  0.7818608E-02  0.1352034E+00
          2   -1    0    0  502    0  0.00000000000E+00  0.00000000000E+00  0.19732630904E+03  0.19732630904E+03  0.00000000000E+00 0. -1.
          1   -1    0    0  501    0 -0.00000000000E+00 -0.00000000000E+00 -0.65728806277E+03  0.65728806277E+03  0.00000000000E+00 0. -1.
         25    2    1    2    0    0 -0.14746823135E+02 -0.44730555558E+02 -0.45332602555E+03  0.47259752064E+03  0.12500255869E+03 0.  0.
          2    1    1    2  501    0 -0.36522491838E+02 -0.39669635657E+02 -0.17703817904E+03  0.18506779634E+03  0.00000000000E+00 0. -1.
          1    1    1    2  502    0  0.51269314973E+02  0.84400191215E+02  0.17040245087E+03  0.19694905483E+03  0.00000000000E+00 0. -1.
         22    1    3    3    0    0 -0.49488888281E+02  0.50326250602E+01 -0.78811126604E+02  0.93196947669E+02  0.00000000000E+00 0. -1.
         22    1    3    3    0    0  0.34742065146E+02 -0.49763180618E+02 -0.37451489895E+03  0.37940057297E+03  0.00000000000E+00 0. -1.
</event>
<event>
 7    1  0.5127424E-006  0.4302482E+02  0.7818608E-02  0.1525886E+00
          2   -1    0    0  502    0  0.00000000000E+00  0.00000000000E+00  0.52046538359E+03  0.52046538359E+03  0.00000000000E+00 0. -1.
          1   -1    0    0  501    0 -0.00000000000E+00 -0.00000000000E+00 -0.13036607824E+03  0.13036607824E+03  0.00000000000E+00 0. -1.
         25    2    1    2    0    0 -0.64681091309E+02  0.32690935108E+02  0.41797807064E+02  0.15041298782E+03  0.12499867767E+03 0.  0.
          2    1    1    2  501    0  0.32685306918E+02 -0.47381938098E+01 -0.71349262037E+02  0.78622496540E+02  0.00000000000E+00 0. -1.
          1    1    1    2  502    0  0.31995784391E+02 -0.27952741298E+02  0.41965076033E+03  0.42179597747E+03  0.00000000000E+00 0. -1.
         22    1    3    3    0    0 -0.54520735611E+02  0.79302824990E+02  0.34044003813E+02  0.10208057043E+03  0.00000000000E+00 0. -1.
         22    1    3    3    0    0 -0.10160355698E+02 -0.46611889882E+02  0.77538032509E+01  0.48332417394E+02  0.00000000000E+00 0. -1.
</event>
<event>
 7    1  0.5127424E-006  0.1066944E+03  0.7818608E-02  0.1299661E+00
          2   -1    0    0  502    0  0.00000000000E+00  0.00000000000E+00  0.76432483125E+03  0.76432483125E+03  0.00000000000E+00 0. -1.
          1   -1    0    0  501    0 -0.00000000000E+00 -0.00000000000E+00 -0.68743216215E+03  0.68743216215E+03  0.00000000000E+00 0. -1.
         25    2    1    2    0    0 -0.52937884455E+02 -0.14094137049E+03 -0.75955034696E+02  0.20990518821E+03  0.12499652480E+03 0.  0.
          2    1    1    2  501    0 -0.15699427820E+02  0.10351188809E+03 -0.53724174040E+03  0.54734803429E+03  0.00000000000E+00 0. -1.
          1    1    1    2  502    0  0.68637312275E+02  0.37429482402E+02  0.69008944421E+03  0.69450377090E+03  0.00000000000E+00 0. -1.
         22    1    3    3    0    0 -0.79588607073E+01 -0.12478346042E+03 -0.96438904895E+02  0.15790730774E+03  0.00000000000E+00 0.  1.
         22    1    3    3    0    0 -0.44979023747E+02 -0.16157910069E+02  0.20483870199E+02  0.51997880470E+02  0.00000000000E+00 0.  1.
</event>
<event>
 7    1  0.5127424E-006  0.5027827E+02  0.7818608E-02  0.1473321E+00
          2   -1    0    0  502    0  0.00000000000E+00  0.00000000000E+00  0.64248716967E+03  0.64248716967E+03  0.00000000000E+00 0. -1.
          1   -1    0    0  501    0 -0.00000000000E+00 -0.00000000000E+00 -0.38637660276E+03  0.38637660276E+03  0.00000000000E+00 0. -1.
         25    2    1    2    0    0  0.53402041241E+01  0.60585184380E+02 -0.14214083340E+03  0.19880352548E+03  0.12497896974E+03 0.  0.
          2    1    1    2  501    0 -0.35228788172E+02 -0.20120451224E+02 -0.21295605233E+03  0.21678602422E+03  0.00000000000E+00 0. -1.
          1    1    1    2  502    0  0.29888584048E+02 -0.40464733156E+02  0.61120745265E+03  0.61327422272E+03  0.00000000000E+00 0. -1.
         22    1    3    3    0    0 -0.40160292483E+02  0.79667755717E+02 -0.83874452154E+02  0.12245294654E+03  0.00000000000E+00 0.  1.
         22    1    3    3    0    0  0.45500496608E+02 -0.19082571337E+02 -0.58266381249E+02  0.76350578938E+02  0.00000000000E+00 0.  1.
</event>
<event>
 7    1  0.5127424E-006  0.6434050E+02  0.7818608E-02  0.1505520E+00
          2   -1    0    0  502    0  0.00000000000E+00  0.00000000000E+00  0.67430298006E+03  0.67430298006E+03  0.00000000000E+00 0. -1.
          1   -1    0    0  501    0 -0.00000000000E+00 -0.00000000000E+00 -0.34156223787E+02  0.34156223787E+02  0.00000000000E+00 0. -1.
         25    2    1    2    0    0  0.36203039118E+02  0.46122988230E+02  0.14645460987E+03  0.20127728871E+03  0.12500241643E+03 0.  0.
          2    1    1    2  501    0 -0.19005893846E+02  0.16740908739E+02  0.31510129922E+02  0.40427346116E+02  0.00000000000E+00 0. -1.
          1    1    1    2  502    0 -0.17197145272E+02 -0.62863896969E+02  0.46218201647E+03  0.46675456902E+03  0.00000000000E+00 0. -1.
         22    1    3    3    0    0 -0.26701630391E+02 -0.21757143966E+02  0.80721308554E+02  0.87762634610E+02  0.00000000000E+00 0. -1.
         22    1    3    3    0    0  0.62904669509E+02  0.67880132196E+02  0.65733301320E+02  0.11351465410E+03  0.00000000000E+00 0. -1.
</event>
<event>
 7    1  0.5127424E-006  0.1249934E+03  0.7818608E-02  0.1398865E+00
          2   -1    0    0  502    0  0.00000000000E+00  0.00000000000E+00  0.55408825764E+02  0.55408825764E+02  0.00000000000E+00 0. -1.
          1   -1    0    0  501    0 -0.00000000000E+00 -0.00000000000E+00 -0.12045844495E+04  0.12045844495E+04  0.00000000000E+00 0. -1.
         25    2    1    2    0    0  0.11374345139E+03 -0.21915551902E+02 -0.29408094596E+03  0.33987580986E+03  0.12495638920E+03 0.  0.
          2    1    1    2  501    0  0.15722388490E+02  0.23850371460E+02 -0.75734263078E+03  0.75788118734E+03  0.00000000000E+00 0. -1.
          1    1    1    2  502    0 -0.12946583988E+03 -0.19348195583E+01 -0.97752046946E+02  0.16223627802E+03  0.00000000000E+00 0. -1.
         22    1    3    3    0    0  0.69512911872E+02 -0.41843989086E+02 -0.60234556734E+02  0.10105031501E+03  0.00000000000E+00 0. -1.
         22    1    3    3    0    0  0.44230539520E+02  0.19928437184E+02 -0.23384638923E+03  0.23882549485E+03  0.00000000000E+00 0. -1.
</event>
<event>
 7    1  0.5127424E-006  0.7064542E+02  0.7818608E-02  0.1360459E+00
          2   -1    0    0  502    0  0.00000000000E+00  0.00000000000E+00  0.59435140316E+03  0.59435140316E+03  0.00000000000E+00 0. -1.
          1   -1    0    0  501    0 -0.00000000000E+00 -0.00000000000E+00 -0.91526672220E+02  0.91526672220E+02  0.00000000000E+00 0. -1.
         25    2    1    2    0    0 -0.31615977746E+02 -0.18527740704E+02  0.16193045922E+03  0.20781963828E+03  0.12499872481E+03 0.  0.
          2    1    1    2  501    0 -0.37660279309E+02  0.57992060901E+02 -0.45989686527E+02  0.83044729104E+02  0.00000000000E+00 0. -1.
          1    1    1    2  502    0  0.69276257055E+02 -0.39464320197E+02  0.38688395824E+03  0.39501370800E+03  0.00000000000E+00 0. -1.
         22    1    3    3    0    0 -0.23472934229E+02 -0.75949198271E+01 -0.15975730195E+02  0.29391927527E+02  0.00000000000E+00 0. -1.
         22    1    3    3    0    0 -0.81430435175E+01 -0.10932820877E+02  0.17790618942E+03  0.17842771075E+03  0.00000000000E+00 0. -1.
</event>
<event>
 7    1  0.5127424E-006  0.3816127E+02  0.7818608E-02  0.1528920E+00
          2   -1    0    0  502    0  0.00000000000E+00  0.00000000000E+00  0.21130247140E+03  0.21130247140E+03  0.00000000000E+00 0. -1.
          1   -1    0    0  501    0 -0.00000000000E+00 -0.00000000000E+00 -0.45837441398E+03  0.45837441398E+03  0.00000000000E+00 0. -1.
         25    2    1    2    0    0 -0.53080068007E+02  0.10493082643E+02 -0.94929496594E+01  0.13653903701E+03  0.12500077653E+03 0.  0.
          2    1    1    2  501    0  0.20494463201E+02 -0.30197869886E+02 -0.38202109211E+03  0.38376040596E+03  0.00000000000E+00 0. -1.
          1    1    1    2  502    0  0.32585604806E+02  0.19704787243E+02  0.14444209919E+03  0.14937744241E+03  0.00000000000E+00 0. -1.
         22    1    3    3    0    0  0.40977830297E+02  0.64731219103E+01 -0.87180795967E+01  0.42392084107E+02  0.00000000000E+00 0. -1.
         22    1    3    3    0    0 -0.94057898304E+02  0.40199607325E+01 -0.77487006266E+00  0.94146952905E+02  0.00000000000E+00 0. -1.
</event>
<event>
 7    1  0.5127424E-006  0.8853183E+02  0.7818608E-02  0.1316728E+00
          2   -1    0    0  502    0  0.00000000000E+00  0.00000000000E+00  0.11502636752E+04  0.11502636752E+04  0.00000000000E+00 0. -1.
          1   -1    0    0  501    0 -0.00000000000E+00 -0.00000000000E+00 -0.16761429191E+03  0.16761429191E+03  0.00000000000E+00 0. -1.
         25    2    1    2    0    0 -0.19573158634E+02 -0.19698125540E+01  0.12202284477E+03  0.17578840085E+03  0.12499999411E+03 0.  0.
          2    1    1    2  501    0  0.86510713292E+02 -0.43042575427E+02 -0.12229617484E+03  0.15586250734E+03  0.00000000000E+00 0. -1.
          1    1    1    2  502    0 -0.66937554657E+02  0.45012387981E+02  0.98292271332E+03  0.98622705887E+03  0.00000000000E+00 0. -1.
         22    1    3    3    0    0 -0.38450153016E+02  0.51408251484E+02  0.90590095306E+02  0.11103057216E+03  0.00000000000E+00 0. -1.
         22    1    3    3    0    0  0.18876994381E+02 -0.53378064038E+02  0.31432749463E+02  0.64757828686E+02  0.00000000000E+00 0. -1.
</event>
<event>
 7    1  0.5127424E-006  0.5152674E+02  0.7818608E-02  0.1559568E+00
          2   -1    0    0  502    0  0.00000000000E+00  0.00000000000E+00  0.11411488404E+03  0.11411488404E+03  0.00000000000E+00 0. -1.
          1   -1    0    0  501    0 -0.00000000000E+00 -0.00000000000E+00 -0.50744786635E+03  0.50744786635E+03  0.00000000000E+00 0. -1.
         25    2    1    2    0    0 -0.27400167054E+02 -0.53307563805E+02 -0.71244485371E+02  0.15586481826E+03  0.12500239743E+03 0.  0.
          2    1    1    2  501    0 -0.10836335944E+02  0.19335868342E+02 -0.38442489224E+03  0.38506337109E+03  0.00000000000E+00 0. -1.
          1    1    1    2  502    0  0.38236502998E+02  0.33971695463E+02  0.62336395306E+02  0.80634561038E+02  0.00000000000E+00 0. -1.
         22    1    3    3    0    0  0.50066399610E+02 -0.20675702817E+02 -0.22167588172E+02  0.58528036207E+02  0.00000000000E+00 0.  1.
         22    1    3    3    0    0 -0.77466566664E+02 -0.32631860988E+02 -0.49076897199E+02  0.97336782056E+02  0.00000000000E+00 0.  1.
</event>
<event>
 7    1  0.5127424E-006  0.8775162E+02  0.7818608E-02  0.1382185E+00
          2   -1    0    0  502    0  0.00000000000E+00  0.00000000000E+00  0.27271276281E+02  0.27271276281E+02  0.00000000000E+00 0. -1.
          1   -1    0    0  501    0 -0.00000000000E+00 -0.00000000000E+00 -0.18488226792E+04  0.18488226792E+04  0.00000000000E+00 0. -1.
         25    2    1    2    0    0  0.73207264002E+02 -0.10126243845E+03 -0.76377388844E+03  0.78396293663E+03  0.12503578848E+03 0.  0.
          2    1    1    2  501    0 -0.59064032305E+02  0.56943433789E+02 -0.10385622675E+04  0.10417978201E+04  0.00000000000E+00 0. -1.
          1    1    1    2  502    0 -0.14143231697E+02  0.44319004656E+02 -0.19215246974E+02  0.50333198714E+02  0.00000000000E+00 0. -1.
         22    1    3    3    0    0  0.91269523118E+02 -0.58333129735E+02 -0.32178241334E+03  0.33952437528E+03  0.00000000000E+00 0. -1.
         22    1    3    3    0    0 -0.18062259115E+02 -0.42929308710E+02 -0.44199147511E+03  0.44443856135E+03  0.00000000000E+00 0. -1.
</event>
<event>
 7    1  0.5127424E-006  0.7050522E+02  0.7818608E-02  0.1422808E+00
          2   -1    0    0  502    0  0.00000000000E+00  0.00000000000E+00  0.18412145299E+03  0.18412145299E+03  0.00000000000E+00 0. -1.
          1   -1    0    0  501    0 -0.00000000000E+00 -0.00000000000E+00 -0.19666352667E+03  0.19666352667E+03  0.00000000000E+00 0. -1.
         25    2    1    2    0    0  0.67618820070E+02  0.47599480047E+02  0.41034965703E+02  0.15539188871E+03  0.12499902134E+03 0.  0.
          2    1    1    2  501    0 -0.70108520432E+02 -0.56515564411E+01 -0.12447775540E+03  0.14297501991E+03  0.00000000000E+00 0. -1.
          1    1    1    2  502    0  0.24897003618E+01 -0.41947923606E+02  0.70900716022E+02  0.82418071047E+02  0.00000000000E+00 0. -1.
         22    1    3    3    0    0 -0.17995837320E+02 -0.17905568379E+02  0.40252755135E+02  0.47589324810E+02  0.00000000000E+00 0. -1.
         22    1    3    3    0    0  0.85614657390E+02  0.65505048426E+02  0.78221056745E+00  0.10780256390E+03  0.00000000000E+00 0. -1.
</event>
<event>
 7    1  0.5127424E-006  0.1534704E+03  0.7818608E-02  0.1229748E+00
          2   -1    0    0  502    0  0.00000000000E+00  0.00000000000E+00  0.14290601367E+03  0.14290601367E+03  0.00000000000E+00 0. -1.
          1   -1    0    0  501    0 -0.00000000000E+00 -0.00000000000E+00 -0.79086430275E+03  0.79086430275E+03  0.00000000000E+00 0. -1.
         25    2    1    2    0    0 -0.20831052049E+02 -0.25367308496E+02 -0.93321315442E+02  0.15940899982E+03  0.12499971295E+03 0.  0.
          2    1    1    2  501    0  0.12267166100E+03 -0.92221573136E+02 -0.59432403624E+03  0.61381936677E+03  0.00000000000E+00 0. -1.
          1    1    1    2  502    0 -0.10184060895E+03  0.11758888163E+03  0.39687062604E+02  0.16054194982E+03  0.00000000000E+00 0. -1.
         22    1    3    3    0    0  0.32956254328E+02 -0.53269614752E+02 -0.71373244846E+02  0.94962659161E+02  0.00000000000E+00 0. -1.
         22    1    3    3    0    0 -0.53787306377E+02  0.27902306256E+02 -0.21948070596E+02  0.64446340661E+02  0.00000000000E+00 0. -1.
</event>
<event>
 7    1  0.5127424E-006  0.4492130E+02  0.7818608E-02  0.1503487E+00
          2   -1    0    0  502    0  0.00000000000E+00  0.00000000000E+00  0.82172016398E+03  0.82172016398E+03  0.00000000000E+00 0. -1.
          1   -1    0    0  501    0 -0.00000000000E+00 -0.00000000000E+00 -0.50001406058E+03  0.50001406058E+03  0.00000000000E+00 0. -1.
         25    2    1    2    0    0 -0.67796632548E+02  0.44743269836E+02  0.31655818690E+02  0.15239902832E+03  0.12500011758E+03 0.  0.
          2    1    1    2  501    0  0.29767521263E+02 -0.21608642644E+02 -0.43819229405E+03  0.43973347078E+03  0.00000000000E+00 0. -1.
          1    1    1    2  502    0  0.38029111285E+02 -0.23134627193E+02  0.72824257876E+03  0.72960172547E+03  0.00000000000E+00 0. -1.
         22    1    3    3    0    0 -0.41569041314E+02  0.42205811634E+02  0.78684525516E+02  0.98491473170E+02  0.00000000000E+00 0.  1.
         22    1    3    3    0    0 -0.26227591234E+02  0.25374582026E+01 -0.47028706827E+02  0.53907555146E+02  0.00000000000E+00 0.  1.
</event>
<event>
 7    1  0.5127424E-006  0.9755937E+02  0.7818608E-02  0.1337881E+00
          2   -1    0    0  502    0  0.00000000000E+00  0.00000000000E+00  0.75976933515E+03  0.75976933515E+03  0.00000000000E+00 0. -1.
          1   -1    0    0  501    0 -0.00000000000E+00 -0.00000000000E+00 -0.92974435621E+02  0.92974435621E+02  0.00000000000E+00 0. -1.
         25    2    1    2    0    0  0.33586464430E+02 -0.88608787101E+02  0.40908766162E+03  0.43812821768E+03  0.12499620992E+03 0.  0.
          2    1    1    2  501    0  0.53624832959E+02  0.28491300140E+02 -0.56555745681E+02  0.82981499523E+02  0.00000000000E+00 0. -1.
          1    1    1    2  502    0 -0.87211297389E+02  0.60117486961E+02  0.31426298358E+03  0.33163405356E+03  0.00000000000E+00 0. -1.
         22    1    3    3    0    0  0.65319731621E+02 -0.25586933261E+02  0.10727189316E+03  0.12817416882E+03  0.00000000000E+00 0. -1.
         22    1    3    3    0    0 -0.31733267191E+02 -0.63021853840E+02  0.30181576847E+03  0.30995404886E+03  0.00000000000E+00 0. -1.
</event>
<event>
 7    1  0.5127424E-006  0.1104647E+03  0.7818608E-02  0.1291063E+00
          2   -1    0    0  502    0  0.00000000000E+00  0.00000000000E+00  0.31759326499E+04  0.31759326499E+04  0.00000000000E+00 0. -1.
          1   -1    0    0  501    0 -0.00000000000E+00 -0.00000000000E+00 -0.44103728506E+02  0.44103728506E+02  0.00000000000E+00 0. -1.
         25    2    1    2    0    0 -0.13472840441E+03 -0.79724070902E+01  0.54752858647E+03  0.57760424346E+03  0.12499522726E+03 0.  0.
          2    1    1    2  501    0  0.50874058949E+02 -0.64037859642E+02  0.32132801338E+02  0.87872261057E+02  0.00000000000E+00 0. -1.
          1    1    1    2  502    0  0.83854345460E+02  0.72010266732E+02  0.25521675336E+04  0.25545598739E+04  0.00000000000E+00 0. -1.
         22    1    3    3    0    0 -0.99893348367E+02  0.78169427954E+01  0.52221226087E+03  0.53173812262E+03  0.00000000000E+00 0. -1.
         22    1    3    3    0    0 -0.34835056043E+02 -0.15789349886E+02  0.25316325591E+02  0.45866120838E+02  0.00000000000E+00 0. -1.
</event>
<event>
 7    1  0.5127424E-006  0.2107486E+03  0.7818608E-02  0.1222933E+00
          2   -1    0    0  502    0  0.00000000000E+00  0.00000000000E+00  0.17259248996E+04  0.17259248996E+04  0.00000000000E+00 0. -1.
          1   -1    0    0  501    0 -0.00000000000E+00 -0.00000000000E+00 -0.23119131152E+03  0.23119131152E+03  0.00000000000E+00 0. -1.
         25    2    1    2    0    0 -0.14509943786E+03 -0.85077630861E+02  0.10205557376E+03  0.23309386022E+03  0.12500142959E+03 0.  0.
          2    1    1    2  501    0  0.88283353808E+01 -0.83590372249E+02 -0.14690068875E+03  0.16924864015E+03  0.00000000000E+00 0. -1.
          1    1    1    2  502    0  0.13627110247E+03  0.16866800311E+03  0.15395787031E+04  0.15547737108E+04  0.00000000000E+00 0. -1.
         22    1    3    3    0    0 -0.13676383237E+03 -0.11324143685E+03  0.73637711246E+02  0.19222508000E+03  0.00000000000E+00 0.  1.
         22    1    3    3    0    0 -0.83356054883E+01  0.28163805991E+02  0.28417862515E+02  0.40868780220E+02  0.00000000000E+00 0.  1.
</event>
<event>
 7    1  0.5127424E-006  0.2374027E+03  0.7818608E-02  0.1262480E+00
          2   -1    0    0  502    0  0.00000000000E+00  0.00000000000E+00  0.38862099895E+03  0.38862099895E+03  0.00000000000E+00 0. -1.
          1   -1    0    0  501    0 -0.00000000000E+00 -0.00000000000E+00 -0.37396801779E+04  0.37396801779E+04  0.00000000000E+00 0. -1.
         25    2    1    2    0    0 -0.13005518646E+02 -0.18974129313E+03  0.35721051637E+02  0.23037458772E+03  0.12500222120E+03 0.  0.
          2    1    1    2  501    0  0.29475418727E+02  0.23697499010E+03 -0.36359508407E+04  0.36437843600E+04  0.00000000000E+00 0. -1.
          1    1    1    2  502    0 -0.16469900081E+02 -0.47233696968E+02  0.24917061005E+03  0.25414222917E+03  0.00000000000E+00 0. -1.
         22    1    3    3    0    0 -0.60656694529E+01 -0.49917513869E+02 -0.46102792943E+02  0.68220363924E+02  0.00000000000E+00 0. -1.
         22    1    3    3    0    0 -0.69398491928E+01 -0.13982377926E+03  0.81823844580E+02  0.16215422380E+03  0.00000000000E+00 0. -1.
</event>
<event>
 7    1  0.5127424E-006  0.5837800E+02  0.7818608E-02  0.1480523E+00
          2   -1    0    0  502    0  0.00000000000E+00  0.00000000000E+00  0.46222020082E+03  0.46222020082E+03  0.00000000000E+00 0. -1.
          1   -1    0    0  501    0 -0.00000000000E+00 -0.00000000000E+00 -0.65957787727E+03  0.65957787727E+03  0.00000000000E+00 0. -1.
         25    2    1    2    0    0  0.50044613562E+02 -0.50325144028E+02 -0.32424815832E+03  0.35468832763E+03  0.12501943097E+03 0.  0.
          2    1    1    2  501    0  0.55906468756E+01  0.32726490234E+02 -0.31733555641E+03  0.31906760076E+03  0.00000000000E+00 0. -1.
          1    1    1    2  502    0 -0.55635260437E+02  0.17598653793E+02  0.44422603827E+03  0.44804214969E+03  0.00000000000E+00 0. -1.
         22    1    3    3    0    0  0.73355025192E+02 -0.67292231714E+02 -0.30283117976E+03  0.31877253270E+03  0.00000000000E+00 0.  1.
         22    1    3    3    0    0 -0.23310411631E+02  0.16967087687E+02 -0.21416978552E+02  0.35915794927E+02  0.00000000000E+00 0.  1.
</event>
<event>
 7    1  0.5127424E-006  0.1176291E+03  0.7818608E-02  0.1334789E+00
          2   -1    0    0  502    0  0.00000000000E+00  0.00000000000E+00  0.17201606018E+04  0.17201606018E+04  0.00000000000E+00 0. -1.
          1   -1    0    0  501    0 -0.00000000000E+00 -0.00000000000E+00 -0.56366261851E+03  0.56366261851E+03  0.00000000000E+00 0. -1.
         25    2    1    2    0    0 -0.92628513040E+02 -0.39678286941E+02 -0.15357223408E+03  0.22217976435E+03  0.12500003489E+03 0.  0.
          2    1    1    2  501    0  0.85468982669E+02  0.90918415789E+02 -0.36501718237E+03  0.38575724070E+03  0.00000000000E+00 0. -1.
          1    1    1    2  502    0  0.71595303712E+01 -0.51240128848E+02  0.16750873998E+04  0.16758862153E+04  0.00000000000E+00 0. -1.
         22    1    3    3    0    0 -0.88301792628E+02 -0.20120201029E+02 -0.17236752377E+03  0.19471156186E+03  0.00000000000E+00 0. -1.
         22    1    3    3    0    0 -0.43267204121E+01 -0.19558085912E+02  0.18795289684E+02  0.27468202496E+02  0.00000000000E+00 0. -1.
</event>
<event>
 7    1  0.5127424E-006  0.1155461E+03  0.7818608E-02  0.1449505E+00
          2   -1    0    0  502    0  0.00000000000E+00  0.00000000000E+00  0.87134367286E+03  0.87134367286E+03  0.00000000000E+00 0. -1.
          1   -1    0    0  501    0 -0.00000000000E+00 -0.00000000000E+00 -0.52157557418E+03  0.52157557418E+03  0.00000000000E+00 0. -1.
         25    2    1    2    0    0 -0.50540591961E+02  0.11165565847E+03 -0.23422280855E+02  0.17662234147E+03  0.12500204302E+03 0.  0.
          2    1    1    2  501    0  0.63974767153E+02 -0.95540467052E+02 -0.41357031720E+03  0.42925651882E+03  0.00000000000E+00 0. -1.
          1    1    1    2  502    0 -0.13434175192E+02 -0.16115191422E+02  0.78676069673E+03  0.78704038675E+03  0.00000000000E+00 0. -1.
         22    1    3    3    0    0 -0.47188891913E+02  0.75138882581E+02 -0.73040452956E+02  0.11492410958E+03  0.00000000000E+00 0. -1.
         22    1    3    3    0    0 -0.33517000478E+01  0.36516775893E+02  0.49618172101E+02  0.61698231884E+02  0.00000000000E+00 0. -1.
</event>
<event>
 7    1  0.5127424E-006  0.9551626E+02  0.7818608E-02  0.1418314E+00
          2   -1    0    0  502    0  0.00000000000E+00  0.00000000000E+00  0.19466525901E+04  0.19466525901E+04  0.00000000000E+00 0. -1.
          1   -1    0    0  501    0 -0.00000000000E+00 -0.00000000000E+00 -0.39647869193E+02  0.39647869193E+02  0.00000000000E+00 0. -1.
         25    2    1    2    0    0  0.62097704132E+02 -0.10718526047E+03  0.62587103079E+03  0.65014010416E+03  0.12499121142E+03 0.  0.
          2    1    1    2  501    0 -0.49443511779E+02  0.77675891443E+02  0.50323992191E+02  0.10493192631E+03  0.00000000000E+00 0. -1.
          1    1    1    2  502    0 -0.12654192353E+02  0.29509369027E+02  0.12308096979E+04  0.12312284288E+04  0.00000000000E+00 0. -1.
         22    1    3    3    0    0  0.33420267188E+02 -0.12997879601E+03  0.54627185670E+03  0.56251608252E+03  0.00000000000E+00 0.  1.
         22    1    3    3    0    0  0.28677436944E+02  0.22793535543E+02  0.79599174097E+02  0.87624021644E+02  0.00000000000E+00 0.  1.
</event>
<event>
 7    1  0.5127424E-006  0.8292643E+02  0.7818608E-02  0.1474867E+00
          2   -1    0    0  502    0  0.00000000000E+00  0.00000000000E+00  0.32147862547E+03  0.32147862547E+03  0.00000000000E+00 0. -1.
          1   -1    0    0  501    0 -0.00000000000E+00 -0.00000000000E+00 -0.16986679649E+04  0.16986679649E+04  0.00000000000E+00 0. -1.
         25    2    1    2    0    0 -0.10151064268E+03 -0.14315736727E+02 -0.16364202683E+02  0.16248699869E+03  0.12499954687E+03 0.  0.
          2    1    1    2  501    0  0.79137181754E+02  0.23870163390E+02 -0.16075823395E+04  0.16097060155E+04  0.00000000000E+00 0. -1.
          1    1    1    2  502    0  0.22373460921E+02 -0.95544266629E+01  0.24675720273E+03  0.24795357615E+03  0.00000000000E+00 0. -1.
         22    1    3    3    0    0 -0.10637883028E+03 -0.49927332323E+02  0.99622169853E+01  0.11793404857E+03  0.00000000000E+00 0.  1.
         22    1    3    3    0    0  0.48681876090E+01  0.35611595595E+02 -0.26326419668E+02  0.44552950115E+02  0.00000000000E+00 0.  1.
</event>
<event>
 7    1  0.5127424E-006  0.5560347E+02  0.7818608E-02  0.1420520E+00
          2   -1    0    0  502    0  0.00000000000E+00  0.00000000000E+00  0.29340394904E+02  0.29340394904E+02  0.00000000000E+00 0. -1.
          1   -1    0    0  501    0 -0.00000000000E+00 -0.00000000000E+00 -0.14876192609E+04  0.14876192609E+04  0.00000000000E+00 0. -1.
         25    2    1    2    0    0 -0.26311609749E+01  0.11988065209E+02 -0.46343992340E+03  0.48015742051E+03  0.12499579656E+03 0.  0.
          2    1    1    2  501    0  0.51865672613E+02  0.20042414731E+02 -0.97230162369E+03  0.97389023705E+03  0.00000000000E+00 0. -1.
          1    1    1    2  502    0 -0.49234511638E+02 -0.32030479940E+02 -0.22537318929E+02  0.62911998267E+02  0.00000000000E+00 0. -1.
         22    1    3    3    0    0 -0.56032283948E+02 -0.89998165146E+01 -0.33089680174E+03  0.33572802526E+03  0.00000000000E+00 0.  1.
         22    1    3    3    0    0  0.53401122973E+02  0.20987881724E+02 -0.13254312166E+03  0.14442939525E+03  0.00000000000E+00 0.  1.
</event>
<event>
 7    1  0.5127424E-006  0.2490521E+03  0.7818608E-02  0.1288166E+00
          2   -1    0    0  502    0  0.00000000000E+00  0.00000000000E+00  0.97668504250E+02  0.97668504250E+02  0.00000000000E+00 0. -1.
          1   -1    0    0  501    0 -0.00000000000E+00 -0.00000000000E+00 -0.13077169084E+04  0.13077169084E+04  0.00000000000E+00 0. -1.
         25    2    1    2    0    0 -0.18085511454E+03  0.13752205336E+03 -0.13759713241E+03  0.29356348584E+03  0.12500264699E+03 0.  0.
          2    1    1    2  501    0  0.21752515208E+03 -0.13083997722E+03 -0.97449069664E+03  0.10070096371E+04  0.00000000000E+00 0. -1.
          1    1    1    2  502    0 -0.36670037547E+02 -0.66820761401E+01 -0.97960575127E+02  0.10481228971E+03  0.00000000000E+00 0. -1.
         22    1    3    3    0    0 -0.13020189157E+03  0.13169378088E+03 -0.49363750257E+02  0.19165741397E+03  0.00000000000E+00 0.  1.
         22    1    3    3    0    0 -0.50653222965E+02  0.58282724825E+01 -0.88233382151E+02  0.10190607186E+03  0.00000000000E+00 0.  1.
</event>
<event>
 7    1  0.5127424E-006  0.8680642E+02  0.7818608E-02  0.1348150E+00
          2   -1    0    0  502    0  0.00000000000E+00  0.00000000000E+00  0.10299817624E+04  0.10299817624E+04  0.00000000000E+00 0. -1.
          1   -1    0    0  501    0 -0.00000000000E+00 -0.00000000000E+00 -0.11412906949E+04  0.11412906949E+04  0.00000000000E+00 0. -1.
         25    2    1    2    0    0 -0.58738022966E+02 -0.88147257155E+02 -0.61961271345E+03  0.64090938285E+03  0.12499931227E+03 0.  0.
          2    1    1    2  501    0  0.80080878177E+02  0.29443956890E+02 -0.50650129696E+03  0.51363747670E+03  0.00000000000E+00 0. -1.
          1    1    1    2  502    0 -0.21342855211E+02  0.58703300265E+02  0.10148050779E+04  0.10167255977E+04  0.00000000000E+00 0. -1.
         22    1    3    3    0    0 -0.71948178333E+02 -0.10056419131E+03 -0.60532797070E+03  0.61782817114E+03  0.00000000000E+00 0.  1.
         22    1    3    3    0    0  0.13210155367E+02  0.12416934152E+02 -0.14284742747E+02  0.23081211708E+02  0.00000000000E+00 0.  1.
</event>
<event>
 7    1  0.5127424E-006  0.6129167E+02  0.7818608E-02  0.1395123E+00
          2   -1    0    0  502    0  0.00000000000E+00  0.00000000000E+00  0.30794424133E+03  0.30794424133E+03  0.00000000000E+00 0. -1.
          1   -1    0    0  501    0 -0.00000000000E+00 -0.00000000000E+00 -0.17609404816E+04  0.17609404816E+04  0.00000000000E+00 0. -1.
         25    2    1    2    0    0 -0.38557779267E+02 -0.83432980919E+02 -0.53770766377E+03  0.55964414361E+03  0.12499708459E+03 0.  0.
          2    1    1    2  501    0 -0.15984682588E+02  0.58393685117E+02 -0.12084669332E+04  0.12099825045E+04  0.00000000000E+00 0. -1.
          1    1    1    2  502    0  0.54542461855E+02  0.25039295802E+02  0.29317835672E+03  0.29925807480E+03  0.00000000000E+00 0. -1.
         22    1    3    3    0    0  0.15881161815E+02  0.19621252089E+02 -0.21609760815E+03  0.21756695770E+03  0.00000000000E+00 0. -1.
         22    1    3    3    0    0 -0.54438941082E+02 -0.10305423301E+03 -0.32161005562E+03  0.34207718591E+03  0.00000000000E+00 0. -1.
</event>
<event>
 7    1  0.5127424E-006  0.7390202E+02  0.7818608E-02  0.1496096E+00
          2   -1    0    0  502    0  0.00000000000E+00  0.00000000000E+00  0.14549887214E+04  0.14549887214E+04  0.00000000000E+00 0. -1.
          1   -1    0    0  501    0 -0.00000000000E+00 -0.00000000000E+00 -0.10801516911E+04  0.10801516911E+04  0.00000000000E+00 0. -1.
         25    2    1    2    0    0  0.23426934020E+02 -0.50666187740E+02  0.30182461893E+03  0.33141916586E+03  0.12499871635E+03 0.  0.
          2    1    1    2  501    0 -0.58603273255E+01 -0.22782300556E+02 -0.10639717537E+04  0.10642317743E+04  0.00000000000E+00 0. -1.
          1    1    1    2  502    0 -0.17566606694E+02  0.73448488296E+02  0.11369841651E+04  0.11394894724E+04  0.00000000000E+00 0. -1.
         22    1    3    3    0    0 -0.40297778052E+02 -0.60095668051E+02  0.15268566155E+03  0.16896245582E+03  0.00000000000E+00 0. -1.
         22    1    3    3    0    0  0.63724712072E+02  0.94294803109E+01  0.14913895739E+03  0.16245671004E+03  0.00000000000E+00 0. -1.
</event>
<event>
 7    1  0.5127424E-006  0.6550335E+02  0.7818608E-02  0.1451289E+00
          2   -1    0    0  502    0  0.00000000000E+00  0.00000000000E+00  0.35807067523E+04  0.35807067523E+04  0.00000000000E+00 0. -1.
          1   -1    0    0  501    0 -0.00000000000E+00 -0.00000000000E+00 -0.29199614381E+02  0.29199614381E+02  0.00000000000E+00 0. -1.
         25    2    1    2    0    0  0.89062082817E+02 -0.31031970737E+02  0.10669601440E+04  0.10783894393E+04  0.12499918514E+03 0.  0.
          2    1    1    2  501    0 -0.25602520766E+02  0.26051040853E+02 -0.86266168794E+01  0.37530844887E+02  0.00000000000E+00 0. -1.
          1    1    1    2  502    0 -0.63459562051E+02  0.49809298838E+01  0.24931736108E+04  0.24939860824E+04  0.00000000000E+00 0. -1.
         22    1    3    3    0    0  0.89146465451E+02 -0.43262704145E+02  0.10593711951E+04  0.10639953397E+04  0.00000000000E+00 0.  1.
         22    1    3    3    0    0 -0.84382633812E-01  0.12230733408E+02  0.75889488645E+01  0.14394099659E+02  0.00000000000E+00 0.  1.
</event>
<event>
 7    1  0.5127424E-006  0.8967592E+02  0.7818608E-02  0.1379531E+00
          2   -1    0    0  502    0  0.00000000000E+00  0.00000000000E+00  0.18207915842E+04  0.18207915842E+04  0.00000000000E+00 0. -1.
          1   -1    0    0  501    0 -0.00000000000E+00 -0.00000000000E+00 -0.14014414292E+03  0.14014414292E+03  0.00000000000E+00 0. -1.
         25    2    1    2    0    0 -0.68438370432E+02  0.32954166040E+02  0.24337198609E+02  0.14828050684E+03  0.12500008746E+03 0.  0.
          2    1    1    2  501    0  0.96858587419E+02  0.38723617239E+01 -0.47681761992E+02  0.10802838316E+03  0.00000000000E+00 0. -1.
          1    1    1    2  502    0 -0.28420216986E+02 -0.36826527764E+02  0.17039920046E+04  0.17046268371E+04  0.00000000000E+00 0. -1.
         22    1    3    3    0    0 -0.75215336004E+02  0.72826342828E+02  0.92067728916E+01  0.10509894218E+03  0.00000000000E+00 0.  1.
         22    1    3    3    0    0  0.67769655714E+01 -0.39872176788E+02  0.15130425718E+02  0.43181564661E+02  0.00000000000E+00 0.  1.
</event>
<event>
 7    1  0.5127424E-006  0.9546381E+02  0.7818608E-02  0.1366466E+00
          2   -1    0    0  502    0  0.00000000000E+00  0.00000000000E+00  0.94704779030E+02  0.94704779030E+02  0.00000000000E+00 0. -1.
          1   -1    0    0  501    0 -0.00000000000E+00 -0.00000000000E+00 -0.11020279812E+04  0.11020279812E+04  0.00000000000E+00 0. -1.
         25    2    1    2    0    0  0.93373278582E+02  0.50627662853E+02 -0.72919982298E+03  0.74742165970E+03  0.12500010464E+03 0.  0.
          2    1    1    2  501    0 -0.39603868841E+02  0.28280199929E+02 -0.33476865404E+03  0.33828728599E+03  0.00000000000E+00 0. -1.
          1    1    1    2  502    0 -0.53769409741E+02 -0.78907862782E+02  0.56645274845E+02  0.11102381454E+03  0.00000000000E+00 0. -1.
         22    1    3    3    0    0  0.55544868662E+02 -0.87453677880E+01 -0.10362166820E+03  0.11789471580E+03  0.00000000000E+00 0. -1.
         22    1    3    3    0    0  0.37828409920E+02  0.59373030641E+02 -0.62557815478E+03  0.62952694391E+03  0.00000000000E+00 0. -1.
</event>
<event>
 7    1  0.7903773E-006  0.1075680E+03  0.7818608E-02  0.1283357E+00
          2   -1    0    0  502    0  0.00000000000E+00  0.00000000000E+00  0.25999071884E+04  0.25999071884E+04  0.00000000000E+00 0. -1.
          1   -1    0    0  501    0 -0.00000000000E+00 -0.00000000000E+00 -0.75246819300E+03  0.75246819300E+03  0.00000000000E+00 0. -1.
         25    2    1    2    0    0 -0.60403579058E+00 -0.26079226746E+02  0.12464218918E+02  0.12830319598E+03  0.12500344962E+03 0.  0.
          2    1    1    2  501    0  0.66236414080E+02 -0.61378989477E+02 -0.69042539050E+03  0.69630586868E+03  0.00000000000E+00 0. -1.
          1    1    1    2  502    0 -0.65632378290E+02  0.87458216223E+02  0.25254001670E+04  0.25277663168E+04  0.00000000000E+00 0. -1.
         22    1    3    3    0    0 -0.44320338298E+02  0.21174981048E+01  0.47951477720E+02  0.65330853359E+02  0.00000000000E+00 0. -1.
         22    1    3    3    0    0  0.43716302508E+02 -0.28196724851E+02 -0.35487258802E+02  0.62972342616E+02  0.00000000000E+00 0. -1.
</event>
<event>
 7    1  0.5127424E-006  0.1945852E+03  0.7818608E-02  0.1273898E+00
          2   -1    0    0  502    0  0.00000000000E+00  0.00000000000E+00  0.42862720849E+03  0.42862720849E+03  0.00000000000E+00 0. -1.
          1   -1    0    0  501    0 -0.00000000000E+00 -0.00000000000E+00 -0.68540244254E+03  0.68540244254E+03  0.00000000000E+00 0. -1.
         25    2    1    2    0    0  0.15103566769E+03  0.82130494055E+02 -0.14618532866E+03  0.25797760666E+03  0.12500041703E+03 0.  0.
          2    1    1    2  501    0  0.41612962914E+02 -0.35399532010E+02 -0.45521395293E+03  0.45848065225E+03  0.00000000000E+00 0. -1.
          1    1    1    2  502    0 -0.19264863060E+03 -0.46730962045E+02  0.34462404754E+03  0.39757139212E+03  0.00000000000E+00 0. -1.
         22    1    3    3    0    0 -0.17754059204E+02  0.30594820937E+02 -0.32588499212E+02  0.48096361268E+02  0.00000000000E+00 0.  1.
         22    1    3    3    0    0  0.16878972689E+03  0.51535673118E+02 -0.11359682945E+03  0.20988124539E+03  0.00000000000E+00 0.  1.
</event>
<event>
 7    1  0.5127424E-006  0.8073456E+02  0.7818608E-02  0.1388939E+00
          2   -1    0    0  502    0  0.00000000000E+00  0.00000000000E+00  0.42507186280E+03  0.42507186280E+03  0.00000000000E+00 0. -1.
          1   -1    0    0  501    0 -0.00000000000E+00 -0.00000000000E+00 -0.40344456785E+03  0.40344456785E+03  0.00000000000E+00 0. -1.
         25    2    1    2    0    0  0.45133800603E+02  0.45943259989E+01  0.85308807157E+02  0.15798774689E+03  0.12499747118E+03 0.  0.
          2    1    1    2  501    0 -0.75713645413E+02  0.32243316571E+02 -0.36055112430E+03  0.36982333728E+03  0.00000000000E+00 0. -1.
          1    1    1    2  502    0  0.30579844811E+02 -0.36837642570E+02  0.29686961209E+03  0.30070534648E+03  0.00000000000E+00 0. -1.
         22    1    3    3    0    0  0.18963145642E+02 -0.37166420949E+02 -0.16507107815E+02  0.44871241873E+02  0.00000000000E+00 0. -1.
         22    1    3    3    0    0  0.26170654961E+02  0.41760746948E+02  0.10181591497E+03  0.11311650502E+03  0.00000000000E+00 0. -1.
</event>
<event>
 7    1  0.5127424E-006  0.4276688E+03  0.7818608E-02  0.1240211E+00
          2   -1    0    0  502    0  0.00000000000E+00  0.00000000000E+00  0.19331299466E+04  0.19331299466E+04  0.00000000000E+00 0. -1.
          1   -1    0    0  501    0 -0.00000000000E+00 -0.00000000000E+00 -0.44382242955E+03  0.44382242955E+03  0.00000000000E+00 0. -1.
         25    2    1    2    0    0 -0.32623924443E+03 -0.24125669328E+03  0.16146905297E+03  0.45424067706E+03  0.12500200388E+03 0.  0.
          2    1    1    2  501    0  0.34756608972E+03  0.26859055274E+03 -0.13494756909E+03  0.45951487261E+03  0.00000000000E+00 0. -1.
          1    1    1    2  502    0 -0.21326845296E+02 -0.27333859455E+02  0.14627860331E+04  0.14631968265E+04  0.00000000000E+00 0. -1.
         22    1    3    3    0    0 -0.26472283423E+03 -0.23402453467E+03  0.16931143510E+03  0.39180610491E+03  0.00000000000E+00 0.  1.
         22    1    3    3    0    0 -0.61516410199E+02 -0.72321586132E+01 -0.78423821398E+01  0.62434572150E+02  0.00000000000E+00 0.  1.
</event>
<event>
 7    1  0.5127424E-006  0.2230230E+03  0.7818608E-02  0.1360577E+00
          2   -1    0    0  502    0  0.00000000000E+00  0.00000000000E+00  0.36308622486E+03  0.36308622486E+03  0.00000000000E+00 0. -1.
          1   -1    0    0  501    0 -0.00000000000E+00 -0.00000000000E+00 -0.17735158207E+04  0.17735158207E+04  0.00000000000E+00 0. -1.
         25    2    1    2    0    0 -0.26521127740E+02 -0.23324432611E+03 -0.43401331783E+03  0.50901807439E+03  0.12500221644E+03 0.  0.
          2    1    1    2  501    0  0.18770911103E+02  0.11245589478E+02 -0.12640059304E+04  0.12641953182E+04  0.00000000000E+00 0. -1.
          1    1    1    2  502    0  0.77502166379E+01  0.22199873664E+03  0.28758965243E+03  0.36338865297E+03  0.00000000000E+00 0. -1.
         22    1    3    3    0    0 -0.23323743112E+02 -0.51628739958E+01 -0.69905131326E+01  0.24890149347E+02  0.00000000000E+00 0.  1.
         22    1    3    3    0    0 -0.31973846286E+01 -0.22808145212E+03 -0.42702280470E+03  0.48412792504E+03  0.00000000000E+00 0.  1.
</event>
<event>
 7    1  0.5127424E-006  0.1171142E+03  0.7818608E-02  0.1275304E+00
          2   -1    0    0  502    0  0.00000000000E+00  0.00000000000E+00  0.24897154956E+04  0.24897154956E+04  0.00000000000E+00 0. -1.
          1   -1    0    0  501    0 -0.00000000000E+00 -0.00000000000E+00 -0.15316204908E+04  0.15316204908E+04  0.00000000000E+00 0. -1.
         25    2    1    2    0    0  0.18083916206E+03 -0.20111252507E+02  0.22719034486E+02  0.22192042393E+03  0.12500102008E+03 0.  0.
          2    1    1    2  501    0 -0.80590026659E+02 -0.39055910181E+02 -0.14291864413E+04  0.14319895253E+04  0.00000000000E+00 0. -1.
          1    1    1    2  502    0 -0.10024913540E+03  0.59167162688E+02  0.23645624118E+04  0.23674260371E+04  0.00000000000E+00 0. -1.
         22    1    3    3    0    0  0.25817628084E+02 -0.49873255483E+02  0.30440772277E+02  0.63879043114E+02  0.00000000000E+00 0.  1.
         22    1    3    3    0    0  0.15502153397E+03  0.29762002977E+02 -0.77217377910E+01  0.15804138082E+03  0.00000000000E+00 0.  1.
</event>
<event>
 7    1  0.5127424E-006  0.3293209E+02  0.7818608E-02  0.1610553E+00
          2   -1    0    0  502    0  0.00000000000E+00  0.00000000000E+00  0.19379263547E+04  0.19379263547E+04  0.00000000000E+00 0. -1.
          1   -1    0    0  501    0 -0.00000000000E+00 -0.00000000000E+00 -0.35944206163E+03  0.35944206163E+03  0.00000000000E+00 0. -1.
         25    2    1    2    0    0 -0.31146008399E+02 -0.34198021035E+02  0.73958503130E+03  0.75149886916E+03  0.12499981343E+03 0.  0.
          2    1    1    2  501    0 -0.31994994417E+00  0.25363074948E+02 -0.35280578154E+03  0.35371642233E+03  0.00000000000E+00 0. -1.
          1    1    1    2  502    0  0.31465958343E+02  0.88349460864E+01  0.11917050434E+04  0.11921531249E+04  0.00000000000E+00 0. -1.
         22    1    3    3    0    0  0.18356125981E+02  0.57527041330E+01  0.57080725570E+03  0.57113130200E+03  0.00000000000E+00 0.  1.
         22    1    3    3    0    0 -0.49502134380E+02 -0.39950725168E+02  0.16877777560E+03  0.18036756717E+03  0.00000000000E+00 0.  1.
</event>
<event>
 7    1  0.5127424E-006  0.1033570E+03  0.7818608E-02  0.1464132E+00
          2   -1    0    0  502    0  0.00000000000E+00  0.00000000000E+00  0.69724702060E+03  0.69724702060E+03  0.00000000000E+00 0. -1.
          1   -1    0    0  501    0 -0.00000000000E+00 -0.00000000000E+00 -0.83397000695E+03  0.83397000695E+03  0.00000000000E+00 0. -1.
         25    2    1    2    0    0  0.86269423160E+02  0.88704425617E+02 -0.22571058860E+03  0.28614748620E+03  0.12499690219E+03 0.  0.
          2    1    1    2  501    0 -0.17095503415E+02 -0.12333875411E+02 -0.57386689014E+03  0.57425394062E+03  0.00000000000E+00 0. -1.
          1    1    1    2  502    0 -0.69173919746E+02 -0.76370550206E+02  0.66285449238E+03  0.67081560073E+03  0.00000000000E+00 0. -1.
         22    1    3    3    0    0  0.10458254460E+03  0.56339764568E+02 -0.10072518845E+03  0.15574736369E+03  0.00000000000E+00 0. -1.
         22    1    3    3    0    0 -0.18313121441E+02  0.32364661049E+02 -0.12498540015E+03  0.13040012251E+03  0.00000000000E+00 0. -1.
</event>
<event>
 7    1  0.5127424E-006  0.6521698E+02  0.7818608E-02  0.1379262E+00
          2   -1    0    0  502    0  0.00000000000E+00  0.00000000000E+00  0.45421255749E+03  0.45421255749E+03  0.00000000000E+00 0. -1.
          1   -1    0    0  501    0 -0.00000000000E+00 -0.00000000000E+00 -0.11460684856E+04  0.11460684856E+04  0.00000000000E+00 0. -1.
         25    2    1    2    0    0  0.10868640739E+03  0.39664329025E+02 -0.74706079705E+03  0.76623136786E+03  0.12499872181E+03 0.  0.
          2    1    1    2  501    0 -0.43967745261E+02 -0.46649761522E+02 -0.38437114032E+03  0.38968004361E+03  0.00000000000E+00 0. -1.
          1    1    1    2  502    0 -0.64718662129E+02  0.69854324971E+01  0.43957600932E+03  0.44436963157E+03  0.00000000000E+00 0. -1.
         22    1    3    3    0    0  0.79676005403E+02 -0.10215811971E+02 -0.19127039036E+03  0.20745358729E+03  0.00000000000E+00 0.  1.
         22    1    3    3    0    0  0.29010401987E+02  0.49880140996E+02 -0.55579040670E+03  0.55877778058E+03  0.00000000000E+00 0.  1.
</event>
<event>
 7    1  0.5127424E-006  0.7420550E+02  0.7818608E-02  0.1391988E+00
          2   -1    0    0  502    0  0.00000000000E+00  0.00000000000E+00  0.10876229907E+04  0.10876229907E+04  0.00000000000E+00 0. -1.
          1   -1    0    0  501    0 -0.00000000000E+00 -0.00000000000E+00 -0.37990557790E+03  0.37990557790E+03  0.00000000000E+00 0. -1.
         25    2    1    2    0    0 -0.85177339992E+02  0.88625581473E+02 -0.63078535217E+02  0.18631594860E+03  0.12500023263E+03 0.  0.
          2    1    1    2  501    0  0.41622837416E+02 -0.29174046269E+02 -0.25133750658E+03  0.25642567692E+03  0.00000000000E+00 0. -1.
          1    1    1    2  502    0  0.43554502576E+02 -0.59451535204E+02  0.10221334546E+04  0.10247869431E+04  0.00000000000E+00 0. -1.
         22    1    3    3    0    0 -0.70252796325E+02  0.12085102399E+03 -0.51190874814E+02  0.14886547973E+03  0.00000000000E+00 0.  1.
         22    1    3    3    0    0 -0.14924543668E+02 -0.32225442512E+02 -0.11887660403E+02  0.37450468871E+02  0.00000000000E+00 0.  1.
</event>
<event>
 7    1  0.5127424E-006  0.1018565E+03  0.7818608E-02  0.1442137E+00
          2   -1    0    0  502    0  0.00000000000E+00  0.00000000000E+00  0.25988871800E+03  0.25988871800E+03  0.00000000000E+00 0. -1.
          1   -1    0    0  501    0 -0.00000000000E+00 -0.00000000000E+00 -0.27964808027E+03  0.27964808027E+03  0.00000000000E+00 0. -1.
         25    2    1    2    0    0 -0.57985450461E+02 -0.10937497146E+03 -0.18251194566E+03  0.25349714361E+03  0.12499997864E+03 0.  0.
          2    1    1    2  501    0  0.18943269971E+02  0.16521883456E+02 -0.47031226156E+02  0.53326882000E+02  0.00000000000E+00 0. -1.
          1    1    1    2  502    0  0.39042180490E+02  0.92853088000E+02  0.20978380956E+03  0.23271277266E+03  0.00000000000E+00 0. -1.
         22    1    3    3    0    0 -0.97770384428E+02 -0.73101593474E+02 -0.12793458460E+03  0.17683367603E+03  0.00000000000E+00 0.  1.
         22    1    3    3    0    0  0.39784933967E+02 -0.36273377983E+02 -0.54577361058E+02  0.76663467578E+02  0.00000000000E+00 0.  1.
</event>
<event>
 7    1  0.5127424E-006  0.4470002E+02  0.7818608E-02  0.1519239E+00
          2   -1    0    0  502    0  0.00000000000E+00  0.00000000000E+00  0.43686286697E+03  0.43686286697E+03  0.00000000000E+00 0. -1.
          1   -1    0    0  501    0 -0.00000000000E+00 -0.00000000000E+00 -0.47028567490E+03  0.47028567490E+03  0.00000000000E+00 0. -1.
         25    2    1    2    0    0  0.40146866310E+01  0.12256387860E+02 -0.44772517110E+02  0.13340135950E+03  0.12500003070E+03 0.  0.
          2    1    1    2  501    0 -0.23374492210E+02 -0.39263061903E+02 -0.37912119453E+03  0.38186494348E+03  0.00000000000E+00 0. -1.
          1    1    1    2  502    0  0.19359805579E+02  0.27006674043E+02  0.39047090371E+03  0.39188223889E+03  0.00000000000E+00 0. -1.
         22    1    3    3    0    0 -0.54915308729E+02  0.29593013600E+02 -0.11135662979E+02  0.63367504106E+02  0.00000000000E+00 0.  1.
         22    1    3    3    0    0  0.58929995360E+02 -0.17336625740E+02 -0.33636854131E+02  0.70033855391E+02  0.00000000000E+00 0.  1.
</event>
<event>
 7    1  0.5127424E-006  0.1214559E+03  0.7818608E-02  0.1371075E+00
          2   -1    0    0  502    0  0.00000000000E+00  0.00000000000E+00  0.98718512339E+03  0.98718512339E+03  0.00000000000E+00 0. -1.
          1   -1    0    0  501    0 -0.00000000000E+00 -0.00000000000E+00 -0.16577906521E+03  0.16577906521E+03  0.00000000000E+00 0. -1.
         25    2    1    2    0    0 -0.38606544799E+02  0.89611889979E+02  0.33056568421E+03  0.36663387084E+03  0.12500387012E+03 0.  0.
          2    1    1    2  501    0  0.46367494229E+01  0.36522526307E+02 -0.13863690622E+03  0.14344192601E+03  0.00000000000E+00 0. -1.
          1    1    1    2  502    0  0.33969795376E+02 -0.12613441629E+03  0.62947728019E+03  0.64288839175E+03  0.00000000000E+00 0. -1.
         22    1    3    3    0    0 -0.74431355283E+01  0.99499044429E+02  0.31499741644E+03  0.33042220336E+03  0.00000000000E+00 0.  1.
         22    1    3    3    0    0 -0.31163409270E+02 -0.98871544508E+01  0.15568267767E+02  0.36211667481E+02  0.00000000000E+00 0.  1.
</event>
<event>
 7    1  0.5127424E-006  0.1259518E+03  0.7818608E-02  0.1284450E+00
          2   -1    0    0  502    0  0.00000000000E+00  0.00000000000E+00  0.15397020352E+03  0.15397020352E+03  0.00000000000E+00 0. -1.
          1   -1    0    0  501    0 -0.00000000000E+00 -0.00000000000E+00 -0.34097799451E+03  0.34097799451E+03  0.00000000000E+00 0. -1.
         25    2    1    2    0    0  0.13770390637E+03  0.99276951415E+02 -0.61598835228E+02  0.21963136493E+03  0.12500096418E+03 0.  0.
          2    1    1    2  501    0 -0.76221329050E+02 -0.40710099585E+01 -0.14157138891E+03  0.16083756490E+03  0.00000000000E+00 0. -1.
          1    1    1    2  502    0 -0.61482577323E+02 -0.95205941457E+02  0.16162433140E+02  0.11447926820E+03  0.00000000000E+00 0. -1.
         22    1    3    3    0    0  0.11141490364E+03  0.10504771560E+03 -0.78795727774E+00  0.15313041560E+03  0.00000000000E+00 0. -1.
         22    1    3    3    0    0  0.26289002737E+02 -0.57707641896E+01 -0.60810877950E+02  0.66500949326E+02  0.00000000000E+00 0. -1.
</event>
<event>
 7    1  0.5127424E-006  0.8152668E+02  0.7818608E-02  0.1347006E+00
          2   -1    0    0  502    0  0.00000000000E+00  0.00000000000E+00  0.89658469071E+03  0.89658469071E+03  0.00000000000E+00 0. -1.
          1   -1    0    0  501    0 -0.00000000000E+00 -0.00000000000E+00 -0.24516873141E+03  0.24516873141E+03  0.00000000000E+00 0. -1.
         25    2    1    2    0    0 -0.17296398683E+02  0.24455621360E+02  0.42681725142E+02  0.13544002855E+03  0.12500011539E+03 0.  0.
          2    1    1    2  501    0  0.84458724759E+02 -0.24319906701E+02 -0.18759167217E+03  0.20716025082E+03  0.00000000000E+00 0. -1.
          1    1    1    2  502    0 -0.67162326076E+02 -0.13571465923E+00  0.79632590633E+03  0.79915314275E+03  0.00000000000E+00 0. -1.
         22    1    3    3    0    0 -0.57687657066E+02  0.70309139497E+01 -0.17685024693E+02  0.60745860988E+02  0.00000000000E+00 0. -1.
         22    1    3    3    0    0  0.40391258383E+02  0.17424707410E+02  0.60366749834E+02  0.74694167561E+02  0.00000000000E+00 0. -1.
</event>
<event>
 7    1  0.5127424E-006  0.7021862E+02  0.7818608E-02  0.1516326E+00
          2   -1    0    0  502    0  0.00000000000E+00  0.00000000000E+00  0.74350544353E+02  0.74350544353E+02  0.00000000000E+00 0. -1.
          1   -1    0    0  501    0 -0.00000000000E+00 -0.00000000000E+00 -0.82861950319E+03  0.82861950319E+03  0.00000000000E+00 0. -1.
         25    2    1    2    0    0  0.35050928901E+01 -0.74065968370E+02 -0.17839265528E+03  0.23010632019E+03  0.12500770292E+03 0.  0.
          2    1    1    2  501    0  0.20012779663E+02  0.80474611939E+01 -0.59875353527E+03  0.59914194393E+03  0.00000000000E+00 0. -1.
          1    1    1    2  502    0 -0.23517872553E+02  0.66018507177E+02  0.22877231710E+02  0.73721783416E+02  0.00000000000E+00 0. -1.
         22    1    3    3    0    0  0.60536741486E+02 -0.13262201692E+02 -0.77185992590E+02  0.98986163253E+02  0.00000000000E+00 0.  1.
         22    1    3    3    0    0 -0.57031648596E+02 -0.60803766679E+02 -0.10120666269E+03  0.13112015694E+03  0.00000000000E+00 0.  1.
</event>
<event>
 7    1  0.5127424E-006  0.4996757E+02  0.7818608E-02  0.1456096E+00
          2   -1    0    0  502    0  0.00000000000E+00  0.00000000000E+00  0.13448696873E+03  0.13448696873E+03  0.00000000000E+00 0. -1.
          1   -1    0    0  501    0 -0.00000000000E+00 -0.00000000000E+00 -0.83712278964E+03  0.83712278964E+03  0.00000000000E+00 0. -1.
         25    2    1    2    0    0 -0.87589766484E+02 -0.18354446960E+02 -0.14770004189E+03  0.21319396086E+03  0.12501003822E+03 0.  0.
          2    1    1    2  501    0  0.39159099385E+02  0.24562514757E+02 -0.64994904292E+03  0.65159075391E+03  0.00000000000E+00 0. -1.
          1    1    1    2  502    0  0.48430667099E+02 -0.62080677979E+01  0.95013263907E+02  0.10682504360E+03  0.00000000000E+00 0. -1.
         22    1    3    3    0    0 -0.63098867037E+02 -0.39968641107E+02 -0.16134393857E+03  0.17779433570E+03  0.00000000000E+00 0. -1.
         22    1    3    3    0    0 -0.24490899446E+02  0.21614194147E+02  0.13643896682E+02  0.35399625153E+02  0.00000000000E+00 0. -1.
</event>
<event>
 7    1  0.5127424E-006  0.3624874E+02  0.7818608E-02  0.1568945E+00
          2   -1    0    0  502    0  0.00000000000E+00  0.00000000000E+00  0.62470388055E+03  0.62470388055E+03  0.00000000000E+00 0. -1.
          1   -1    0    0  501    0 -0.00000000000E+00 -0.00000000000E+00 -0.89209261090E+03  0.89209261090E+03  0.00000000000E+00 0. -1.
         25    2    1    2    0    0  0.14896368846E+02  0.37273894634E+02 -0.40807184789E+03  0.42867228521E+03  0.12500420008E+03 0.  0.
          2    1    1    2  501    0 -0.29421743614E+02 -0.40514414248E+01 -0.47271916236E+03  0.47365120040E+03  0.00000000000E+00 0. -1.
          1    1    1    2  502    0  0.14525374767E+02 -0.33222453210E+02  0.61340227991E+03  0.61447300584E+03  0.00000000000E+00 0. -1.
         22    1    3    3    0    0 -0.45518281276E+02  0.43204998487E+02 -0.13414367405E+03  0.14809831569E+03  0.00000000000E+00 0. -1.
         22    1    3    3    0    0  0.60414650122E+02 -0.59311038524E+01 -0.27392817385E+03  0.28057396951E+03  0.00000000000E+00 0. -1.
</event>
<event>
 7    1  0.5127424E-006  0.7616504E+02  0.7818608E-02  0.1407883E+00
          2   -1    0    0  502    0  0.00000000000E+00  0.00000000000E+00  0.70105131086E+02  0.70105131086E+02  0.00000000000E+00 0. -1.
          1   -1    0    0  501    0 -0.00000000000E+00 -0.00000000000E+00 -0.82689052512E+03  0.82689052512E+03  0.00000000000E+00 0. -1.
         25    2    1    2    0    0 -0.92932102208E+02 -0.32142892748E+01 -0.15729804961E+03  0.22138459502E+03  0.12498702023E+03 0.  0.
          2    1    1    2  501    0  0.68198211514E+02 -0.32769184304E+02 -0.62193084463E+03  0.62651639324E+03  0.00000000000E+00 0. -1.
          1    1    1    2  502    0  0.24733890695E+02  0.35983473579E+02  0.22443500202E+02  0.49094667949E+02  0.00000000000E+00 0. -1.
         22    1    3    3    0    0  0.15340043795E+02  0.19376711464E+02  0.47723088194E+01  0.25170395751E+02  0.00000000000E+00 0.  1.
         22    1    3    3    0    0 -0.10827214600E+03 -0.22591000739E+02 -0.16207035843E+03  0.19621419927E+03  0.00000000000E+00 0.  1.
</event>
<event>
 7    1  0.5127424E-006  0.7467689E+02  0.7818608E-02  0.1350767E+00
          2   -1    0    0  502    0  0.00000000000E+00  0.00000000000E+00  0.12822845467E+04  0.12822845467E+04  0.00000000000E+00 0. -1.
          1   -1    0    0  501    0 -0.00000000000E+00 -0.00000000000E+00 -0.11408739750E+03  0.11408739750E+03  0.00000000000E+00 0. -1.
         25    2    1    2    0    0  0.33168245968E+02 -0.21848984388E+02  0.83355788670E+02  0.15540370530E+03  0.12499845381E+03 0.  0.
          2    1    1    2  501    0  0.14607454648E+02  0.79243409415E+02 -0.55718333735E+02  0.97966465595E+02  0.00000000000E+00 0. -1.
          1    1    1    2  502    0 -0.47775700616E+02 -0.57394425027E+02  0.11405596942E+04  0.11430017733E+04  0.00000000000E+00 0. -1.
         22    1    3    3    0    0 -0.40081582837E+02 -0.14972780266E+01 -0.31568087713E+01  0.40233575106E+02  0.00000000000E+00 0. -1.
         22    1    3    3    0    0  0.73249828805E+02 -0.20351706361E+02  0.86512597441E+02  0.11517013019E+03  0.00000000000E+00 0. -1.
</event>
<event>
 7    1  0.5127424E-006  0.2614645E+03  0.7818608E-02  0.1296163E+00
          2   -1    0    0  502    0  0.00000000000E+00  0.00000000000E+00  0.22056339100E+04  0.22056339100E+04  0.00000000000E+00 0. -1.
          1   -1    0    0  501    0 -0.00000000000E+00 -0.00000000000E+00 -0.31668805256E+03  0.31668805256E+03  0.00000000000E+00 0. -1.
         25    2    1    2    0    0  0.28384537865E+03  0.74411105653E+02  0.18218402068E+04  0.18495486894E+04  0.12499361398E+03 0.  0.
          2    1    1    2  501    0 -0.25194839739E+03 -0.66143712654E+02 -0.24579318368E+03  0.35814420952E+03  0.00000000000E+00 0. -1.
          1    1    1    2  502    0 -0.31896981259E+02 -0.82673929987E+01  0.31289883422E+03  0.31462906360E+03  0.00000000000E+00 0. -1.
         22    1    3    3    0    0  0.19270686426E+02 -0.89735739317E+01  0.32510986169E+02  0.38843900501E+02  0.00000000000E+00 0.  1.
         22    1    3    3    0    0  0.26457469222E+03  0.83384679585E+02  0.17893292207E+04  0.18107047889E+04  0.00000000000E+00 0.  1.
</event>
<event>
 7    1  0.5127424E-006  0.5097625E+02  0.7818608E-02  0.1442210E+00
          2   -1    0    0  502    0  0.00000000000E+00  0.00000000000E+00  0.50144421801E+03  0.50144421801E+03  0.00000000000E+00 0. -1.
          1   -1    0    0  501    0 -0.00000000000E+00 -0.00000000000E+00 -0.15045157630E+03  0.15045157630E+03  0.00000000000E+00 0. -1.
         25    2    1    2    0    0 -0.22616026793E+02 -0.68909476729E+01  0.20258433487E+03  0.23921648315E+03  0.12500057299E+03 0.  0.
          2    1    1    2  501    0  0.10458499399E+02 -0.49095733691E+02 -0.12428152132E+03  0.13403606910E+03  0.00000000000E+00 0. -1.
          1    1    1    2  502    0  0.12157527395E+02  0.55986681364E+02  0.27268982817E+03  0.27864324207E+03  0.00000000000E+00 0. -1.
         22    1    3    3    0    0  0.46196734714E+02 -0.22971048454E+02  0.11938785577E+03  0.13005870779E+03  0.00000000000E+00 0.  1.
         22    1    3    3    0    0 -0.68812761507E+02  0.16080100781E+02  0.83196479094E+02  0.10915777536E+03  0.00000000000E+00 0.  1.
</event>
<event>
 7    1  0.5127424E-006  0.9417547E+02  0.7818608E-02  0.1312342E+00
          2   -1    0    0  502    0  0.00000000000E+00  0.00000000000E+00  0.23879762468E+03  0.23879762468E+03  0.00000000000E+00 0. -1.
          1   -1    0    0  501    0 -0.00000000000E+00 -0.00000000000E+00 -0.22923576491E+04  0.22923576491E+04  0.00000000000E+00 0. -1.
         25    2    1    2    0    0 -0.48690973666E+01 -0.29886390783E+02 -0.32507129576E+02  0.13265976494E+03  0.12499998119E+03 0.  0.
          2    1    1    2  501    0 -0.60317146501E+02  0.74314961138E+02 -0.22004443723E+04  0.22025249845E+04  0.00000000000E+00 0. -1.
          1    1    1    2  502    0  0.65186243867E+02 -0.44428570355E+02  0.17939147744E+03  0.19597052439E+03  0.00000000000E+00 0. -1.
         22    1    3    3    0    0  0.32785068935E+02 -0.60202147690E+02 -0.45899059758E+02  0.82497775838E+02  0.00000000000E+00 0. -1.
         22    1    3    3    0    0 -0.37654166301E+02  0.30315756908E+02  0.13391930182E+02  0.50161989102E+02  0.00000000000E+00 0. -1.
</event>
<event>
 7    1  0.5127424E-006  0.2266214E+03  0.7818608E-02  0.1292039E+00
          2   -1    0    0  502    0  0.00000000000E+00  0.00000000000E+00  0.89479449429E+03  0.89479449429E+03  0.00000000000E+00 0. -1.
          1   -1    0    0  501    0 -0.00000000000E+00 -0.00000000000E+00 -0.24502819491E+03  0.24502819491E+03  0.00000000000E+00 0. -1.
         25    2    1    2    0    0 -0.22826030419E+03  0.57444270675E+02  0.46117884068E+03  0.53264757145E+03  0.12499960634E+03 0.  0.
          2    1    1    2  501    0  0.20689977031E+03 -0.90675740578E+02 -0.14684072460E+03  0.26942866085E+03  0.00000000000E+00 0. -1.
          1    1    1    2  502    0  0.21360533875E+02  0.33231469903E+02  0.33542818330E+03  0.33774645691E+03  0.00000000000E+00 0. -1.
         22    1    3    3    0    0 -0.12695509797E+03  0.31230852910E+02  0.37483691983E+03  0.39698322325E+03  0.00000000000E+00 0. -1.
         22    1    3    3    0    0 -0.10130520622E+03  0.26213417765E+02  0.86341920852E+02  0.13566434821E+03  0.00000000000E+00 0. -1.
</event>
<event>
 7    1  0.5127424E-006  0.8235592E+02  0.7818608E-02  0.1372019E+00
          2   -1    0    0  502    0  0.00000000000E+00  0.00000000000E+00  0.80741881914E+03  0.80741881914E+03  0.00000000000E+00 0. -1.
          1   -1    0    0  501    0 -0.00000000000E+00 -0.00000000000E+00 -0.10381738924E+04  0.10381738924E+04  0.00000000000E+00 0. -1.
         25    2    1    2    0    0  0.37704490188E+02  0.47290998121E+02 -0.15971018065E+03  0.21164129356E+03  0.12500651284E+03 0.  0.
          2    1    1    2  501    0  0.43590772378E+02 -0.31657067884E+02 -0.84944993966E+03  0.85115658099E+03  0.00000000000E+00 0. -1.
          1    1    1    2  502    0 -0.81295262565E+02 -0.15633930237E+02  0.77840504706E+03  0.78279483696E+03  0.00000000000E+00 0. -1.
         22    1    3    3    0    0  0.77329532217E+02  0.58739109306E+02 -0.10352526097E+03  0.14194230932E+03  0.00000000000E+00 0. -1.
         22    1    3    3    0    0 -0.39625042029E+02 -0.11448111184E+02 -0.56184919675E+02  0.69698984242E+02  0.00000000000E+00 0. -1.
</event>
<event>
 7    1  0.5127424E-006  0.4391967E+02  0.7818608E-02  0.1565733E+00
          2   -1    0    0  502    0  0.00000000000E+00  0.00000000000E+00  0.18586600088E+04  0.18586600088E+04  0.00000000000E+00 0. -1.
          1   -1    0    0  501    0 -0.00000000000E+00 -0.00000000000E+00 -0.20471513138E+03  0.20471513138E+03  0.00000000000E+00 0. -1.
         25    2    1    2    0    0 -0.27284891498E+02 -0.10488707160E+02  0.15770167421E+03  0.20335840457E+03  0.12502137568E+03 0.  0.
          2    1    1    2  501    0 -0.16008267587E+02  0.19217370239E+02 -0.18073482886E+03  0.18245725612E+03  0.00000000000E+00 0. -1.
          1    1    1    2  502    0  0.43293159085E+02 -0.87286630790E+01  0.16769780320E+04  0.16775594794E+04  0.00000000000E+00 0. -1.
         22    1    3    3    0    0  0.28011230152E+02 -0.44095890137E+02  0.30110710492E+02  0.60297026692E+02  0.00000000000E+00 0. -1.
         22    1    3    3    0    0 -0.55296121650E+02  0.33607182977E+02  0.12759096372E+03  0.14306137788E+03  0.00000000000E+00 0. -1.
</event>
<event>
 7    1  0.5127424E-006  0.3809656E+02  0.7818608E-02  0.1585963E+00
          2   -1    0    0  502    0  0.00000000000E+00  0.00000000000E+00  0.40221196360E+03  0.40221196360E+03  0.00000000000E+00 0. -1.
          1   -1    0    0  501    0 -0.00000000000E+00 -0.00000000000E+00 -0.15676281147E+04  0.15676281147E+04  0.00000000000E+00 0. -1.
         25    2    1    2    0    0 -0.34637343535E+02 -0.50919194552E+02 -0.16047464260E+02  0.14026817841E+03  0.12500052330E+03 0.  0.
          2    1    1    2  501    0  0.27129792670E+02  0.26621323352E+02 -0.14887519783E+04  0.14892371113E+04  0.00000000000E+00 0. -1.
          1    1    1    2  502    0  0.75075508651E+01  0.24297871200E+02  0.33938329146E+03  0.34033478869E+03  0.00000000000E+00 0. -1.
         22    1    3    3    0    0 -0.64481434866E+02 -0.75831981274E+02 -0.42076792389E+01  0.99629560828E+02  0.00000000000E+00 0. -1.
         22    1    3    3    0    0  0.29844091331E+02  0.24912786722E+02 -0.11839785021E+02  0.40638617582E+02  0.00000000000E+00 0. -1.
</event>
<event>
 7    1  0.5127424E-006  0.2057274E+03  0.7818608E-02  0.1253599E+00
          2   -1    0    0  502    0  0.00000000000E+00  0.00000000000E+00  0.56239926563E+03  0.56239926563E+03  0.00000000000E+00 0. -1.
          1   -1    0    0  501    0 -0.00000000000E+00 -0.00000000000E+00 -0.16992156886E+04  0.16992156886E+04  0.00000000000E+00 0. -1.
         25    2    1    2    0    0  0.23657337889E+03  0.11306519303E+03  0.38039003397E+02  0.29295435269E+03  0.12499834203E+03 0.  0.
          2    1    1    2  501    0 -0.17401689970E+03 -0.10554782363E+03 -0.15626160389E+04  0.15758144274E+04  0.00000000000E+00 0. -1.
          1    1    1    2  502    0 -0.62556479188E+02 -0.75173693970E+01  0.38776061254E+03  0.39284617418E+03  0.00000000000E+00 0. -1.
         22    1    3    3    0    0  0.20408752100E+03  0.12477556367E+03 -0.31189695676E+01  0.23922873049E+03  0.00000000000E+00 0.  1.
         22    1    3    3    0    0  0.32485857884E+02 -0.11710370643E+02  0.41157972964E+02  0.53725622208E+02  0.00000000000E+00 0.  1.
</event>
<event>
 7    1  0.5127424E-006  0.1222604E+03  0.7818608E-02  0.1433600E+00
          2   -1    0    0  502    0  0.00000000000E+00  0.00000000000E+00  0.28001462869E+04  0.28001462869E+04  0.00000000000E+00 0. -1.
          1   -1    0    0  501    0 -0.00000000000E+00 -0.00000000000E+00 -0.97209570802E+03  0.97209570802E+03  0.00000000000E+00 0. -1.
         25    2    1    2    0    0 -0.44642559727E+02  0.11969275020E+03 -0.15721785347E+03  0.23803670346E+03  0.12499882462E+03 0.  0.
          2    1    1    2  501    0 -0.17187274916E+02 -0.14247633111E+02 -0.77295365014E+03  0.77327598097E+03  0.00000000000E+00 0. -1.
          1    1    1    2  502    0  0.61829834643E+02 -0.10544511709E+03  0.27582220825E+04  0.27609293105E+04  0.00000000000E+00 0. -1.
         22    1    3    3    0    0 -0.34511621781E+02 -0.15085316403E+02 -0.11714637110E+02  0.39444283889E+02  0.00000000000E+00 0. -1.
         22    1    3    3    0    0 -0.10130937946E+02  0.13477806660E+03 -0.14550321636E+03  0.19859241957E+03  0.00000000000E+00 0. -1.
</event>
<event>
 7    1  0.5127424E-006  0.1269159E+03  0.7818608E-02  0.1376175E+00
          2   -1    0    0  502    0  0.00000000000E+00  0.00000000000E+00  0.12965090399E+03  0.12965090399E+03  0.00000000000E+00 0. -1.
          1   -1    0    0  501    0 -0.00000000000E+00 -0.00000000000E+00 -0.22368420940E+04  0.22368420940E+04  0.00000000000E+00 0. -1.
         25    2    1    2    0    0  0.14098880423E+03  0.61609211409E+02 -0.78573772687E+03  0.81035953079E+03  0.12500102343E+03 0.  0.
          2    1    1    2  501    0 -0.19931128060E+02 -0.27277255014E+02 -0.14047973618E+04  0.14052035177E+04  0.00000000000E+00 0. -1.
          1    1    1    2  502    0 -0.12105767617E+03 -0.34331956395E+02  0.83343898693E+02  0.15092994944E+03  0.00000000000E+00 0. -1.
         22    1    3    3    0    0  0.13454662918E+03  0.16581159360E+02 -0.40889859792E+03  0.43078508986E+03  0.00000000000E+00 0.  1.
         22    1    3    3    0    0  0.64421750456E+01  0.45028052048E+02 -0.37683912896E+03  0.37957444092E+03  0.00000000000E+00 0.  1.
</event>
<event>
 7    1  0.5127424E-006  0.1255429E+03  0.7818608E-02  0.1353474E+00
          2   -1    0    0  502    0  0.00000000000E+00  0.00000000000E+00  0.10957371488E+04  0.10957371488E+04  0.00000000000E+00 0. -1.
          1   -1    0    0  501    0 -0.00000000000E+00 -0.00000000000E+00 -0.86746013647E+03  0.86746013647E+03  0.00000000000E+00 0. -1.
         25    2    1    2    0    0 -0.17844006126E+02  0.16203327202E+03 -0.97042909030E+02  0.22719019953E+03  0.12499948310E+03 0.  0.
          2    1    1    2  501    0  0.66030634999E+01 -0.12231922139E+03 -0.69960654325E+03  0.71024989104E+03  0.00000000000E+00 0. -1.
          1    1    1    2  502    0  0.11240942626E+02 -0.39714050636E+02  0.10249264646E+04  0.10257571947E+04  0.00000000000E+00 0. -1.
         22    1    3    3    0    0  0.32636884926E+02  0.37283511212E+02  0.15328667717E+02  0.51867085130E+02  0.00000000000E+00 0.  1.
         22    1    3    3    0    0 -0.50480891052E+02  0.12474976081E+03 -0.11237157675E+03  0.17532311440E+03  0.00000000000E+00 0.  1.
</event>
<event>
 7    1  0.1099449E-005  0.8839253E+02  0.7818608E-02  0.1453161E+00
          2   -1    0    0  502    0  0.00000000000E+00  0.00000000000E+00  0.25123471157E+04  0.25123471157E+04  0.00000000000E+00 0. -1.
          1   -1    0    0  501    0 -0.00000000000E+00 -0.00000000000E+00 -0.27795201026E+04  0.27795201026E+04  0.00000000000E+00 0. -1.
         25    2    1    2    0    0  0.30173304525E+02  0.10716200080E+03 -0.98009992811E+03  0.99429241910E+03  0.12500969116E+03 0.  0.
          2    1    1    2  501    0 -0.18113369146E+02 -0.19613481374E+02 -0.17914450516E+04  0.17916439813E+04  0.00000000000E+00 0. -1.
          1    1    1    2  502    0 -0.12059935379E+02 -0.87548519422E+02  0.25043719929E+04  0.25059308179E+04  0.00000000000E+00 0. -1.
         22    1    3    3    0    0  0.17281796216E+02  0.37197380091E+02 -0.67929338264E+02  0.79351752111E+02  0.00000000000E+00 0.  1.
         22    1    3    3    0    0  0.12891508309E+02  0.69964620705E+02 -0.91217058984E+03  0.91494066699E+03  0.00000000000E+00 0.  1.
</event>
<event>
 7    1  0.5127424E-006  0.7188425E+02  0.7818608E-02  0.1379350E+00
          2   -1    0    0  502    0  0.00000000000E+00  0.00000000000E+00  0.60168321909E+03  0.60168321909E+03  0.00000000000E+00 0. -1.
          1   -1    0    0  501    0 -0.00000000000E+00 -0.00000000000E+00 -0.10923822446E+04  0.10923822446E+04  0.00000000000E+00 0. -1.
         25    2    1    2    0    0  0.89971453050E+02 -0.39331370774E+02 -0.64951352657E+01  0.15908625376E+03  0.12499772103E+03 0.  0.
          2    1    1    2  501    0 -0.36389541850E+02  0.61837357944E+02 -0.10067036440E+04  0.10092572935E+04  0.00000000000E+00 0. -1.
          1    1    1    2  502    0 -0.53581911200E+02 -0.22505987170E+02  0.52249975380E+03  0.52572191641E+03  0.00000000000E+00 0. -1.
         22    1    3    3    0    0  0.52911435820E+02  0.36810038930E+02  0.24435753645E+02  0.68932612476E+02  0.00000000000E+00 0.  1.
         22    1    3    3    0    0  0.37060017230E+02 -0.76141409704E+02 -0.30930888911E+02  0.90153641289E+02  0.00000000000E+00 0.  1.
</event>
<event>
 7    1  0.5127424E-006  0.3403286E+02  0.7818608E-02  0.1577666E+00
          2   -1    0    0  502    0  0.00000000000E+00  0.00000000000E+00  0.79027546897E+01  0.79027546897E+01  0.00000000000E+00 0. -1.
          1   -1    0    0  501    0 -0.00000000000E+00 -0.00000000000E+00 -0.12921429721E+04  0.12921429721E+04  0.00000000000E+00 0. -1.
         25    2    1    2    0    0  0.11923775485E+01  0.35974363370E+00 -0.81608182356E+03  0.82560047414E+03  0.12500019590E+03 0.  0.
          2    1    1    2  501    0  0.66225276858E+01  0.33382298931E+02 -0.33966681266E+03  0.34136751365E+03  0.00000000000E+00 0. -1.
          1    1    1    2  502    0 -0.78149052343E+01 -0.33742042564E+02 -0.12849158123E+03  0.13307773904E+03  0.00000000000E+00 0. -1.
         22    1    3    3    0    0 -0.48170583178E+02  0.18473262470E+01 -0.66299004635E+03  0.66474026451E+03  0.00000000000E+00 0. -1.
         22    1    3    3    0    0  0.49362960727E+02 -0.14875826133E+01 -0.15309177721E+03  0.16086020963E+03  0.00000000000E+00 0. -1.
</event>
<event>
 7    1  0.5127424E-006  0.7023156E+02  0.7818608E-02  0.1367103E+00
          2   -1    0    0  502    0  0.00000000000E+00  0.00000000000E+00  0.46771096615E+03  0.46771096615E+03  0.00000000000E+00 0. -1.
          1   -1    0    0  501    0 -0.00000000000E+00 -0.00000000000E+00 -0.12499618161E+04  0.12499618161E+04  0.00000000000E+00 0. -1.
         25    2    1    2    0    0  0.23335511935E+02  0.46678175113E+01  0.24110523751E+03  0.27262365458E+03  0.12500234736E+03 0.  0.
          2    1    1    2  501    0 -0.11889958072E+02 -0.69463909646E+02 -0.12280341206E+04  0.12300546358E+04  0.00000000000E+00 0. -1.
          1    1    1    2  502    0 -0.11445553864E+02  0.64796092135E+02  0.20467803314E+03  0.21499449181E+03  0.00000000000E+00 0. -1.
         22    1    3    3    0    0  0.30347356335E+01  0.63922127821E+02  0.10841688688E+03  0.12589467584E+03  0.00000000000E+00 0. -1.
         22    1    3    3    0    0  0.20300776302E+02 -0.59254310309E+02  0.13268835063E+03  0.14672897874E+03  0.00000000000E+00 0. -1.
</event>
<event>
 7    1  0.5127424E-006  0.5097654E+02  0.7818608E-02  0.1478544E+00
          2   -1    0    0  502    0  0.00000000000E+00  0.00000000000E+00  0.12513655991E+04  0.12513655991E+04  0.00000000000E+00 0. -1.
          1   -1    0    0  501    0 -0.00000000000E+00 -0.00000000000E+00 -0.13599655897E+02  0.13599655897E+02  0.00000000000E+00 0. -1.
         25    2    1    2    0    0 -0.55121428768E+01 -0.17855094310E+02  0.53425616489E+03  0.54900260508E+03  0.12500009022E+03 0.  0.
          2    1    1    2  501    0 -0.22634304094E+02 -0.31213938158E+02  0.69867529192E+02  0.79800333912E+02  0.00000000000E+00 0. -1.
          1    1    1    2  502    0  0.28146446971E+02  0.49069032469E+02  0.63364224916E+03  0.63616231604E+03  0.00000000000E+00 0. -1.
         22    1    3    3    0    0  0.57049457170E+02 -0.26695467443E+02  0.25053878527E+03  0.25833499854E+03  0.00000000000E+00 0. -1.
         22    1    3    3    0    0 -0.62561600047E+02  0.88403731323E+01  0.28371737962E+03  0.29066760655E+03  0.00000000000E+00 0. -1.
</event>
<event>
 7    1  0.5127424E-006  0.8411709E+02  0.7818608E-02  0.1375966E+00
          2   -1    0    0  502    0  0.00000000000E+00  0.00000000000E+00  0.10199605339E+04  0.10199605339E+04  0.00000000000E+00 0. -1.
          1   -1    0    0  501    0 -0.00000000000E+00 -0.00000000000E+00 -0.42594145920E+03  0.42594145920E+03  0.00000000000E+00 0. -1.
         25    2    1    2    0    0 -0.10876857562E+03 -0.14951387121E+02  0.18193026168E+02  0.16736267067E+03  0.12500052125E+03 0.  0.
          2    1    1    2  501    0  0.29417934132E+02  0.41733292931E+02 -0.34759659691E+03  0.35132673791E+03  0.00000000000E+00 0. -1.
          1    1    1    2  502    0  0.79350641489E+02 -0.26781905810E+02  0.92342264545E+03  0.92721258453E+03  0.00000000000E+00 0. -1.
         22    1    3    3    0    0 -0.13559071459E+03 -0.29573267203E+01  0.23093622377E+02  0.13757508153E+03  0.00000000000E+00 0. -1.
         22    1    3    3    0    0  0.26822138965E+02 -0.11994060401E+02 -0.49005962093E+01  0.29787589140E+02  0.00000000000E+00 0. -1.
</event>
<event>
 7    1  0.5127424E-006  0.1269494E+03  0.7818608E-02  0.1340397E+00
          2   -1    0    0  502    0  0.00000000000E+00  0.00000000000E+00  0.98163806307E+03  0.98163806307E+03  0.00000000000E+00 0. -1.
          1   -1    0    0  501    0 -0.00000000000E+00 -0.00000000000E+00 -0.11358572102E+03  0.11358572102E+03  0.00000000000E+00 0. -1.
         25    2    1    2    0    0  0.45784136584E+02  0.72096154553E+02  0.43377010563E+03  0.45943283765E+03  0.12501193987E+03 0.  0.
          2    1    1    2  501    0 -0.73483448433E+02 -0.10839231208E+03 -0.56692276116E+02  0.14269801920E+03  0.00000000000E+00 0. -1.
          1    1    1    2  502    0  0.27699311849E+02  0.36296157529E+02  0.49097451253E+03  0.49309292723E+03  0.00000000000E+00 0. -1.
         22    1    3    3    0    0 -0.20688010375E+02  0.74561621828E+02  0.30291106378E+03  0.31263803637E+03  0.00000000000E+00 0. -1.
         22    1    3    3    0    0  0.66472146959E+02 -0.24654672752E+01  0.13085904185E+03  0.14679480129E+03  0.00000000000E+00 0. -1.
</event>
<event>
 7    1  0.5127424E-006  0.1371471E+03  0.7818608E-02  0.1361539E+00
          2   -1    0    0  502    0  0.00000000000E+00  0.00000000000E+00  0.18154578626E+03  0.18154578626E+03  0.00000000000E+00 0. -1.
          1   -1    0    0  501    0 -0.00000000000E+00 -0.00000000000E+00 -0.39955797648E+03  0.39955797648E+03  0.00000000000E+00 0. -1.
         25    2    1    2    0    0  0.98355766167E+02 -0.49476345583E+02 -0.28206353729E+02  0.16894501862E+03  0.12500022166E+03 0.  0.
          2    1    1    2  501    0 -0.13334761949E+03  0.54107697366E+02 -0.28026782555E+03  0.31505441526E+03  0.00000000000E+00 0. -1.
          1    1    1    2  502    0  0.34991853321E+02 -0.46313517823E+01  0.90461989066E+02  0.97104328862E+02  0.00000000000E+00 0. -1.
         22    1    3    3    0    0  0.90969613729E+02  0.16437267162E+02  0.90274371086E+01  0.92882447182E+02  0.00000000000E+00 0.  1.
         22    1    3    3    0    0  0.73861524385E+01 -0.65913612746E+02 -0.37233790838E+02  0.76062571434E+02  0.00000000000E+00 0.  1.
</event>
<event>
 7    1  0.5127424E-006  0.2442333E+03  0.7818608E-02  0.1290769E+00
          2   -1    0    0  502    0  0.00000000000E+00  0.00000000000E+00  0.93492855169E+03  0.93492855169E+03  0.00000000000E+00 0. -1.
          1   -1    0    0  501    0 -0.00000000000E+00 -0.00000000000E+00 -0.24929311313E+04  0.24929311313E+04  0.00000000000E+00 0. -1.
         25    2    1    2    0    0 -0.50591841587E+01  0.26452689006E+03 -0.53543949581E+03  0.61018131919E+03  0.12500287079E+03 0.  0.
          2    1    1    2  501    0  0.29801072737E+02 -0.22086350047E+02 -0.19033946968E+04  0.19037560985E+04  0.00000000000E+00 0. -1.
          1    1    1    2  502    0 -0.24741888578E+02 -0.24244054001E+03  0.88083161301E+03  0.91392226528E+03  0.00000000000E+00 0. -1.
         22    1    3    3    0    0  0.33744846052E+02  0.23059506853E+03 -0.37358263667E+03  0.44031441799E+03  0.00000000000E+00 0. -1.
         22    1    3    3    0    0 -0.38804030211E+02  0.33931821527E+02 -0.16185685915E+03  0.16986690121E+03  0.00000000000E+00 0. -1.
</event>
<event>
 7    1  0.5127424E-006  0.1490212E+03  0.7818608E-02  0.1306677E+00
          2   -1    0    0  502    0  0.00000000000E+00  0.00000000000E+00  0.15716689063E+04  0.15716689063E+04  0.00000000000E+00 0. -1.
          1   -1    0    0  501    0 -0.00000000000E+00 -0.00000000000E+00 -0.28160542838E+03  0.28160542838E+03  0.00000000000E+00 0. -1.
         25    2    1    2    0    0 -0.13162674387E+03  0.13982585848E+03  0.48253964341E+03  0.53417628657E+03  0.12499170880E+03 0.  0.
          2    1    1    2  501    0  0.82158799010E+02 -0.12228711676E+03 -0.23385811395E+03  0.27639432816E+03  0.00000000000E+00 0. -1.
          1    1    1    2  502    0  0.49467944855E+02 -0.17538741713E+02  0.10413819484E+04  0.10427037199E+04  0.00000000000E+00 0. -1.
         22    1    3    3    0    0 -0.16444395806E+02 -0.22107753769E+02  0.91225111773E+02  0.95295288174E+02  0.00000000000E+00 0. -1.
         22    1    3    3    0    0 -0.11518234806E+03  0.16193361225E+03  0.39131453164E+03  0.43888099840E+03  0.00000000000E+00 0. -1.
</event>
<event>
 7    1  0.5127424E-006  0.1701441E+03  0.7818608E-02  0.1385237E+00
          2   -1    0    0  502    0  0.00000000000E+00  0.00000000000E+00  0.81318900920E+03  0.81318900920E+03  0.00000000000E+00 0. -1.
          1   -1    0    0  501    0 -0.00000000000E+00 -0.00000000000E+00 -0.38176289749E+03  0.38176289749E+03  0.00000000000E+00 0. -1.
         25    2    1    2    0    0 -0.49953610745E+02  0.17083068422E+03 -0.14276891001E+03  0.26016607287E+03  0.12499975162E+03 0.  0.
          2    1    1    2  501    0  0.27839633786E+02 -0.16315965032E+03 -0.14207609211E+03  0.21813237415E+03  0.00000000000E+00 0. -1.
          1    1    1    2  502    0  0.22113976958E+02 -0.76710338951E+01  0.71627111384E+03  0.71665345967E+03  0.00000000000E+00 0. -1.
         22    1    3    3    0    0  0.67140762218E+01  0.22426206917E+02 -0.89663248858E+02  0.92668828480E+02  0.00000000000E+00 0.  1.
         22    1    3    3    0    0 -0.56667686966E+02  0.14840447730E+03 -0.53105661156E+02  0.16749724438E+03  0.00000000000E+00 0.  1.
</event>
<event>
 7    1  0.5127424E-006  0.8613681E+02  0.7818608E-02  0.1473653E+00
          2   -1    0    0  502    0  0.00000000000E+00  0.00000000000E+00  0.15354946502E+04  0.15354946502E+04  0.00000000000E+00 0. -1.
          1   -1    0    0  501    0 -0.00000000000E+00 -0.00000000000E+00 -0.32899214115E+03  0.32899214115E+03  0.00000000000E+00 0. -1.
         25    2    1    2    0    0  0.11537192264E+02  0.10766747266E+03  0.37007974948E+02  0.16947148644E+03  0.12500241210E+03 0.  0.
          2    1    1    2  501    0 -0.97353437949E+01 -0.84111655299E+02 -0.25583858251E+03  0.26948641482E+03  0.00000000000E+00 0. -1.
          1    1    1    2  502    0 -0.18018484694E+01 -0.23555817362E+02  0.14253331167E+04  0.14255288901E+04  0.00000000000E+00 0. -1.
         22    1    3    3    0    0 -0.22317439233E+02  0.89535327600E+02 -0.25834494190E+02  0.95823087366E+02  0.00000000000E+00 0. -1.
         22    1    3    3    0    0  0.33854631498E+02  0.18132145061E+02  0.62842469138E+02  0.73648399071E+02  0.00000000000E+00 0. -1.
</event>
<event>
 7    1  0.5127424E-006  0.6068066E+02  0.7818608E-02  0.1518524E+00
          2   -1    0    0  502    0  0.00000000000E+00  0.00000000000E+00  0.12083881107E+04  0.12083881107E+04  0.00000000000E+00 0. -1.
          1   -1    0    0  501    0 -0.00000000000E+00 -0.00000000000E+00 -0.23807825061E+04  0.23807825061E+04  0.00000000000E+00 0. -1.
         25    2    1    2    0    0 -0.45730058556E+02 -0.12155755467E+02 -0.76705013496E+03  0.77861053489E+03  0.12501781815E+03 0.  0.
          2    1    1    2  501    0  0.50773937045E+02  0.36228363147E+02 -0.16072214242E+04  0.16084312834E+04  0.00000000000E+00 0. -1.
          1    1    1    2  502    0 -0.50438784892E+01 -0.24072607679E+02  0.12018771638E+04  0.12021287985E+04  0.00000000000E+00 0. -1.
         22    1    3    3    0    0 -0.87722261005E+02 -0.17030269976E+02 -0.45316917519E+03  0.46189557967E+03  0.00000000000E+00 0. -1.
         22    1    3    3    0    0  0.41992202449E+02  0.48745145082E+01 -0.31388095976E+03  0.31671495522E+03  0.00000000000E+00 0. -1.
</event>
<event>
 7    1  0.5127424E-006  0.9987019E+02  0.7818608E-02  0.1397679E+00
          2   -1    0    0  502    0  0.00000000000E+00  0.00000000000E+00  0.64572233871E+02  0.64572233871E+02  0.00000000000E+00 0. -1.
          1   -1    0    0  501    0 -0.00000000000E+00 -0.00000000000E+00 -0.35454768482E+03  0.35454768482E+03  0.00000000000E+00 0. -1.
         25    2    1    2    0    0  0.45771643271E+02  0.76552094379E+02 -0.14583167736E+03  0.21177270094E+03  0.12500212903E+03 0.  0.
          2    1    1    2  501    0 -0.81422689478E+02 -0.70936972742E+02 -0.12893177295E+03  0.16818177826E+03  0.00000000000E+00 0. -1.
          1    1    1    2  502    0  0.35651046207E+02 -0.56151216372E+01 -0.15212000645E+02  0.39165439488E+02  0.00000000000E+00 0. -1.
         22    1    3    3    0    0  0.26690361763E+02 -0.16236488327E+02 -0.10332168854E+03  0.10794151327E+03  0.00000000000E+00 0.  1.
         22    1    3    3    0    0  0.19081281508E+02  0.92788582707E+02 -0.42509988818E+02  0.10383118767E+03  0.00000000000E+00 0.  1.
</event>
<event>
 7    1  0.5127424E-006  0.3483083E+02  0.7818608E-02  0.1569252E+00
          2   -1    0    0  502    0  0.00000000000E+00  0.00000000000E+00  0.32052038326E+04  0.32052038326E+04  0.00000000000E+00 0. -1.
          1   -1    0    0  501    0 -0.00000000000E+00 -0.00000000000E+00 -0.88178449017E+01  0.88178449017E+01  0.00000000000E+00 0. -1.
         25    2    1    2    0    0 -0.23379833617E+02  0.59173595520E+02  0.18924598187E+04  0.18976505137E+04  0.12500070216E+03 0.  0.
          2    1    1    2  501    0  0.61842930755E+01 -0.33561670412E+02  0.42219225639E+02  0.54287145949E+02  0.00000000000E+00 0. -1.
          1    1    1    2  502    0  0.17195540541E+02 -0.25611925108E+02  0.12617069434E+04  0.12620840179E+04  0.00000000000E+00 0. -1.
         22    1    3    3    0    0  0.21657749734E+02 -0.11646203099E+02  0.11812327926E+04  0.11814887229E+04  0.00000000000E+00 0.  1.
         22    1    3    3    0    0 -0.45037583351E+02  0.70819798619E+02  0.71122702616E+03  0.71616179075E+03  0.00000000000E+00 0.  1.
</event>
<event>
 7    1  0.5127424E-006  0.4962962E+02  0.7818608E-02  0.1575234E+00
          2   -1    0    0  502    0  0.00000000000E+00  0.00000000000E+00  0.18502735966E+03  0.18502735966E+03  0.00000000000E+00 0. -1.
          1   -1    0    0  501    0 -0.00000000000E+00 -0.00000000000E+00 -0.14187621138E+03  0.14187621138E+03  0.00000000000E+00 0. -1.
         25    2    1    2    0    0  0.26099316141E+02 -0.23240941281E+02  0.39210592517E+02  0.13558661166E+03  0.12499977216E+03 0.  0.
          2    1    1    2  501    0  0.14399659064E+01 -0.20807561527E+02 -0.85433083115E+02  0.87942252695E+02  0.00000000000E+00 0. -1.
          1    1    1    2  502    0 -0.27539282047E+02  0.44048502809E+02  0.89373638878E+02  0.10337470668E+03  0.00000000000E+00 0. -1.
         22    1    3    3    0    0  0.23642826021E+02 -0.36539065704E+02 -0.37649300977E+02  0.57546124186E+02  0.00000000000E+00 0.  1.
         22    1    3    3    0    0  0.24564901203E+01  0.13298124423E+02  0.76859893494E+02  0.78040487471E+02  0.00000000000E+00 0.  1.
</event>
<event>
 7    1  0.5127424E-006  0.1090493E+03  0.7818608E-02  0.1420915E+00
          2   -1    0    0  502    0  0.00000000000E+00  0.00000000000E+00  0.76082131987E+03  0.76082131987E+03  0.00000000000E+00 0. -1.
          1   -1    0    0  501    0 -0.00000000000E+00 -0.00000000000E+00 -0.39661586363E+03  0.39661586363E+03  0.00000000000E+00 0. -1.
         25    2    1    2    0    0  0.24761286016E+02  0.94663879176E+02 -0.12715575490E+03  0.20339155535E+03  0.12500066991E+03 0.  0.
          2    1    1    2  501    0 -0.23302933539E+02  0.14726837408E+02 -0.22636106945E+03  0.22803341908E+03  0.00000000000E+00 0. -1.
          1    1    1    2  502    0 -0.14583524776E+01 -0.10939071658E+03  0.71772228059E+03  0.72601220908E+03  0.00000000000E+00 0. -1.
         22    1    3    3    0    0  0.66329617332E+02  0.15202073254E+02 -0.66353740125E+02  0.95044936715E+02  0.00000000000E+00 0. -1.
         22    1    3    3    0    0 -0.41568331316E+02  0.79461805922E+02 -0.60802014777E+02  0.10834661864E+03  0.00000000000E+00 0. -1.
</event>
<event>
 7    1  0.5127424E-006  0.5967405E+02  0.7818608E-02  0.1447595E+00
          2   -1    0    0  502    0  0.00000000000E+00  0.00000000000E+00  0.18168079459E+04  0.18168079459E+04  0.00000000000E+00 0. -1.
          1   -1    0    0  501    0 -0.00000000000E+00 -0.00000000000E+00 -0.11159092290E+03  0.11159092290E+03  0.00000000000E+00 0. -1.
         25    2    1    2    0    0 -0.74317875200E+02 -0.41573325211E+02  0.13178392622E+03  0.20060764569E+03  0.12499974543E+03 0.  0.
          2    1    1    2  501    0  0.33600850279E+02  0.47870048936E+02 -0.65802984858E+02  0.88037443971E+02  0.00000000000E+00 0. -1.
          1    1    1    2  502    0  0.40717024921E+02 -0.62967237254E+01  0.16392360816E+04  0.16397537791E+04  0.00000000000E+00 0. -1.
         22    1    3    3    0    0 -0.63603032686E+02 -0.29016417953E+02  0.15620251498E+03  0.17113305923E+03  0.00000000000E+00 0.  1.
         22    1    3    3    0    0 -0.10714842514E+02 -0.12556907258E+02 -0.24418588757E+02  0.29474586458E+02  0.00000000000E+00 0.  1.
</event>
<event>
 7    1  0.5127424E-006  0.8078725E+02  0.7818608E-02  0.1373930E+00
          2   -1    0    0  502    0  0.00000000000E+00  0.00000000000E+00  0.18558577673E+03  0.18558577673E+03  0.00000000000E+00 0. -1.
          1   -1    0    0  501    0 -0.00000000000E+00 -0.00000000000E+00 -0.22777436543E+04  0.22777436543E+04  0.00000000000E+00 0. -1.
         25    2    1    2    0    0 -0.29636946608E+01  0.58808363816E+02 -0.41971294204E+02  0.14440616108E+03  0.12499737069E+03 0.  0.
          2    1    1    2  501    0  0.57018820220E+02 -0.57995124572E+02 -0.21783274729E+04  0.21798452145E+04  0.00000000000E+00 0. -1.
          1    1    1    2  502    0 -0.54055125560E+02 -0.81323924424E+00  0.12814088946E+03  0.13907805545E+03  0.00000000000E+00 0. -1.
         22    1    3    3    0    0 -0.23731562415E+02  0.63265840565E+02  0.26602128453E+02  0.72618364587E+02  0.00000000000E+00 0.  1.
         22    1    3    3    0    0  0.20767867754E+02 -0.44574767488E+01 -0.68573422657E+02  0.71787796490E+02  0.00000000000E+00 0.  1.
</event>
<event>
 7    1  0.5127424E-006  0.1511343E+03  0.7818608E-02  0.1410128E+00
          2   -1    0    0  502    0  0.00000000000E+00  0.00000000000E+00  0.71291652917E+03  0.71291652917E+03  0.00000000000E+00 0. -1.
          1   -1    0    0  501    0 -0.00000000000E+00 -0.00000000000E+00 -0.18166139185E+03  0.18166139185E+03  0.00000000000E+00 0. -1.
         25    2    1    2    0    0 -0.13390443777E+03  0.10874328403E+02  0.11161518707E+03  0.21478291074E+03  0.12500039716E+03 0.  0.
          2    1    1    2  501    0 -0.19476623198E+02  0.93907023923E+01 -0.11819151669E+03  0.12015306388E+03  0.00000000000E+00 0. -1.
          1    1    1    2  502    0  0.15338106097E+03 -0.20265030795E+02  0.53783146694E+03  0.55964194640E+03  0.00000000000E+00 0. -1.
         22    1    3    3    0    0 -0.14136143159E+03 -0.26879166031E+02  0.77941186414E+02  0.16364709727E+03  0.00000000000E+00 0.  1.
         22    1    3    3    0    0  0.74569938184E+01  0.37753494434E+02  0.33674000654E+02  0.51135813466E+02  0.00000000000E+00 0.  1.
</event>
<event>
 7    1  0.5127424E-006  0.6479484E+02  0.7818608E-02  0.1538975E+00
          2   -1    0    0  502    0  0.00000000000E+00  0.00000000000E+00  0.29132786998E+04  0.29132786998E+04  0.00000000000E+00 0. -1.
          1   -1    0    0  501    0 -0.00000000000E+00 -0.00000000000E+00 -0.12933972708E+02  0.12933972708E+02  0.00000000000E+00 0. -1.
         25    2    1    2    0    0 -0.38618023067E+02  0.47800493408E+02  0.50245353716E+03  0.52140259100E+03  0.12499946408E+03 0.  0.
          2    1    1    2  501    0  0.15364651459E+02  0.12992897160E+02  0.30592697557E+02  0.36616950103E+02  0.00000000000E+00 0. -1.
          1    1    1    2  502    0  0.23253371609E+02 -0.60793390568E+02  0.23672984924E+04  0.23681931314E+04  0.00000000000E+00 0. -1.
         22    1    3    3    0    0  0.43707571141E+02  0.30093779471E+02  0.15281724394E+03  0.16176865390E+03  0.00000000000E+00 0.  1.
         22    1    3    3    0    0 -0.82325594209E+02  0.17706713938E+02  0.34963629321E+03  0.35963393710E+03  0.00000000000E+00 0.  1.
</event>
<event>
 7    1  0.5127424E-006  0.1172124E+03  0.7818608E-02  0.1364658E+00
          2   -1    0    0  502    0  0.00000000000E+00  0.00000000000E+00  0.25730028542E+04  0.25730028542E+04  0.00000000000E+00 0. -1.
          1   -1    0    0  501    0 -0.00000000000E+00 -0.00000000000E+00 -0.73866294357E+02  0.73866294357E+02  0.00000000000E+00 0. -1.
         25    2    1    2    0    0  0.11683781058E+03 -0.26492821659E+02  0.75985519946E+03  0.77933758533E+03  0.12503681125E+03 0.  0.
          2    1    1    2  501    0 -0.11667446892E+03 -0.13743564976E+02 -0.98907252821E+01  0.11789675026E+03  0.00000000000E+00 0. -1.
          1    1    1    2  502    0 -0.16334166129E+00  0.40236386634E+02  0.17491720857E+04  0.17496348130E+04  0.00000000000E+00 0. -1.
         22    1    3    3    0    0  0.13911591705E+03 -0.87071732762E+00  0.60020609464E+03  0.61611796968E+03  0.00000000000E+00 0.  1.
         22    1    3    3    0    0 -0.22278106472E+02 -0.25622104331E+02  0.15964910483E+03  0.16321961564E+03  0.00000000000E+00 0.  1.
</event>
<event>
 7    1  0.5127424E-006  0.4246351E+02  0.7818608E-02  0.1493332E+00
          2   -1    0    0  502    0  0.00000000000E+00  0.00000000000E+00  0.85389245466E+02  0.85389245466E+02  0.00000000000E+00 0. -1.
          1   -1    0    0  501    0 -0.00000000000E+00 -0.00000000000E+00 -0.12373890004E+04  0.12373890004E+04  0.00000000000E+00 0. -1.
         25    2    1    2    0    0 -0.82262825192E+02 -0.89003673849E+01 -0.83194178768E+03  0.84533977269E+03  0.12500321698E+03 0.  0.
          2    1    1    2  501    0  0.40141628493E+02  0.11407490689E+02 -0.39190305703E+03  0.39411862084E+03  0.00000000000E+00 0. -1.
          1    1    1    2  502    0  0.42121196698E+02 -0.25071233037E+01  0.71845089744E+02  0.83319852370E+02  0.00000000000E+00 0. -1.
         22    1    3    3    0    0 -0.31049925199E+02  0.40484291768E+01 -0.72866511758E+03  0.72933760442E+03  0.00000000000E+00 0.  1.
         22    1    3    3    0    0 -0.51212899992E+02 -0.12948796562E+02 -0.10327667010E+03  0.11600216827E+03  0.00000000000E+00 0.  1.
</event>
<event>
 7    1  0.5127424E-006  0.1144687E+03  0.7818608E-02  0.1306732E+00
          2   -1    0    0  502    0  0.00000000000E+00  0.00000000000E+00  0.71279373219E+02  0.71279373219E+02  0.00000000000E+00 0. -1.
          1   -1    0    0  501    0 -0.00000000000E+00 -0.00000000000E+00 -0.18715883489E+04  0.18715883489E+04  0.00000000000E+00 0. -1.
         25    2    1    2    0    0 -0.47440679697E+02  0.96279631152E+02 -0.28891361564E+03  0.33258855175E+03  0.12499472784E+03 0.  0.
          2    1    1    2  501    0 -0.57066338329E+02 -0.37515984925E+02 -0.14861960337E+04  0.14877643183E+04  0.00000000000E+00 0. -1.
          1    1    1    2  502    0  0.10450701803E+03 -0.58763646227E+02 -0.25199326312E+02  0.12251485208E+03  0.00000000000E+00 0. -1.
         22    1    3    3    0    0 -0.44590582618E+02  0.99958525734E+02 -0.30065500467E+03  0.31995852662E+03  0.00000000000E+00 0. -1.
         22    1    3    3    0    0 -0.28500970788E+01 -0.36788945816E+01  0.11741389022E+02  0.12630025133E+02  0.00000000000E+00 0. -1.
</event>
<event>
 7    1  0.5127424E-006  0.2121768E+03  0.7818608E-02  0.1297950E+00
          2   -1    0    0  502    0  0.00000000000E+00  0.00000000000E+00  0.86858590481E+03  0.86858590481E+03  0.00000000000E+00 0. -1.
          1   -1    0    0  501    0 -0.00000000000E+00 -0.00000000000E+00 -0.18132408366E+03  0.18132408366E+03  0.00000000000E+00 0. -1.
         25    2    1    2    0    0  0.16971808724E+03  0.81598020046E+02  0.30711510597E+03  0.38132316702E+03  0.12500081351E+03 0.  0.
          2    1    1    2  501    0  0.35973203216E+02  0.17350867094E+02 -0.11587632134E+03  0.12256608742E+03  0.00000000000E+00 0. -1.
          1    1    1    2  502    0 -0.20569129046E+03 -0.98948887141E+02  0.49602303652E+03  0.54602073404E+03  0.00000000000E+00 0. -1.
         22    1    3    3    0    0  0.17120190829E+03  0.37090467503E+02  0.27636613111E+03  0.32720640979E+03  0.00000000000E+00 0.  1.
         22    1    3    3    0    0 -0.14838210464E+01  0.44507552543E+02  0.30748974854E+02  0.54116757228E+02  0.00000000000E+00 0.  1.
</event>
<event>
 7    1  0.5127424E-006  0.4111150E+02  0.7818608E-02  0.1509388E+00
          2   -1    0    0  502    0  0.00000000000E+00  0.00000000000E+00  0.13345691462E+04  0.13345691462E+04  0.00000000000E+00 0. -1.
          1   -1    0    0  501    0 -0.00000000000E+00 -0.00000000000E+00 -0.48936716260E+03  0.48936716260E+03  0.00000000000E+00 0. -1.
         25    2    1    2    0    0  0.39062772579E+02 -0.14479127388E+02 -0.15765357769E+03  0.20546386898E+03  0.12500082227E+03 0.  0.
          2    1    1    2  501    0 -0.29053387116E+02 -0.25427452790E+02 -0.30627329292E+03  0.30869723778E+03  0.00000000000E+00 0. -1.
          1    1    1    2  502    0 -0.10009385464E+02  0.39906580178E+02  0.13091288542E+04  0.13097752020E+04  0.00000000000E+00 0. -1.
         22    1    3    3    0    0 -0.20120987492E+02  0.42094249606E+02 -0.36486737203E+02  0.59228894800E+02  0.00000000000E+00 0.  1.
         22    1    3    3    0    0  0.59183760071E+02 -0.56573376994E+02 -0.12116684049E+03  0.14623497418E+03  0.00000000000E+00 0.  1.
</event>
<event>
 7    1  0.5127424E-006  0.8068853E+02  0.7818608E-02  0.1428188E+00
          2   -1    0    0  502    0  0.00000000000E+00  0.00000000000E+00  0.31766899813E+04  0.31766899813E+04  0.00000000000E+00 0. -1.
          1   -1    0    0  501    0 -0.00000000000E+00 -0.00000000000E+00 -0.20851134099E+02  0.20851134099E+02  0.00000000000E+00 0. -1.
         25    2    1    2    0    0 -0.46346211336E+02  0.35359852556E+02  0.48451413480E+03  0.50376237787E+03  0.12499718421E+03 0.  0.
          2    1    1    2  501    0 -0.32895189778E+02 -0.12644868644E+02  0.18742085902E+02  0.39915560845E+02  0.00000000000E+00 0. -1.
          1    1    1    2  502    0  0.79241401114E+02 -0.22714983912E+02  0.26525826265E+04  0.26538631767E+04  0.00000000000E+00 0. -1.
         22    1    3    3    0    0 -0.97427865822E+01 -0.45494524622E+02  0.12279313240E+03  0.13131194548E+03  0.00000000000E+00 0. -1.
         22    1    3    3    0    0 -0.36603424754E+02  0.80854377178E+02  0.36172100240E+03  0.37245043239E+03  0.00000000000E+00 0. -1.
</event>
<event>
 7    1  0.5127424E-006  0.3648079E+02  0.7818608E-02  0.1573754E+00
          2   -1    0    0  502    0  0.00000000000E+00  0.00000000000E+00  0.97090572077E+03  0.97090572077E+03  0.00000000000E+00 0. -1.
          1   -1    0    0  501    0 -0.00000000000E+00 -0.00000000000E+00 -0.19148867515E+03  0.19148867515E+03  0.00000000000E+00 0. -1.
         25    2    1    2    0    0  0.32625367800E+01 -0.13024957590E+02  0.33508250874E+02  0.13011121963E+03  0.12500333168E+03 0.  0.
          2    1    1    2  501    0 -0.21681911677E+02 -0.18708215952E+02 -0.14137235574E+03  0.14424370213E+03  0.00000000000E+00 0. -1.
          1    1    1    2  502    0  0.18419374897E+02  0.31733173542E+02  0.88728115048E+03  0.88803947416E+03  0.00000000000E+00 0. -1.
         22    1    3    3    0    0  0.44289163990E+02 -0.51420418348E+02  0.77752559419E+01  0.68308448049E+02  0.00000000000E+00 0. -1.
         22    1    3    3    0    0 -0.41026627210E+02  0.38395460758E+02  0.25732994932E+02  0.61802771582E+02  0.00000000000E+00 0. -1.
</event>
<event>
 7    1  0.5127424E-006  0.6882915E+02  0.7818608E-02  0.1366287E+00
          2   -1    0    0  502    0  0.00000000000E+00  0.00000000000E+00  0.34975953550E+04  0.34975953550E+04  0.00000000000E+00 0. -1.
          1   -1    0    0  501    0 -0.00000000000E+00 -0.00000000000E+00 -0.95648139054E+01  0.95648139054E+01  0.00000000000E+00 0. -1.
         25    2    1    2    0    0 -0.29682752545E+02  0.41222439747E+02  0.17889370863E+04  0.17940181540E+04  0.12499953129E+03 0.  0.
          2    1    1    2  501    0 -0.35371285270E+02 -0.63704066070E+02  0.20678807386E+03  0.21925018437E+03  0.00000000000E+00 0. -1.
          1    1    1    2  502    0  0.65054037815E+02  0.22481626322E+02  0.14923053809E+04  0.14938918304E+04  0.00000000000E+00 0. -1.
         22    1    3    3    0    0 -0.43103618349E+01 -0.30447215160E+02  0.14036740069E+03  0.14369627450E+03  0.00000000000E+00 0.  1.
         22    1    3    3    0    0 -0.25372390710E+02  0.71669654907E+02  0.16485696857E+04  0.16503218795E+04  0.00000000000E+00 0.  1.
</event>
<event>
 7    1  0.5127424E-006  0.5859643E+02  0.7818608E-02  0.1423654E+00
          2   -1    0    0  502    0  0.00000000000E+00  0.00000000000E+00  0.74313224865E+03  0.74313224865E+03  0.00000000000E+00 0. -1.
          1   -1    0    0  501    0 -0.00000000000E+00 -0.00000000000E+00 -0.71288655389E+02  0.71288655389E+02  0.00000000000E+00 0. -1.
         25    2    1    2    0    0  0.28391310220E+02 -0.47181530339E+02  0.11120199536E+03  0.17613416591E+03  0.12500078930E+03 0.  0.
          2    1    1    2  501    0 -0.49478930221E+02 -0.86877576570E+01 -0.20374161146E+02  0.54210221465E+02  0.00000000000E+00 0. -1.
          1    1    1    2  502    0  0.21087620001E+02  0.55869287996E+02  0.58101575905E+03  0.58407651667E+03  0.00000000000E+00 0. -1.
         22    1    3    3    0    0  0.82357403965E+01 -0.86057254913E+02  0.46943904499E+02  0.98373821276E+02  0.00000000000E+00 0. -1.
         22    1    3    3    0    0  0.20155569823E+02  0.38875724573E+02  0.64258090859E+02  0.77760344629E+02  0.00000000000E+00 0. -1.
</event>
<event>
 7    1  0.5127424E-006  0.1169473E+03  0.7818608E-02  0.1253987E+00
          2   -1    0    0  502    0  0.00000000000E+00  0.00000000000E+00  0.26648450426E+04  0.26648450426E+04  0.00000000000E+00 0. -1.
          1   -1    0    0  501    0 -0.00000000000E+00 -0.00000000000E+00 -0.12495297020E+03  0.12495297020E+03  0.00000000000E+00 0. -1.
         25    2    1    2    0    0  0.32422724191E+02  0.67282140755E+02  0.11890241884E+04  0.11979079647E+04  0.12500740620E+03 0.  0.
          2    1    1    2  501    0 -0.35814082279E+02  0.10444163106E+03 -0.88999028525E+02  0.14181512566E+03  0.00000000000E+00 0. -1.
          1    1    1    2  502    0  0.33913580884E+01 -0.17172377182E+03  0.14398669125E+04  0.14500749225E+04  0.00000000000E+00 0. -1.
         22    1    3    3    0    0  0.68641207947E+02  0.31127229675E+02  0.97258519150E+03  0.97550114023E+03  0.00000000000E+00 0.  1.
         22    1    3    3    0    0 -0.36218483757E+02  0.36154911081E+02  0.21643899693E+03  0.22240682443E+03  0.00000000000E+00 0.  1.
</event>
<event>
 7    1  0.5127424E-006  0.1836162E+03  0.7818608E-02  0.1259705E+00
          2   -1    0    0  502    0  0.00000000000E+00  0.00000000000E+00  0.32521489808E+03  0.32521489808E+03  0.00000000000E+00 0. -1.
          1   -1    0    0  501    0 -0.00000000000E+00 -0.00000000000E+00 -0.15583731831E+04  0.15583731831E+04  0.00000000000E+00 0. -1.
         25    2    1    2    0    0  0.13340001537E+03 -0.98848691388E+01 -0.28863944424E+03  0.34181300782E+03  0.12502051354E+03 0.  0.
          2    1    1    2  501    0 -0.19608378081E+03  0.31971171216E+02 -0.12313858218E+04  0.12473099242E+04  0.00000000000E+00 0. -1.
          1    1    1    2  502    0  0.62683765449E+02 -0.22086302077E+02  0.28686698109E+03  0.29446514909E+03  0.00000000000E+00 0. -1.
         22    1    3    3    0    0  0.35542438150E+02  0.10972104131E+02 -0.93767761548E+00  0.37209289405E+02  0.00000000000E+00 0.  1.
         22    1    3    3    0    0  0.97857577215E+02 -0.20856973270E+02 -0.28770176662E+03  0.30460371841E+03  0.00000000000E+00 0.  1.
</event>
<event>
 7    1  0.5127424E-006  0.8504094E+02  0.7818608E-02  0.1351743E+00
          2   -1    0    0  502    0  0.00000000000E+00  0.00000000000E+00  0.32707970400E+03  0.32707970400E+03  0.00000000000E+00 0. -1.
          1   -1    0    0  501    0 -0.00000000000E+00 -0.00000000000E+00 -0.33264560305E+04  0.33264560305E+04  0.00000000000E+00 0. -1.
         25    2    1    2    0    0 -0.44315202697E+02 -0.49181787120E+02  0.11697103831E+03  0.18355485033E+03  0.12500989521E+03 0.  0.
          2    1    1    2  501    0 -0.61133550282E+01  0.84964936571E+02 -0.32871894411E+04  0.32882929972E+04  0.00000000000E+00 0. -1.
          1    1    1    2  502    0  0.50428557725E+02 -0.35783149451E+02  0.17084207634E+03  0.18168788695E+03  0.00000000000E+00 0. -1.
         22    1    3    3    0    0 -0.10435594682E+02 -0.86619435088E+02  0.53091347054E+02  0.10212991385E+03  0.00000000000E+00 0.  1.
         22    1    3    3    0    0 -0.33879608014E+02  0.37437647967E+02  0.63879691259E+02  0.81424936475E+02  0.00000000000E+00 0.  1.
</event>
<event>
 7    1  0.5127424E-006  0.4742206E+02  0.7818608E-02  0.1519213E+00
          2   -1    0    0  502    0  0.00000000000E+00  0.00000000000E+00  0.31004423714E+04  0.31004423714E+04  0.00000000000E+00 0. -1.
          1   -1    0    0  501    0 -0.00000000000E+00 -0.00000000000E+00 -0.29401215036E+02  0.29401215036E+02  0.00000000000E+00 0. -1.
         25    2    1    2    0    0  0.71670918095E+02  0.27931052082E+02  0.10981775352E+04  0.11079422919E+04  0.12500143695E+03 0.  0.
          2    1    1    2  501    0 -0.30138734874E+02 -0.85459636857E+01 -0.14139183964E+02  0.34369948477E+02  0.00000000000E+00 0. -1.
          1    1    1    2  502    0 -0.41532183220E+02 -0.19385088397E+02  0.19870028051E+04  0.19875313460E+04  0.00000000000E+00 0. -1.
         22    1    3    3    0    0  0.16647925946E+02  0.54040403889E+02  0.20397005820E+03  0.21166318370E+03  0.00000000000E+00 0.  1.
         22    1    3    3    0    0  0.55022992149E+02 -0.26109351806E+02  0.89420747697E+03  0.89627910819E+03  0.00000000000E+00 0.  1.
</event>
<event>
 7    1  0.5127424E-006  0.3681449E+02  0.7818608E-02  0.1564736E+00
          2   -1    0    0  502    0  0.00000000000E+00  0.00000000000E+00  0.90673867848E+02  0.90673867848E+02  0.00000000000E+00 0. -1.
          1   -1    0    0  501    0 -0.00000000000E+00 -0.00000000000E+00 -0.10155109095E+04  0.10155109095E+04  0.00000000000E+00 0. -1.
         25    2    1    2    0    0  0.55789387852E+01  0.23008520590E+02 -0.29253507871E+03  0.31900261332E+03  0.12500151379E+03 0.  0.
          2    1    1    2  501    0 -0.29540894133E+02  0.53773699665E+01 -0.70494917162E+03  0.70558834677E+03  0.00000000000E+00 0. -1.
          1    1    1    2  502    0  0.23961955348E+02 -0.28385890556E+02  0.72647208675E+02  0.81593817260E+02  0.00000000000E+00 0. -1.
         22    1    3    3    0    0 -0.24513327482E+02  0.17918453992E+02 -0.28623299499E+03  0.28783902035E+03  0.00000000000E+00 0. -1.
         22    1    3    3    0    0  0.30092266267E+02  0.50900665978E+01 -0.63020837169E+01  0.31163592961E+02  0.00000000000E+00 0. -1.
</event>
<event>
 7    1  0.5127424E-006  0.1263125E+03  0.7818608E-02  0.1414359E+00
          2   -1    0    0  502    0  0.00000000000E+00  0.00000000000E+00  0.93640916239E+03  0.93640916239E+03  0.00000000000E+00 0. -1.
          1   -1    0    0  501    0 -0.00000000000E+00 -0.00000000000E+00 -0.16232038277E+04  0.16232038277E+04  0.00000000000E+00 0. -1.
         25    2    1    2    0    0  0.12192113866E+02 -0.14322819102E+03  0.20837928686E+02  0.19162964458E+03  0.12499895627E+03 0.  0.
          2    1    1    2  501    0 -0.17466849288E+02  0.17933250196E+02 -0.15329692505E+04  0.15331736416E+04  0.00000000000E+00 0. -1.
          1    1    1    2  502    0  0.52747354218E+01  0.12529494082E+03  0.82533665655E+03  0.83480970387E+03  0.00000000000E+00 0. -1.
         22    1    3    3    0    0  0.65202576763E+02 -0.91874281057E+02  0.31685022486E+02  0.11703076598E+03  0.00000000000E+00 0.  1.
         22    1    3    3    0    0 -0.53010462897E+02 -0.51353909960E+02 -0.10847093799E+02  0.74598878602E+02  0.00000000000E+00 0.  1.
</event>
<event>
 7    1  0.5127424E-006  0.1129858E+03  0.7818608E-02  0.1285446E+00
          2   -1    0    0  502    0  0.00000000000E+00  0.00000000000E+00  0.80640814524E+03  0.80640814524E+03  0.00000000000E+00 0. -1.
          1   -1    0    0  501    0 -0.00000000000E+00 -0.00000000000E+00 -0.64598240656E+03  0.64598240656E+03  0.00000000000E+00 0. -1.
         25    2    1    2    0    0 -0.10591852212E+03  0.11952460838E+03  0.97196976688E+01  0.20303326943E+03  0.12499268232E+03 0.  0.
          2    1    1    2  501    0  0.10584814514E+03 -0.35231939437E+02 -0.54107703006E+03  0.55245766520E+03  0.00000000000E+00 0. -1.
          1    1    1    2  502    0  0.70376984095E-01 -0.84292668946E+02  0.69178307107E+03  0.69689961717E+03  0.00000000000E+00 0. -1.
         22    1    3    3    0    0  0.15969820829E+02  0.42856570760E+01  0.29815570569E+02  0.34093551916E+02  0.00000000000E+00 0.  1.
         22    1    3    3    0    0 -0.12188834295E+03  0.11523895131E+03 -0.20095872901E+02  0.16893971751E+03  0.00000000000E+00 0.  1.
</event>
<event>
 7    1  0.5127424E-006  0.1699912E+03  0.7818608E-02  0.1254636E+00
          2   -1    0    0  502    0  0.00000000000E+00  0.00000000000E+00  0.22878497719E+04  0.22878497719E+04  0.00000000000E+00 0. -1.
          1   -1    0    0  501    0 -0.00000000000E+00 -0.00000000000E+00 -0.26169217871E+03  0.26169217871E+03  0.00000000000E+00 0. -1.
         25    2    1    2    0    0 -0.12257664823E+03 -0.11961202142E+03  0.10897104040E+03  0.23839630573E+03  0.12500416224E+03 0.  0.
          2    1    1    2  501    0  0.63589546567E+02 -0.40648329889E+02 -0.18616065183E+03  0.20087733930E+03  0.00000000000E+00 0. -1.
          1    1    1    2  502    0  0.58987101665E+02  0.16026035130E+03  0.21033472046E+04  0.21102683056E+04  0.00000000000E+00 0. -1.
         22    1    3    3    0    0  0.13813775793E+02 -0.25710918898E+02  0.58349799321E+02  0.65242400577E+02  0.00000000000E+00 0.  1.
         22    1    3    3    0    0 -0.13639042402E+03 -0.93901102517E+02  0.50621241082E+02  0.17315390515E+03  0.00000000000E+00 0.  1.
</event>
<event>
 7    1  0.5127424E-006  0.5850468E+02  0.7818608E-02  0.1545922E+00
          2   -1    0    0  502    0  0.00000000000E+00  0.00000000000E+00  0.42776503058E+03  0.42776503058E+03  0.00000000000E+00 0. -1.
          1   -1    0    0  501    0 -0.00000000000E+00 -0.00000000000E+00 -0.12836429239E+04  0.12836429239E+04  0.00000000000E+00 0. -1.
         25    2    1    2    0    0  0.89176016090E+00  0.66534675381E+02 -0.15986756779E+03  0.21356475638E+03  0.12499843068E+03 0.  0.
          2    1    1    2  501    0 -0.18934538957E+02 -0.55208456549E+02 -0.10958666481E+04  0.10974197925E+04  0.00000000000E+00 0. -1.
          1    1    1    2  502    0  0.18042778796E+02 -0.11326218831E+02  0.39985632257E+03  0.40042340565E+03  0.00000000000E+00 0. -1.
         22    1    3    3    0    0 -0.56696761675E+02  0.61655527943E+02 -0.91795369225E+02  0.12426711842E+03  0.00000000000E+00 0.  1.
         22    1    3    3    0    0  0.57588521836E+02  0.48791474379E+01 -0.68072198568E+02  0.89297637957E+02  0.00000000000E+00 0.  1.
</event>
<event>
 7    1  0.5127424E-006  0.7662236E+02  0.7818608E-02  0.1398579E+00
          2   -1    0    0  502    0  0.00000000000E+00  0.00000000000E+00  0.14383454284E+04  0.14383454284E+04  0.00000000000E+00 0. -1.
          1   -1    0    0  501    0 -0.00000000000E+00 -0.00000000000E+00 -0.40373772585E+03  0.40373772585E+03  0.00000000000E+00 0. -1.
         25    2    1    2    0    0  0.59814685941E+02  0.41105737722E+02  0.52783411342E+03  0.54726677154E+03  0.12499835844E+03 0.  0.
          2    1    1    2  501    0 -0.25221094111E+02 -0.72485644499E+02 -0.38967040212E+03  0.39715651138E+03  0.00000000000E+00 0. -1.
          1    1    1    2  502    0 -0.34593591830E+02  0.31379906777E+02  0.89644399124E+03  0.89765987132E+03  0.00000000000E+00 0. -1.
         22    1    3    3    0    0  0.81359543147E+02  0.24876403029E+02  0.50443226765E+03  0.51155656904E+03  0.00000000000E+00 0.  1.
         22    1    3    3    0    0 -0.21544857206E+02  0.16229334693E+02  0.23401845775E+02  0.35710202496E+02  0.00000000000E+00 0.  1.
</event>
<event>
 7    1  0.5127424E-006  0.4525643E+02  0.7818608E-02  0.1496140E+00
          2   -1    0    0  502    0  0.00000000000E+00  0.00000000000E+00  0.26684505083E+03  0.26684505083E+03  0.00000000000E+00 0. -1.
          1   -1    0    0  501    0 -0.00000000000E+00 -0.00000000000E+00 -0.16576987155E+04  0.16576987155E+04  0.00000000000E+00 0. -1.
         25    2    1    2    0    0  0.56713708635E+02 -0.66883510563E+01  0.25638015562E+02  0.13979714732E+03  0.12499902308E+03 0.  0.
          2    1    1    2  501    0 -0.19727012771E+02  0.32948159537E+02 -0.15975911950E+04  0.15980526783E+04  0.00000000000E+00 0. -1.
          1    1    1    2  502    0 -0.36986695864E+02 -0.26259808481E+02  0.18109951483E+03  0.18669394067E+03  0.00000000000E+00 0. -1.
         22    1    3    3    0    0  0.85507166960E+02 -0.16170178746E+02 -0.15809123623E+02  0.88447038797E+02  0.00000000000E+00 0.  1.
         22    1    3    3    0    0 -0.28793458325E+02  0.94818276896E+01  0.41447139185E+02  0.51350108523E+02  0.00000000000E+00 0.  1.
</event>
<event>
 7    1  0.5127424E-006  0.2392376E+02  0.7818608E-02  0.1681677E+00
          2   -1    0    0  502    0  0.00000000000E+00  0.00000000000E+00  0.79807012932E+03  0.79807012932E+03  0.00000000000E+00 0. -1.
          1   -1    0    0  501    0 -0.00000000000E+00 -0.00000000000E+00 -0.37374859998E+03  0.37374859998E+03  0.00000000000E+00 0. -1.
         25    2    1    2    0    0  0.12934625414E+02  0.23805487501E+02 -0.28080364187E+03  0.30856547071E+03  0.12501183407E+03 0.  0.
          2    1    1    2  501    0  0.10888595017E+02 -0.21614458101E+02 -0.77024725849E+02  0.80737566799E+02  0.00000000000E+00 0. -1.
          1    1    1    2  502    0 -0.23823220431E+02 -0.21910294004E+01  0.78214989705E+03  0.78251569179E+03  0.00000000000E+00 0. -1.
         22    1    3    3    0    0  0.15742935782E+01  0.30222353755E+02 -0.29064899715E+03  0.29222030835E+03  0.00000000000E+00 0.  1.
         22    1    3    3    0    0  0.11360331836E+02 -0.64168662538E+01  0.98453552828E+01  0.16345162360E+02  0.00000000000E+00 0.  1.
</event>
<event>
 7    1  0.5127424E-006  0.7299837E+02  0.7818608E-02  0.1399805E+00
          2   -1    0    0  502    0  0.00000000000E+00  0.00000000000E+00  0.91527941617E+03  0.91527941617E+03  0.00000000000E+00 0. -1.
          1   -1    0    0  501    0 -0.00000000000E+00 -0.00000000000E+00 -0.20394871506E+03  0.20394871506E+03  0.00000000000E+00 0. -1.
         25    2    1    2    0    0 -0.33132167859E+02 -0.10470553174E+03  0.28344055969E+03  0.32867406451E+03  0.12500840324E+03 0.  0.
          2    1    1    2  501    0  0.34080495038E+02  0.34578030841E+02 -0.17601604064E+03  0.18258906572E+03  0.00000000000E+00 0. -1.
          1    1    1    2  502    0 -0.94832717884E+00  0.70127500900E+02  0.60390618206E+03  0.60796500099E+03  0.00000000000E+00 0. -1.
         22    1    3    3    0    0 -0.68337482966E+02 -0.66252844470E+02  0.24798956795E+03  0.26562807982E+03  0.00000000000E+00 0.  1.
         22    1    3    3    0    0  0.35205315107E+02 -0.38452687271E+02  0.35450991741E+02  0.63045984690E+02  0.00000000000E+00 0.  1.
</event>
<event>
 7    1  0.5127424E-006  0.6514023E+02  0.7818608E-02  0.1396991E+00
          2   -1    0    0  502    0  0.00000000000E+00  0.00000000000E+00  0.21994759365E+03  0.21994759365E+03  0.00000000000E+00 0. -1.
          1   -1    0    0  501    0 -0.00000000000E+00 -0.00000000000E+00 -0.77418079253E+03  0.77418079253E+03  0.00000000000E+00 0. -1.
         25    2    1    2    0    0  0.40602819952E+02  0.26819003733E+02 -0.17658043548E+03  0.22175067585E+03  0.12499945637E+03 0.  0.
          2    1    1    2  501    0 -0.34692963684E+01 -0.68248924893E+02 -0.56900887122E+03  0.57309776417E+03  0.00000000000E+00 0. -1.
          1    1    1    2  502    0 -0.37133523583E+02  0.41429921160E+02  0.19135610782E+03  0.19927994616E+03  0.00000000000E+00 0. -1.
         22    1    3    3    0    0  0.13806550219E+02 -0.44171407103E+02 -0.11521726883E+03  0.12416421816E+03  0.00000000000E+00 0. -1.
         22    1    3    3    0    0  0.26796269732E+02  0.70990410836E+02 -0.61363166650E+02  0.97586457685E+02  0.00000000000E+00 0. -1.
</event>
<event>
 7    1  0.5127424E-006  0.9248583E+02  0.7818608E-02  0.1333534E+00
          2   -1    0    0  502    0  0.00000000000E+00  0.00000000000E+00  0.17820018611E+03  0.17820018611E+03  0.00000000000E+00 0. -1.
          1   -1    0    0  501    0 -0.00000000000E+00 -0.00000000000E+00 -0.31714465355E+04  0.31714465355E+04  0.00000000000E+00 0. -1.
         25    2    1    2    0    0  0.92291463301E+01 -0.15039212367E+03 -0.52306783180E+03  0.55850594023E+03  0.12500384235E+03 0.  0.
          2    1    1    2  501    0 -0.26788343245E+02  0.60897843826E+02 -0.26172454981E+04  0.26180909381E+04  0.00000000000E+00 0. -1.
          1    1    1    2  502    0  0.17559196915E+02  0.89494279843E+02  0.14706698050E+03  0.17304984332E+03  0.00000000000E+00 0. -1.
         22    1    3    3    0    0  0.82568709005E+01 -0.16112203754E+03 -0.35326314448E+03  0.38835980243E+03  0.00000000000E+00 0. -1.
         22    1    3    3    0    0  0.97227542966E+00  0.10729913867E+02 -0.16980468732E+03  0.17014613780E+03  0.00000000000E+00 0. -1.
</event>
<event>
 7    1  0.5127424E-006  0.8059384E+02  0.7818608E-02  0.1395904E+00
          2   -1    0    0  502    0  0.00000000000E+00  0.00000000000E+00  0.17517900173E+03  0.17517900173E+03  0.00000000000E+00 0. -1.
          1   -1    0    0  501    0 -0.00000000000E+00 -0.00000000000E+00 -0.29014192859E+03  0.29014192859E+03  0.00000000000E+00 0. -1.
         25    2    1    2    0    0  0.55875965310E+02  0.26450150867E+02  0.19701183654E+02  0.14083567684E+03  0.12499926901E+03 0.  0.
          2    1    1    2  501    0  0.33412852573E+02 -0.30675552601E+02 -0.20549123346E+03  0.21043777055E+03  0.00000000000E+00 0. -1.
          1    1    1    2  502    0 -0.89288817883E+02  0.42254017343E+01  0.70827122941E+02  0.11404748293E+03  0.00000000000E+00 0. -1.
         22    1    3    3    0    0  0.73001339892E+02 -0.30188921886E+02  0.18079077910E+01  0.79017942021E+02  0.00000000000E+00 0.  1.
         22    1    3    3    0    0 -0.17125374582E+02  0.56639072752E+02  0.17893275863E+02  0.61817734817E+02  0.00000000000E+00 0.  1.
</event>
<event>
 7    1  0.5127424E-006  0.1305105E+03  0.7818608E-02  0.1311991E+00
          2   -1    0    0  502    0  0.00000000000E+00  0.00000000000E+00  0.13210219629E+03  0.13210219629E+03  0.00000000000E+00 0. -1.
          1   -1    0    0  501    0 -0.00000000000E+00 -0.00000000000E+00 -0.28263730850E+04  0.28263730850E+04  0.00000000000E+00 0. -1.
         25    2    1    2    0    0  0.12943067761E+03  0.73002063100E+02 -0.91728617308E+03  0.93761433545E+03  0.12500046882E+03 0.  0.
          2    1    1    2  501    0 -0.79618418135E+02 -0.10092580422E+03 -0.18899317542E+04  0.18942985895E+04  0.00000000000E+00 0. -1.
          1    1    1    2  502    0 -0.49812259478E+02  0.27923741117E+02  0.11294703861E+03  0.12656235635E+03  0.00000000000E+00 0. -1.
         22    1    3    3    0    0  0.11556044633E+03  0.99423103912E+02 -0.60518194176E+03  0.62408681526E+03  0.00000000000E+00 0. -1.
         22    1    3    3    0    0  0.13870231288E+02 -0.26421040812E+02 -0.31210423132E+03  0.31352752020E+03  0.00000000000E+00 0. -1.
</event>
<event>
 7    1  0.5127424E-006  0.1117554E+03  0.7818608E-02  0.1322435E+00
          2   -1    0    0  502    0  0.00000000000E+00  0.00000000000E+00  0.34866467484E+04  0.34866467484E+04  0.00000000000E+00 0. -1.
          1   -1    0    0  501    0 -0.00000000000E+00 -0.00000000000E+00 -0.62060957729E+03  0.62060957729E+03  0.00000000000E+00 0. -1.
         25    2    1    2    0    0 -0.11816439131E+03  0.14969721678E+02 -0.16776036054E+03  0.24074102919E+03  0.12500315447E+03 0.  0.
          2    1    1    2  501    0  0.10406128860E+03  0.44093186263E+02 -0.40841672390E+03  0.42376547904E+03  0.00000000000E+00 0. -1.
          1    1    1    2  502    0  0.14103102705E+02 -0.59062907941E+02  0.34422142555E+04  0.34427498174E+04  0.00000000000E+00 0. -1.
         22    1    3    3    0    0  0.15083456539E+02 -0.52407777296E+01 -0.76090012488E+02  0.77747452774E+02  0.00000000000E+00 0. -1.
         22    1    3    3    0    0 -0.13324784785E+03  0.20210499407E+02 -0.91670348048E+02  0.16299357642E+03  0.00000000000E+00 0. -1.
</event>
<event>
 7    1  0.5127424E-006  0.1309429E+03  0.7818608E-02  0.1231014E+00
          2   -1    0    0  502    0  0.00000000000E+00  0.00000000000E+00  0.13876241563E+04  0.13876241563E+04  0.00000000000E+00 0. -1.
          1   -1    0    0  501    0 -0.00000000000E+00 -0.00000000000E+00 -0.30058351599E+03  0.30058351599E+03  0.00000000000E+00 0. -1.
         25    2    1    2    0    0  0.12039400572E+03  0.98081863277E+02  0.42832068282E+02  0.20388212459E+03  0.12497426190E+03 0.  0.
          2    1    1    2  501    0 -0.13247003239E+03  0.25733370325E+02 -0.19596152926E+03  0.23793158004E+03  0.00000000000E+00 0. -1.
          1    1    1    2  502    0  0.12076026668E+02 -0.12381523360E+03  0.12401701013E+04  0.12463939677E+04  0.00000000000E+00 0. -1.
         22    1    3    3    0    0  0.65901651651E+02  0.34778058844E+02  0.82708125607E+02  0.11132463837E+03  0.00000000000E+00 0.  1.
         22    1    3    3    0    0  0.54492354069E+02  0.63303804433E+02 -0.39876057326E+02  0.92557486221E+02  0.00000000000E+00 0.  1.
</event>
<event>
 7    1  0.5127424E-006  0.7827203E+02  0.7818608E-02  0.1382738E+00
          2   -1    0    0  502    0  0.00000000000E+00  0.00000000000E+00  0.72653544484E+03  0.72653544484E+03  0.00000000000E+00 0. -1.
          1   -1    0    0  501    0 -0.00000000000E+00 -0.00000000000E+00 -0.12895043683E+04  0.12895043683E+04  0.00000000000E+00 0. -1.
         25    2    1    2    0    0 -0.16840158227E+02 -0.25044131943E+02 -0.27382075857E+02  0.13149414931E+03  0.12502053332E+03 0.  0.
          2    1    1    2  501    0 -0.46046876239E+02 -0.23990200639E+02 -0.12071491971E+04  0.12082652973E+04  0.00000000000E+00 0. -1.
          1    1    1    2  502    0  0.62887034466E+02  0.49034332582E+02  0.67156234951E+03  0.67628036653E+03  0.00000000000E+00 0. -1.
         22    1    3    3    0    0  0.25983131556E+02 -0.61690854140E+02  0.38612323254E+01  0.67050680273E+02  0.00000000000E+00 0.  1.
         22    1    3    3    0    0 -0.42823289783E+02  0.36646722197E+02 -0.31243308182E+02  0.64443469039E+02  0.00000000000E+00 0.  1.
</event>
<event>
 7    1  0.5127424E-006  0.1160227E+03  0.7818608E-02  0.1387937E+00
          2   -1    0    0  502    0  0.00000000000E+00  0.00000000000E+00  0.12454483659E+03  0.12454483659E+03  0.00000000000E+00 0. -1.
          1   -1    0    0  501    0 -0.00000000000E+00 -0.00000000000E+00 -0.31194047304E+04  0.31194047304E+04  0.00000000000E+00 0. -1.
         25    2    1    2    0    0  0.76821531967E+02  0.87119283397E+02 -0.97795419815E+03  0.99272900884E+03  0.12500061599E+03 0.  0.
          2    1    1    2  501    0 -0.28134178282E+02  0.18341571633E+02 -0.21051049458E+04  0.21053728359E+04  0.00000000000E+00 0. -1.
          1    1    1    2  502    0 -0.48687353684E+02 -0.10546085503E+03  0.88199250168E+02  0.14584772224E+03  0.00000000000E+00 0. -1.
         22    1    3    3    0    0 -0.67943634068E+01  0.65224832327E+02 -0.65952659687E+03  0.66277882744E+03  0.00000000000E+00 0.  1.
         22    1    3    3    0    0  0.83615895374E+02  0.21894451070E+02 -0.31842760128E+03  0.32995018140E+03  0.00000000000E+00 0.  1.
</event>
<event>
 7    1  0.5127424E-006  0.5907179E+02  0.7818608E-02  0.1477792E+00
          2   -1    0    0  502    0  0.00000000000E+00  0.00000000000E+00  0.15697180511E+04  0.15697180511E+04  0.00000000000E+00 0. -1.
          1   -1    0    0  501    0 -0.00000000000E+00 -0.00000000000E+00 -0.17810213679E+03  0.17810213679E+03  0.00000000000E+00 0. -1.
         25    2    1    2    0    0 -0.22727692384E+02  0.21665470111E+02  0.34605084634E+02  0.13344933519E+03  0.12500109033E+03 0.  0.
          2    1    1    2  501    0 -0.33386680135E+02 -0.20661889310E+01 -0.12590065472E+03  0.13026862402E+03  0.00000000000E+00 0. -1.
          1    1    1    2  502    0  0.56114372519E+02 -0.19599281180E+02  0.14829114844E+04  0.14841022287E+04  0.00000000000E+00 0. -1.
         22    1    3    3    0    0 -0.20973580980E+02 -0.51106749879E+02  0.73909986635E+01  0.55735247767E+02  0.00000000000E+00 0. -1.
         22    1    3    3    0    0 -0.17541114039E+01  0.72772219990E+02  0.27214085970E+02  0.77714087425E+02  0.00000000000E+00 0. -1.
</event>
<event>
 7    1  0.5127424E-006  0.2350296E+03  0.7818608E-02  0.1252496E+00
          2   -1    0    0  502    0  0.00000000000E+00  0.00000000000E+00  0.32624192322E+03  0.32624192322E+03  0.00000000000E+00 0. -1.
          1   -1    0    0  501    0 -0.00000000000E+00 -0.00000000000E+00 -0.50928277241E+03  0.50928277241E+03  0.00000000000E+00 0. -1.
         25    2    1    2    0    0 -0.24049351857E+03 -0.13038970377E+03 -0.55540538472E+02  0.30586121223E+03  0.12501088918E+03 0.  0.
          2    1    1    2  501    0  0.18495800664E+03  0.12539674473E+03 -0.28524643791E+03  0.36235250537E+03  0.00000000000E+00 0. -1.
          1    1    1    2  502    0  0.55535511932E+02  0.49929590366E+01  0.15774612719E+03  0.16731097802E+03  0.00000000000E+00 0. -1.
         22    1    3    3    0    0 -0.83391316497E+02 -0.11489024926E+03 -0.14198195690E+02  0.14267259654E+03  0.00000000000E+00 0. -1.
         22    1    3    3    0    0 -0.15710220207E+03 -0.15499454505E+02 -0.41342342782E+02  0.16318861569E+03  0.00000000000E+00 0. -1.
</event>
<event>
 7    1  0.5127424E-006  0.5783773E+02  0.7818608E-02  0.1469330E+00
          2   -1    0    0  502    0  0.00000000000E+00  0.00000000000E+00  0.29477491339E+03  0.29477491339E+03  0.00000000000E+00 0. -1.
          1   -1    0    0  501    0 -0.00000000000E+00 -0.00000000000E+00 -0.96678822468E+02  0.96678822468E+02  0.00000000000E+00 0. -1.
         25    2    1    2    0    0  0.40790698913E+02  0.25462285047E+02  0.16382826899E+03  0.21160441157E+03  0.12499806478E+03 0.  0.
          2    1    1    2  501    0 -0.58832728232E+02  0.60226487209E+01 -0.56688409191E+02  0.81921535297E+02  0.00000000000E+00 0. -1.
          1    1    1    2  502    0  0.18042029319E+02 -0.31484933768E+02  0.90956231123E+02  0.97927788990E+02  0.00000000000E+00 0. -1.
         22    1    3    3    0    0 -0.23761681935E+01  0.31950464176E+02 -0.90563674281E+01  0.33294085471E+02  0.00000000000E+00 0.  1.
         22    1    3    3    0    0  0.43166867107E+02 -0.64881791298E+01  0.17288463642E+03  0.17831032610E+03  0.00000000000E+00 0.  1.
</event>
<event>
 7    1  0.5127424E-006  0.1026023E+03  0.7818608E-02  0.1419662E+00
          2   -1    0    0  502    0  0.00000000000E+00  0.00000000000E+00  0.72475502446E+03  0.72475502446E+03  0.00000000000E+00 0. -1.
          1   -1    0    0  501    0 -0.00000000000E+00 -0.00000000000E+00 -0.31047615795E+03  0.31047615795E+03  0.00000000000E+00 0. -1.
         25    2    1    2    0    0  0.92368741782E+02  0.65805660558E+02  0.18121397723E+03  0.24764089255E+03  0.12500054679E+03 0.  0.
          2    1    1    2  501    0 -0.27108901171E+02  0.11840566158E+02 -0.27141128022E+03  0.27301863409E+03  0.00000000000E+00 0. -1.
          1    1    1    2  502    0 -0.65259840611E+02 -0.77646226716E+02  0.50447616951E+03  0.51457165577E+03  0.00000000000E+00 0. -1.
         22    1    3    3    0    0 -0.19067218955E+02  0.48424080873E+02  0.83630207236E+02  0.98501076184E+02  0.00000000000E+00 0. -1.
         22    1    3    3    0    0  0.11143596074E+03  0.17381579685E+02  0.97583769998E+02  0.14913981636E+03  0.00000000000E+00 0. -1.
</event>
<event>
 7    1  0.5127424E-006  0.1902961E+03  0.7818608E-02  0.1297877E+00
          2   -1    0    0  502    0  0.00000000000E+00  0.00000000000E+00  0.58785830350E+02  0.58785830350E+02  0.00000000000E+00 0. -1.
          1   -1    0    0  501    0 -0.00000000000E+00 -0.00000000000E+00 -0.27561131681E+04  0.27561131681E+04  0.00000000000E+00 0. -1.
         25    2    1    2    0    0 -0.26147028010E+02 -0.15052508963E+03 -0.33736107541E+03  0.39086774361E+03  0.12499451231E+03 0.  0.
          2    1    1    2  501    0  0.45538602980E+02  0.19064615310E+03 -0.23702153603E+04  0.23783062407E+04  0.00000000000E+00 0. -1.
          1    1    1    2  502    0 -0.19391574971E+02 -0.40121063465E+02  0.10249097974E+02  0.45725014190E+02  0.00000000000E+00 0. -1.
         22    1    3    3    0    0  0.80358349424E+01 -0.16121309218E+03 -0.28213078028E+03  0.32504155567E+03  0.00000000000E+00 0.  1.
         22    1    3    3    0    0 -0.34182862952E+02  0.10688002543E+02 -0.55230295126E+02  0.65826187932E+02  0.00000000000E+00 0.  1.
</event>
<event>
 7    1  0.5127424E-006  0.4386034E+02  0.7818608E-02  0.1489076E+00
          2   -1    0    0  502    0  0.00000000000E+00  0.00000000000E+00  0.80557401026E+03  0.80557401026E+03  0.00000000000E+00 0. -1.
          1   -1    0    0  501    0 -0.00000000000E+00 -0.00000000000E+00 -0.17703947738E+03  0.17703947738E+03  0.00000000000E+00 0. -1.
         25    2    1    2    0    0  0.81893041005E+01  0.45117617173E+01  0.25114422720E+02  0.12782560611E+03  0.12498492170E+03 0.  0.
          2    1    1    2  501    0 -0.35245741219E+01 -0.45865291322E+02 -0.12085741890E+03  0.12931575029E+03  0.00000000000E+00 0. -1.
          1    1    1    2  502    0 -0.46647299786E+01  0.41353529604E+02  0.72427752906E+03  0.72547213125E+03  0.00000000000E+00 0. -1.
         22    1    3    3    0    0 -0.34866649677E+02 -0.41788848656E+02 -0.10250193590E+02  0.55381022023E+02  0.00000000000E+00 0. -1.
         22    1    3    3    0    0  0.43055953777E+02  0.46300610373E+02  0.35364616311E+02  0.72444584086E+02  0.00000000000E+00 0. -1.
</event>
<event>
 7    1  0.5127424E-006  0.1302833E+03  0.7818608E-02  0.1291174E+00
          2   -1    0    0  502    0  0.00000000000E+00  0.00000000000E+00  0.13926265218E+04  0.13926265218E+04  0.00000000000E+00 0. -1.
          1   -1    0    0  501    0 -0.00000000000E+00 -0.00000000000E+00 -0.18829197684E+03  0.18829197684E+03  0.00000000000E+00 0. -1.
         25    2    1    2    0    0 -0.26668456465E+02 -0.28603216782E+02  0.71815975231E+03  0.73000445578E+03  0.12499490007E+03 0.  0.
          2    1    1    2  501    0  0.10194034034E+03 -0.81128896543E+02 -0.15132054229E+03  0.19967883554E+03  0.00000000000E+00 0. -1.
          1    1    1    2  502    0 -0.75271883879E+02  0.10973211333E+03  0.63749533498E+03  0.65123520737E+03  0.00000000000E+00 0. -1.
         22    1    3    3    0    0 -0.10229675158E+02 -0.54770097425E+02  0.13526183539E+03  0.14628798289E+03  0.00000000000E+00 0. -1.
         22    1    3    3    0    0 -0.16438781307E+02  0.26166880643E+02  0.58289791692E+03  0.58371647289E+03  0.00000000000E+00 0. -1.
</event>
<event>
 7    1  0.5127424E-006  0.7087788E+02  0.7818608E-02  0.1360974E+00
          2   -1    0    0  502    0  0.00000000000E+00  0.00000000000E+00  0.34897987765E+04  0.34897987765E+04  0.00000000000E+00 0. -1.
          1   -1    0    0  501    0 -0.00000000000E+00 -0.00000000000E+00 -0.10133080829E+03  0.10133080829E+03  0.00000000000E+00 0. -1.
         25    2    1    2    0    0 -0.88802758166E+02 -0.86434710626E+02  0.63708068972E+03  0.66095016862E+03  0.12500572439E+03 0.  0.
          2    1    1    2  501    0  0.23282550427E+02  0.66031548068E+02 -0.75206125325E+02  0.10275312054E+03  0.00000000000E+00 0. -1.
          1    1    1    2  502    0  0.65520207738E+02  0.20403162559E+02  0.28265934038E+04  0.28274262956E+04  0.00000000000E+00 0. -1.
         22    1    3    3    0    0  0.37158173235E+00 -0.22346861710E+02  0.38911049767E+03  0.38975184374E+03  0.00000000000E+00 0.  1.
         22    1    3    3    0    0 -0.89174339898E+02 -0.64087848916E+02  0.24797019205E+03  0.27119832488E+03  0.00000000000E+00 0.  1.
</event>
<event>
 7    1  0.5127424E-006  0.4307226E+02  0.7818608E-02  0.1592774E+00
          2   -1    0    0  502    0  0.00000000000E+00  0.00000000000E+00  0.18811125259E+02  0.18811125259E+02  0.00000000000E+00 0. -1.
          1   -1    0    0  501    0 -0.00000000000E+00 -0.00000000000E+00 -0.20942161319E+04  0.20942161319E+04  0.00000000000E+00 0. -1.
         25    2    1    2    0    0  0.41302631812E+02  0.40881719793E+02 -0.53038636878E+03  0.54800763245E+03  0.12500177047E+03 0.  0.
          2    1    1    2  501    0 -0.21206860681E+02 -0.39855278564E+01 -0.15104723537E+04  0.15106264749E+04  0.00000000000E+00 0. -1.
          1    1    1    2  502    0 -0.20095771131E+02 -0.36896191936E+02 -0.34546284138E+02  0.54393149794E+02  0.00000000000E+00 0. -1.
         22    1    3    3    0    0  0.80562210209E+02 -0.25119382131E+00 -0.33185319042E+03  0.34149212700E+03  0.00000000000E+00 0. -1.
         22    1    3    3    0    0 -0.39259578397E+02  0.41132913614E+02 -0.19853317837E+03  0.20651550545E+03  0.00000000000E+00 0. -1.
</event>
<event>
 7    1  0.5127424E-006  0.1424823E+03  0.7818608E-02  0.1262273E+00
          2   -1    0    0  502    0  0.00000000000E+00  0.00000000000E+00  0.94740271460E+03  0.94740271460E+03  0.00000000000E+00 0. -1.
          1   -1    0    0  501    0 -0.00000000000E+00 -0.00000000000E+00 -0.17492213074E+03  0.17492213074E+03  0.00000000000E+00 0. -1.
         25    2    1    2    0    0 -0.12749204002E+03 -0.58514520443E+01  0.40632546654E+03  0.44386498222E+03  0.12500911135E+03 0.  0.
          2    1    1    2  501    0  0.11542732509E+03  0.88491797187E+02 -0.11791479721E+03  0.18723825717E+03  0.00000000000E+00 0. -1.
          1    1    1    2  502    0  0.12064714927E+02 -0.82640345143E+02  0.48406991454E+03  0.49122160595E+03  0.00000000000E+00 0. -1.
         22    1    3    3    0    0  0.19103111441E+00 -0.81727926362E+01 -0.73088055927E+01  0.10965841124E+02  0.00000000000E+00 0.  1.
         22    1    3    3    0    0 -0.12768307114E+03  0.23213405920E+01  0.41363427213E+03  0.43289914109E+03  0.00000000000E+00 0.  1.
</event>
<event>
 7    1  0.5127424E-006  0.6503859E+02  0.7818608E-02  0.1386978E+00
          2   -1    0    0  502    0  0.00000000000E+00  0.00000000000E+00  0.18114429668E+04  0.18114429668E+04  0.00000000000E+00 0. -1.
          1   -1    0    0  501    0 -0.00000000000E+00 -0.00000000000E+00 -0.28330563251E+02  0.28330563251E+02  0.00000000000E+00 0. -1.
         25    2    1    2    0    0  0.34620200902E+02  0.16326351179E+02  0.24835239390E+03  0.28065844773E+03  0.12500057871E+03 0.  0.
          2    1    1    2  501    0 -0.12935382057E+02 -0.77643456706E+02  0.12410900541E+03  0.14696555957E+03  0.00000000000E+00 0. -1.
          1    1    1    2  502    0 -0.21684818845E+02  0.61317105527E+02  0.14106510042E+04  0.14121495227E+04  0.00000000000E+00 0. -1.
         22    1    3    3    0    0  0.74818173866E+02  0.21060354916E+02  0.98707526048E+02  0.12563627417E+03  0.00000000000E+00 0. -1.
         22    1    3    3    0    0 -0.40197972963E+02 -0.47340037371E+01  0.14964486785E+03  0.15502217356E+03  0.00000000000E+00 0. -1.
</event>
<event>
 7    1  0.5127424E-006  0.1187698E+03  0.7818608E-02  0.1312231E+00
          2   -1    0    0  502    0  0.00000000000E+00  0.00000000000E+00  0.30707839557E+03  0.30707839557E+03  0.00000000000E+00 0. -1.
          1   -1    0    0  501    0 -0.00000000000E+00 -0.00000000000E+00 -0.16988877344E+04  0.16988877344E+04  0.00000000000E+00 0. -1.
         25    2    1    2    0    0  0.71012393430E+02  0.16079165821E+03 -0.10220507161E+04  0.10445616825E+04  0.12499889899E+03 0.  0.
          2    1    1    2  501    0 -0.56784596821E+01 -0.62356032911E+02 -0.65222615776E+03  0.65522475580E+03  0.00000000000E+00 0. -1.
          1    1    1    2  502    0 -0.65333933748E+02 -0.98435625295E+02  0.28246753508E+03  0.30617969169E+03  0.00000000000E+00 0. -1.
         22    1    3    3    0    0  0.10599407436E+03  0.11833473428E+03 -0.69580035610E+03  0.71370581383E+03  0.00000000000E+00 0. -1.
         22    1    3    3    0    0 -0.34981680933E+02  0.42456923931E+02 -0.32625036004E+03  0.33085586865E+03  0.00000000000E+00 0. -1.
</event>
<event>
 7    1  0.5127424E-006  0.6767244E+02  0.7818608E-02  0.1378708E+00
          2   -1    0    0  502    0  0.00000000000E+00  0.00000000000E+00  0.17047666406E+04  0.17047666406E+04  0.00000000000E+00 0. -1.
          1   -1    0    0  501    0 -0.00000000000E+00 -0.00000000000E+00 -0.72317551059E+02  0.72317551059E+02  0.00000000000E+00 0. -1.
         25    2    1    2    0    0  0.69631866509E+01  0.11833156404E+03  0.66976069743E+03  0.69156036213E+03  0.12500199054E+03 0.  0.
          2    1    1    2  501    0 -0.24121075215E+02 -0.57178733796E+02 -0.44481423229E+02  0.76353329204E+02  0.00000000000E+00 0. -1.
          1    1    1    2  502    0  0.17157888564E+02 -0.61152830243E+02  0.10071698154E+04  0.10091705003E+04  0.00000000000E+00 0. -1.
         22    1    3    3    0    0 -0.49918952309E+02  0.43007974285E+02  0.40833004100E+03  0.41361214928E+03  0.00000000000E+00 0.  1.
         22    1    3    3    0    0  0.56882138960E+02  0.75323589754E+02  0.26143065643E+03  0.27794821285E+03  0.00000000000E+00 0.  1.
</event>
<event>
 7    1  0.5127424E-006  0.8856374E+02  0.7818608E-02  0.1346546E+00
          2   -1    0    0  502    0  0.00000000000E+00  0.00000000000E+00  0.68765853597E+02  0.68765853597E+02  0.00000000000E+00 0. -1.
          1   -1    0    0  501    0 -0.00000000000E+00 -0.00000000000E+00 -0.10383582354E+04  0.10383582354E+04  0.00000000000E+00 0. -1.
         25    2    1    2    0    0  0.38532706550E+02 -0.12834985588E+03 -0.13869827339E+03  0.22982725104E+03  0.12499959720E+03 0.  0.
          2    1    1    2  501    0 -0.53592599643E+02  0.68134185461E+02 -0.80563261836E+03  0.81028288253E+03  0.00000000000E+00 0. -1.
          1    1    1    2  502    0  0.15059893094E+02  0.60215670417E+02 -0.25261490073E+02  0.67013955446E+02  0.00000000000E+00 0. -1.
         22    1    3    3    0    0  0.15461076256E+02 -0.10393244494E+03 -0.20642057481E+02  0.10708451114E+03  0.00000000000E+00 0.  1.
         22    1    3    3    0    0  0.23071630294E+02 -0.24417410940E+02 -0.11805621591E+03  0.12274273989E+03  0.00000000000E+00 0.  1.
</event>
<event>
 7    1  0.5127424E-006  0.1881761E+03  0.7818608E-02  0.1185783E+00
          2   -1    0    0  502    0  0.00000000000E+00  0.00000000000E+00  0.93978800095E+03  0.93978800095E+03  0.00000000000E+00 0. -1.
          1   -1    0    0  501    0 -0.00000000000E+00 -0.00000000000E+00 -0.43477957614E+03  0.43477957614E+03  0.00000000000E+00 0. -1.
         25    2    1    2    0    0  0.57770510235E+02  0.68500857775E+02  0.80106537991E+02  0.17341363262E+03  0.12500172471E+03 0.  0.
          2    1    1    2  501    0 -0.46255231163E+02 -0.20854229595E+03 -0.35194720515E+03  0.41169924802E+03  0.00000000000E+00 0. -1.
          1    1    1    2  502    0 -0.11515279072E+02  0.14004143818E+03  0.77684909196E+03  0.78945469644E+03  0.00000000000E+00 0. -1.
         22    1    3    3    0    0  0.81989052518E+02  0.70774756942E+02  0.95688936268E+02  0.14452558070E+03  0.00000000000E+00 0. -1.
         22    1    3    3    0    0 -0.24218542283E+02 -0.22738991660E+01 -0.15582398277E+02  0.28888051921E+02  0.00000000000E+00 0. -1.
</event>
<event>
 7    1  0.5127424E-006  0.7791254E+02  0.7818608E-02  0.1343830E+00
          2   -1    0    0  502    0  0.00000000000E+00  0.00000000000E+00  0.13089724055E+04  0.13089724055E+04  0.00000000000E+00 0. -1.
          1   -1    0    0  501    0 -0.00000000000E+00 -0.00000000000E+00 -0.54420946550E+03  0.54420946550E+03  0.00000000000E+00 0. -1.
         25    2    1    2    0    0 -0.14814032069E+02  0.16920121181E+02 -0.25522508168E+03  0.28508079463E+03  0.12500188438E+03 0.  0.
          2    1    1    2  501    0 -0.59730789537E+02 -0.40598629051E+02 -0.26809142805E+03  0.27764911253E+03  0.00000000000E+00 0. -1.
          1    1    1    2  502    0  0.74544821606E+02  0.23678507870E+02  0.12880794497E+04  0.12904519638E+04  0.00000000000E+00 0. -1.
         22    1    3    3    0    0 -0.20266562370E+02  0.15150598941E+02 -0.26898603557E+03  0.27017357667E+03  0.00000000000E+00 0.  1.
         22    1    3    3    0    0  0.54525303006E+01  0.17695222404E+01  0.13760953882E+02  0.14907217963E+02  0.00000000000E+00 0.  1.
</event>
<event>
 7    1  0.5127424E-006  0.9197261E+02  0.7818608E-02  0.1393200E+00
          2   -1    0    0  502    0  0.00000000000E+00  0.00000000000E+00  0.24467088303E+04  0.24467088303E+04  0.00000000000E+00 0. -1.
          1   -1    0    0  501    0 -0.00000000000E+00 -0.00000000000E+00 -0.69601226798E+02  0.69601226798E+02  0.00000000000E+00 0. -1.
         25    2    1    2    0    0  0.46764548266E+02 -0.25733140623E+02  0.13497657231E+03  0.19155452213E+03  0.12500136949E+03 0.  0.
          2    1    1    2  501    0  0.29715068882E+02 -0.27686002889E+02 -0.30136516250E+02  0.50573804349E+02  0.00000000000E+00 0. -1.
          1    1    1    2  502    0 -0.76479617148E+02  0.53419143512E+02  0.22722675474E+04  0.22741817306E+04  0.00000000000E+00 0. -1.
         22    1    3    3    0    0 -0.16416708259E+01  0.53135054654E+01  0.13392242898E+03  0.13403785065E+03  0.00000000000E+00 0. -1.
         22    1    3    3    0    0  0.48406219092E+02 -0.31046646088E+02  0.10541433346E+01  0.57516671481E+02  0.00000000000E+00 0. -1.
</event>
<event>
 7    1  0.5127424E-006  0.1345988E+03  0.7818608E-02  0.1244040E+00
          2   -1    0    0  502    0  0.00000000000E+00  0.00000000000E+00  0.22297690660E+04  0.22297690660E+04  0.00000000000E+00 0. -1.
          1   -1    0    0  501    0 -0.00000000000E+00 -0.00000000000E+00 -0.67022398252E+03  0.67022398252E+03  0.00000000000E+00 0. -1.
         25    2    1    2    0    0 -0.15732278079E+03  0.10972984196E+03  0.10840400958E+03  0.25331334296E+03  0.12500049941E+03 0.  0.
          2    1    1    2  501    0  0.52156639858E+02 -0.12276481466E+03 -0.58893613826E+03  0.60385204293E+03  0.00000000000E+00 0. -1.
          1    1    1    2  502    0  0.10516614094E+03  0.13034972698E+02  0.20400772122E+04  0.20428276627E+04  0.00000000000E+00 0. -1.
         22    1    3    3    0    0 -0.12670395498E+03  0.10283346972E+03  0.13530129083E+03  0.21197889990E+03  0.00000000000E+00 0.  1.
         22    1    3    3    0    0 -0.30618825817E+02  0.68963722446E+01 -0.26897281248E+02  0.41334443060E+02  0.00000000000E+00 0.  1.
</event>
<event>
 7    1  0.5127424E-006  0.1804367E+03  0.7818608E-02  0.1289238E+00
          2   -1    0    0  502    0  0.00000000000E+00  0.00000000000E+00  0.44184510885E+02  0.44184510885E+02  0.00000000000E+00 0. -1.
          1   -1    0    0  501    0 -0.00000000000E+00 -0.00000000000E+00 -0.41392260476E+04  0.41392260476E+04  0.00000000000E+00 0. -1.
         25    2    1    2    0    0  0.14025430321E+03  0.11021084321E+03 -0.25891671463E+04  0.25983128728E+04  0.12500229575E+03 0.  0.
          2    1    1    2  501    0 -0.17284086493E+03 -0.71066204451E+02 -0.15206297729E+04  0.15320702583E+04  0.00000000000E+00 0. -1.
          1    1    1    2  502    0  0.32586561722E+02 -0.39144638755E+02  0.14755382480E+02  0.53027427434E+02  0.00000000000E+00 0. -1.
         22    1    3    3    0    0  0.14390592272E+03  0.10717565018E+03 -0.17581895984E+04  0.17673217586E+04  0.00000000000E+00 0.  1.
         22    1    3    3    0    0 -0.36516195128E+01  0.30351930225E+01 -0.83097754793E+03  0.83099111420E+03  0.00000000000E+00 0.  1.
</event>
<event>
 7    1  0.5127424E-006  0.1103856E+03  0.7818608E-02  0.1368530E+00
          2   -1    0    0  502    0  0.00000000000E+00  0.00000000000E+00  0.39650161397E+03  0.39650161397E+03  0.00000000000E+00 0. -1.
          1   -1    0    0  501    0 -0.00000000000E+00 -0.00000000000E+00 -0.41677111207E+03  0.41677111207E+03  0.00000000000E+00 0. -1.
         25    2    1    2    0    0 -0.66287411804E+01  0.12247361363E+03 -0.14996286510E+02  0.17576568810E+03  0.12499984904E+03 0.  0.
          2    1    1    2  501    0  0.42146595764E+02 -0.10125993391E+03 -0.31059657303E+03  0.32939359576E+03  0.00000000000E+00 0. -1.
          1    1    1    2  502    0 -0.35517854584E+02 -0.21213679715E+02  0.30532336145E+03  0.30811344218E+03  0.00000000000E+00 0. -1.
         22    1    3    3    0    0 -0.42260665689E+02  0.49756589866E+02 -0.55076900746E+02  0.85411633255E+02  0.00000000000E+00 0.  1.
         22    1    3    3    0    0  0.35631924508E+02  0.72717023764E+02  0.40080614236E+02  0.90354054844E+02  0.00000000000E+00 0.  1.
</event>
<event>
 7    1  0.5127424E-006  0.7596691E+02  0.7818608E-02  0.1414739E+00
          2   -1    0    0  502    0  0.00000000000E+00  0.00000000000E+00  0.15662878383E+03  0.15662878383E+03  0.00000000000E+00 0. -1.
          1   -1    0    0  501    0 -0.00000000000E+00 -0.00000000000E+00 -0.74903089249E+03  0.74903089249E+03  0.00000000000E+00 0. -1.
         25    2    1    2    0    0  0.92494466962E+02 -0.32644237524E+02 -0.44218426404E+03  0.46985429999E+03  0.12496106268E+03 0.  0.
          2    1    1    2  501    0 -0.17023965297E+02  0.37849637983E+02 -0.28136195661E+03  0.28440633100E+03  0.00000000000E+00 0. -1.
          1    1    1    2  502    0 -0.75470501664E+02 -0.52054004589E+01  0.13114411199E+03  0.15139904532E+03  0.00000000000E+00 0. -1.
         22    1    3    3    0    0 -0.19423432909E+02 -0.33845757316E+02 -0.59635195886E+02  0.71268237123E+02  0.00000000000E+00 0. -1.
         22    1    3    3    0    0  0.11191789987E+03  0.12015197913E+01 -0.38254906816E+03  0.39858606286E+03  0.00000000000E+00 0. -1.
</event>
<event>
 7    1  0.5127424E-006  0.5353964E+02  0.7818608E-02  0.1476314E+00
          2   -1    0    0  502    0  0.00000000000E+00  0.00000000000E+00  0.19573213193E+04  0.19573213193E+04  0.00000000000E+00 0. -1.
          1   -1    0    0  501    0 -0.00000000000E+00 -0.00000000000E+00 -0.17568650419E+03  0.17568650419E+03  0.00000000000E+00 0. -1.
         25    2    1    2    0    0 -0.59450665272E+02 -0.49177179559E+02  0.69857915268E+02  0.16265951837E+03  0.12500085600E+03 0.  0.
          2    1    1    2  501    0  0.37291086094E+02  0.58522854115E+00 -0.12620001701E+03  0.13159563780E+03  0.00000000000E+00 0. -1.
          1    1    1    2  502    0  0.22159579178E+02  0.48591951018E+02  0.18379769169E+04  0.18387526673E+04  0.00000000000E+00 0. -1.
         22    1    3    3    0    0  0.35808102526E+01  0.31988595815E+02 -0.86574959648E+01  0.33332337161E+02  0.00000000000E+00 0.  1.
         22    1    3    3    0    0 -0.63031475525E+02 -0.81165775373E+02  0.78515411233E+02  0.12932718121E+03  0.00000000000E+00 0.  1.
</event>
<event>
 7    1  0.5127424E-006  0.4502900E+02  0.7818608E-02  0.1528310E+00
          2   -1    0    0  502    0  0.00000000000E+00  0.00000000000E+00  0.62897855483E+02  0.62897855483E+02  0.00000000000E+00 0. -1.
          1   -1    0    0  501    0 -0.00000000000E+00 -0.00000000000E+00 -0.47479535336E+03  0.47479535336E+03  0.00000000000E+00 0. -1.
         25    2    1    2    0    0 -0.76081276291E+01  0.44666673148E+02 -0.14221493605E+03  0.19468533928E+03  0.12499719197E+03 0.  0.
          2    1    1    2  501    0 -0.23005759258E+02 -0.39454948996E+02 -0.29769974049E+03  0.30118282396E+03  0.00000000000E+00 0. -1.
          1    1    1    2  502    0  0.30613886887E+02 -0.52117241523E+01  0.28017178666E+02  0.41825045599E+02  0.00000000000E+00 0. -1.
         22    1    3    3    0    0  0.18027947378E+01  0.61941111194E+00 -0.14910744956E+03  0.14911963403E+03  0.00000000000E+00 0.  1.
         22    1    3    3    0    0 -0.94109223668E+01  0.44047262036E+02  0.68925135101E+01  0.45565705253E+02  0.00000000000E+00 0.  1.
</event>
<event>
 7    1  0.5127424E-006  0.1535955E+03  0.7818608E-02  0.1235550E+00
          2   -1    0    0  502    0  0.00000000000E+00  0.00000000000E+00  0.58948724093E+03  0.58948724093E+03  0.00000000000E+00 0. -1.
          1   -1    0    0  501    0 -0.00000000000E+00 -0.00000000000E+00 -0.16137342211E+04  0.16137342211E+04  0.00000000000E+00 0. -1.
         25    2    1    2    0    0 -0.11963967516E+03 -0.21761203094E+03 -0.20703993179E+03  0.34663992161E+03  0.12500021606E+03 0.  0.
          2    1    1    2  501    0  0.80466645735E+02  0.12426921591E+03 -0.13278114399E+04  0.13360392730E+04  0.00000000000E+00 0. -1.
          1    1    1    2  502    0  0.39173029426E+02  0.93342815035E+02  0.51060439161E+03  0.52054226733E+03  0.00000000000E+00 0. -1.
         22    1    3    3    0    0 -0.10543535688E+03 -0.10966527242E+03 -0.59668870699E+02  0.16341193526E+03  0.00000000000E+00 0.  1.
         22    1    3    3    0    0 -0.14204318279E+02 -0.10794675853E+03 -0.14737106109E+03  0.18322798635E+03  0.00000000000E+00 0.  1.
</event>
<event>
 7    1  0.5127424E-006  0.1248619E+03  0.7818608E-02  0.1262178E+00
          2   -1    0    0  502    0  0.00000000000E+00  0.00000000000E+00  0.83289531773E+03  0.83289531773E+03  0.00000000000E+00 0. -1.
          1   -1    0    0  501    0 -0.00000000000E+00 -0.00000000000E+00 -0.85830460116E+03  0.85830460116E+03  0.00000000000E+00 0. -1.
         25    2    1    2    0    0  0.12135656821E+03 -0.16402712903E+03  0.13401266499E+03  0.27425704570E+03  0.12500086812E+03 0.  0.
          2    1    1    2  501    0 -0.26976812366E+02  0.91496539437E+02 -0.77961578819E+03  0.78542990924E+03  0.00000000000E+00 0. -1.
          1    1    1    2  502    0 -0.94379755846E+02  0.72530589596E+02  0.62019383978E+03  0.63151296395E+03  0.00000000000E+00 0. -1.
         22    1    3    3    0    0  0.51330926218E+02 -0.13282253153E+03  0.30803079338E+02  0.14568980255E+03  0.00000000000E+00 0. -1.
         22    1    3    3    0    0  0.70025641994E+02 -0.31204597500E+02  0.10320958565E+03  0.12856724315E+03  0.00000000000E+00 0. -1.
</event>
<event>
 7    1  0.5127424E-006  0.9353434E+02  0.7818608E-02  0.1408540E+00
          2   -1    0    0  502    0  0.00000000000E+00  0.00000000000E+00  0.19665003309E+04  0.19665003309E+04  0.00000000000E+00 0. -1.
          1   -1    0    0  501    0 -0.00000000000E+00 -0.00000000000E+00 -0.31457461002E+02  0.31457461002E+02  0.00000000000E+00 0. -1.
         25    2    1    2    0    0  0.11832576305E+03 -0.31886677008E+02  0.54414725915E+03  0.57161066899E+03  0.12499908355E+03 0.  0.
          2    1    1    2  501    0 -0.83125967334E+02  0.28383960846E+02  0.92833470680E+02  0.12780308665E+03  0.00000000000E+00 0. -1.
          1    1    1    2  502    0 -0.35199795719E+02  0.35027161624E+01  0.12980621400E+04  0.12985440362E+04  0.00000000000E+00 0. -1.
         22    1    3    3    0    0  0.59642132239E+02 -0.76973575405E+02  0.24994394233E+03  0.26824259459E+03  0.00000000000E+00 0.  1.
         22    1    3    3    0    0  0.58683630814E+02  0.45086898397E+02  0.29420331682E+03  0.30336807439E+03  0.00000000000E+00 0.  1.
</event>
<event>
 7    1  0.5127424E-006  0.7537012E+02  0.7818608E-02  0.1448964E+00
          2   -1    0    0  502    0  0.00000000000E+00  0.00000000000E+00  0.21420355535E+03  0.21420355535E+03  0.00000000000E+00 0. -1.
          1   -1    0    0  501    0 -0.00000000000E+00 -0.00000000000E+00 -0.13476413161E+04  0.13476413161E+04  0.00000000000E+00 0. -1.
         25    2    1    2    0    0  0.85181162106E+02  0.14377573600E+01 -0.22484234773E+03  0.27099760675E+03  0.12501089555E+03 0.  0.
          2    1    1    2  501    0 -0.70090989229E+02  0.27112247416E+02 -0.10970625327E+04  0.10996335850E+04  0.00000000000E+00 0. -1.
          1    1    1    2  502    0 -0.15090172877E+02 -0.28550004776E+02  0.18846711967E+03  0.19121367965E+03  0.00000000000E+00 0. -1.
         22    1    3    3    0    0 -0.66347082238E-01  0.49226367471E+02 -0.46938360966E+02  0.68018007810E+02  0.00000000000E+00 0.  1.
         22    1    3    3    0    0  0.85247509188E+02 -0.47788610111E+02 -0.17790398676E+03  0.20297959894E+03  0.00000000000E+00 0.  1.
</event>
<event>
 7    1  0.5127424E-006  0.1814639E+03  0.7818608E-02  0.1214000E+00
          2   -1    0    0  502    0  0.00000000000E+00  0.00000000000E+00  0.93220953650E+03  0.93220953650E+03  0.00000000000E+00 0. -1.
          1   -1    0    0  501    0 -0.00000000000E+00 -0.00000000000E+00 -0.69456910519E+03  0.69456910519E+03  0.00000000000E+00 0. -1.
         25    2    1    2    0    0 -0.49753674521E+02 -0.87933202837E+02  0.17946345237E+01  0.16073527099E+03  0.12499972135E+03 0.  0.
          2    1    1    2  501    0  0.38299596538E+02  0.19456366747E+03 -0.59558284764E+03  0.62772669865E+03  0.00000000000E+00 0. -1.
          1    1    1    2  502    0  0.11454077982E+02 -0.10663046463E+03  0.83142864442E+03  0.83831667205E+03  0.00000000000E+00 0. -1.
         22    1    3    3    0    0  0.28824364646E+02 -0.73938733621E+02 -0.10247521039E+02  0.80017448186E+02  0.00000000000E+00 0. -1.
         22    1    3    3    0    0 -0.78578039167E+02 -0.13994469216E+02  0.12042155563E+02  0.80717822806E+02  0.00000000000E+00 0. -1.
</event>
<event>
 7    1  0.5127424E-006  0.1850270E+03  0.7818608E-02  0.1298883E+00
          2   -1    0    0  502    0  0.00000000000E+00  0.00000000000E+00  0.44811493640E+03  0.44811493640E+03  0.00000000000E+00 0. -1.
          1   -1    0    0  501    0 -0.00000000000E+00 -0.00000000000E+00 -0.98333476238E+03  0.98333476238E+03  0.00000000000E+00 0. -1.
         25    2    1    2    0    0 -0.17882877292E+03  0.12402666759E+02 -0.17748186475E+03  0.28152789874E+03  0.12499835714E+03 0.  0.
          2    1    1    2  501    0  0.19729774515E+01  0.45363538715E+02 -0.73123899293E+03  0.73264739682E+03  0.00000000000E+00 0. -1.
          1    1    1    2  502    0  0.17685579547E+03 -0.57766205474E+02  0.37350103171E+03  0.41727440321E+03  0.00000000000E+00 0. -1.
         22    1    3    3    0    0 -0.80323968578E+02 -0.51934913012E+02 -0.11047812498E+03  0.14613210194E+03  0.00000000000E+00 0.  1.
         22    1    3    3    0    0 -0.98504804340E+02  0.64337579771E+02 -0.67003739774E+02  0.13539579681E+03  0.00000000000E+00 0.  1.
</event>
<event>
 7    1  0.5127424E-006  0.1091774E+03  0.7818608E-02  0.1361693E+00
          2   -1    0    0  502    0  0.00000000000E+00  0.00000000000E+00  0.89091072711E+02  0.89091072711E+02  0.00000000000E+00 0. -1.
          1   -1    0    0  501    0 -0.00000000000E+00 -0.00000000000E+00 -0.17376468101E+04  0.17376468101E+04  0.00000000000E+00 0. -1.
         25    2    1    2    0    0 -0.85128313667E+01  0.13427625203E+03 -0.92964428269E+03  0.94761050334E+03  0.12499837420E+03 0.  0.
          2    1    1    2  501    0  0.33617679750E+02 -0.28823687459E+02 -0.76140841714E+03  0.76269504459E+03  0.00000000000E+00 0. -1.
          1    1    1    2  502    0 -0.25104848383E+02 -0.10545256457E+03  0.42496962448E+02  0.11643233487E+03  0.00000000000E+00 0. -1.
         22    1    3    3    0    0  0.13995807074E+02  0.46079636695E+02 -0.82021472079E+02  0.95114338644E+02  0.00000000000E+00 0.  1.
         22    1    3    3    0    0 -0.22508638441E+02  0.88196615330E+02 -0.84762281061E+03  0.85249616470E+03  0.00000000000E+00 0.  1.
</event>
<event>
 7    1  0.5127424E-006  0.1240466E+03  0.7818608E-02  0.1322243E+00
          2   -1    0    0  502    0  0.00000000000E+00  0.00000000000E+00  0.10151410458E+04  0.10151410458E+04  0.00000000000E+00 0. -1.
          1   -1    0    0  501    0 -0.00000000000E+00 -0.00000000000E+00 -0.39832389639E+03  0.39832389639E+03  0.00000000000E+00 0. -1.
         25    2    1    2    0    0 -0.96425087377E+02  0.95533449037E+02  0.34305516590E+03  0.38953352367E+03  0.12500032739E+03 0.  0.
          2    1    1    2  501    0 -0.18827904178E+02 -0.51464233160E+02 -0.36716647331E+03  0.37123345269E+03  0.00000000000E+00 0. -1.
          1    1    1    2  502    0  0.11525299156E+03 -0.44069215877E+02  0.64092845680E+03  0.65269796582E+03  0.00000000000E+00 0. -1.
         22    1    3    3    0    0 -0.27623333500E+02  0.68573749837E+01 -0.12915026765E+00  0.28462059397E+02  0.00000000000E+00 0. -1.
         22    1    3    3    0    0 -0.68801753877E+02  0.88676074053E+02  0.34318431617E+03  0.36107146427E+03  0.00000000000E+00 0. -1.
</event>
<event>
 7    1  0.5127424E-006  0.4046282E+02  0.7818608E-02  0.1598689E+00
          2   -1    0    0  502    0  0.00000000000E+00  0.00000000000E+00  0.13883561180E+04  0.13883561180E+04  0.00000000000E+00 0. -1.
          1   -1    0    0  501    0 -0.00000000000E+00 -0.00000000000E+00 -0.74552982020E+02  0.74552982020E+02  0.00000000000E+00 0. -1.
         25    2    1    2    0    0 -0.35662302799E+01  0.61247793524E+02  0.59500623725E+03  0.61108194226E+03  0.12499883032E+03 0.  0.
          2    1    1    2  501    0  0.13000735012E+01 -0.22124143718E+02 -0.64165277913E+02  0.67884834948E+02  0.00000000000E+00 0. -1.
          1    1    1    2  502    0  0.22661567787E+01 -0.39123649807E+02  0.78296217665E+03  0.78394232282E+03  0.00000000000E+00 0. -1.
         22    1    3    3    0    0 -0.56613635974E+02  0.30210561866E+02  0.43446611132E+03  0.43917944364E+03  0.00000000000E+00 0.  1.
         22    1    3    3    0    0  0.53047405694E+02  0.31037231659E+02  0.16054012592E+03  0.17190249862E+03  0.00000000000E+00 0.  1.
</event>
<event>
 7    1  0.5127424E-006  0.2042630E+03  0.7818608E-02  0.1170949E+00
          2   -1    0    0  502    0  0.00000000000E+00  0.00000000000E+00  0.33198041251E+03  0.33198041251E+03  0.00000000000E+00 0. -1.
          1   -1    0    0  501    0 -0.00000000000E+00 -0.00000000000E+00 -0.26528308847E+04  0.26528308847E+04  0.00000000000E+00 0. -1.
         25    2    1    2    0    0  0.20057549641E+03  0.23135832118E+03 -0.10718968811E+04  0.11217593683E+04  0.12499581692E+03 0.  0.
          2    1    1    2  501    0 -0.14869090135E+03 -0.36085234110E+02 -0.15184980677E+04  0.15261872460E+04  0.00000000000E+00 0. -1.
          1    1    1    2  502    0 -0.51884595057E+02 -0.19527308707E+03  0.26954447656E+03  0.33686468290E+03  0.00000000000E+00 0. -1.
         22    1    3    3    0    0  0.12567379911E+03  0.96674956073E+02 -0.72556374555E+03  0.74268613813E+03  0.00000000000E+00 0. -1.
         22    1    3    3    0    0  0.74901697303E+02  0.13468336511E+03 -0.34633313553E+03  0.37907323021E+03  0.00000000000E+00 0. -1.
</event>
<event>
 7    1  0.5127424E-006  0.6994121E+02  0.7818608E-02  0.1380701E+00
          2   -1    0    0  502    0  0.00000000000E+00  0.00000000000E+00  0.21922484509E+02  0.21922484509E+02  0.00000000000E+00 0. -1.
          1   -1    0    0  501    0 -0.00000000000E+00 -0.00000000000E+00 -0.21585012221E+04  0.21585012221E+04  0.00000000000E+00 0. -1.
         25    2    1    2    0    0  0.34813833249E+02  0.50267238293E+02 -0.49033727615E+03  0.50970038558E+03  0.12500016179E+03 0.  0.
          2    1    1    2  501    0  0.41463032978E+02 -0.42082069187E+02 -0.15318553445E+04  0.15329940901E+04  0.00000000000E+00 0. -1.
          1    1    1    2  502    0 -0.76276866228E+02 -0.81851691065E+01 -0.11438611688E+03  0.13772923092E+03  0.00000000000E+00 0. -1.
         22    1    3    3    0    0  0.38306858991E+02  0.51249390018E+01 -0.35072437732E+02  0.52189619025E+02  0.00000000000E+00 0. -1.
         22    1    3    3    0    0 -0.34930257420E+01  0.45142299291E+02 -0.45526483842E+03  0.45751076655E+03  0.00000000000E+00 0. -1.
</event>
<event>
 7    1  0.5127424E-006  0.5003532E+02  0.7818608E-02  0.1491235E+00
          2   -1    0    0  502    0  0.00000000000E+00  0.00000000000E+00  0.15171229652E+02  0.15171229652E+02  0.00000000000E+00 0. -1.
          1   -1    0    0  501    0 -0.00000000000E+00 -0.00000000000E+00 -0.23789915078E+04  0.23789915078E+04  0.00000000000E+00 0. -1.
         25    2    1    2    0    0 -0.14554777381E+02  0.13947263951E+02 -0.53659522660E+03  0.55133063674E+03  0.12499866430E+03 0.  0.
          2    1    1    2  501    0 -0.31407051839E+02  0.17463079364E+02 -0.17331293703E+04  0.17335018823E+04  0.00000000000E+00 0. -1.
          1    1    1    2  502    0  0.45961829221E+02 -0.31410343314E+02 -0.94095681315E+02  0.10933021840E+03  0.00000000000E+00 0. -1.
         22    1    3    3    0    0 -0.40358430208E+02 -0.19229308649E+02 -0.71402092096E+02  0.84242673009E+02  0.00000000000E+00 0.  1.
         22    1    3    3    0    0  0.25803652827E+02  0.33176572600E+02 -0.46519313451E+03  0.46708796373E+03  0.00000000000E+00 0.  1.
</event>
<event>
 7    1  0.5127424E-006  0.1123006E+03  0.7818608E-02  0.1374210E+00
          2   -1    0    0  502    0  0.00000000000E+00  0.00000000000E+00  0.13555199663E+03  0.13555199663E+03  0.00000000000E+00 0. -1.
          1   -1    0    0  501    0 -0.00000000000E+00 -0.00000000000E+00 -0.89637447908E+03  0.89637447908E+03  0.00000000000E+00 0. -1.
         25    2    1    2    0    0 -0.16689274920E+02 -0.92289994840E+02 -0.66171091760E+02  0.16969127816E+03  0.12498216454E+03 0.  0.
          2    1    1    2  501    0 -0.16103358239E+02  0.11303043243E+03 -0.76950181366E+03  0.77792559929E+03  0.00000000000E+00 0. -1.
          1    1    1    2  502    0  0.32792633158E+02 -0.20740437586E+02  0.74850422969E+02  0.84309598264E+02  0.00000000000E+00 0. -1.
         22    1    3    3    0    0  0.18397159494E+02 -0.84515430470E+02  0.84108693837E+01  0.86902567216E+02  0.00000000000E+00 0. -1.
         22    1    3    3    0    0 -0.35086434414E+02 -0.77745643702E+01 -0.74581961143E+02  0.82788710940E+02  0.00000000000E+00 0. -1.
</event>
<event>
 7    1  0.5127424E-006  0.3675883E+02  0.7818608E-02  0.1541234E+00
          2   -1    0    0  502    0  0.00000000000E+00  0.00000000000E+00  0.15162961792E+04  0.15162961792E+04  0.00000000000E+00 0. -1.
          1   -1    0    0  501    0 -0.00000000000E+00 -0.00000000000E+00 -0.13479150164E+04  0.13479150164E+04  0.00000000000E+00 0. -1.
         25    2    1    2    0    0 -0.64067701768E+02 -0.92265449924E+01  0.68548856731E+02  0.15656263353E+03  0.12499245144E+03 0.  0.
          2    1    1    2  501    0  0.33289180056E+02 -0.10649870788E+02 -0.13034347546E+04  0.13039032743E+04  0.00000000000E+00 0. -1.
          1    1    1    2  502    0  0.30778521712E+02  0.19876415780E+02  0.14032670606E+04  0.14037452877E+04  0.00000000000E+00 0. -1.
         22    1    3    3    0    0 -0.54583087050E+02 -0.61949683578E+02  0.21631502421E+02  0.85352203161E+02  0.00000000000E+00 0. -1.
         22    1    3    3    0    0 -0.94846147180E+01  0.52723138586E+02  0.46917354309E+02  0.71210430374E+02  0.00000000000E+00 0. -1.
</event>
<event>
 7    1  0.5127424E-006  0.1787883E+03  0.7818608E-02  0.1352797E+00
          2   -1    0    0  502    0  0.00000000000E+00  0.00000000000E+00  0.10240888607E+04  0.10240888607E+04  0.00000000000E+00 0. -1.
          1   -1    0    0  501    0 -0.00000000000E+00 -0.00000000000E+00 -0.11310563351E+04  0.11310563351E+04  0.00000000000E+00 0. -1.
         25    2    1    2    0    0  0.11097606160E+03  0.12733805123E+03  0.75200724022E+02  0.22318085876E+03  0.12499552505E+03 0.  0.
          2    1    1    2  501    0 -0.13749149623E+03 -0.11522958359E+03 -0.10492084729E+04  0.10644342103E+04  0.00000000000E+00 0. -1.
          1    1    1    2  502    0  0.26515434632E+02 -0.12108467635E+02  0.86704027443E+03  0.86753012671E+03  0.00000000000E+00 0. -1.
         22    1    3    3    0    0 -0.93320285457E+01  0.21502674541E+02 -0.24940862306E+02  0.34227158541E+02  0.00000000000E+00 0. -1.
         22    1    3    3    0    0  0.12030809015E+03  0.10583537669E+03  0.10014158633E+03  0.18895370022E+03  0.00000000000E+00 0. -1.
</event>
<event>
 7    1  0.5127424E-006  0.8404093E+02  0.7818608E-02  0.1423707E+00
          2   -1    0    0  502    0  0.00000000000E+00  0.00000000000E+00  0.11809553640E+04  0.11809553640E+04  0.00000000000E+00 0. -1.
          1   -1    0    0  501    0 -0.00000000000E+00 -0.00000000000E+00 -0.13863455244E+04  0.13863455244E+04  0.00000000000E+00 0. -1.
         25    2    1    2    0    0  0.55547940986E+02 -0.41530683053E+02  0.53092240404E+03  0.54983155667E+03  0.12500308081E+03 0.  0.
          2    1    1    2  501    0  0.30993790851E+02  0.16285730936E+02 -0.13734950984E+04  0.13739412744E+04  0.00000000000E+00 0. -1.
          1    1    1    2  502    0 -0.86541731837E+02  0.25244952117E+02  0.63718253395E+03  0.64352805730E+03  0.00000000000E+00 0. -1.
         22    1    3    3    0    0 -0.30097568382E+02 -0.22398371830E+02  0.30769720213E+03  0.30997599726E+03  0.00000000000E+00 0. -1.
         22    1    3    3    0    0  0.85645509368E+02 -0.19132311222E+02  0.22322520191E+03  0.23985555940E+03  0.00000000000E+00 0. -1.
</event>
<event>
 7    1  0.5127424E-006  0.2690534E+02  0.7818608E-02  0.1675286E+00
          2   -1    0    0  502    0  0.00000000000E+00  0.00000000000E+00  0.89572199237E+03  0.89572199237E+03  0.00000000000E+00 0. -1.
          1   -1    0    0  501    0 -0.00000000000E+00 -0.00000000000E+00 -0.43481378803E+03  0.43481378803E+03  0.00000000000E+00 0. -1.
         25    2    1    2    0    0 -0.41512644970E+02 -0.23443458343E+02 -0.22581303048E+01  0.13380343007E+03  0.12500145325E+03 0.  0.
          2    1    1    2  501    0  0.20291761247E+02  0.70089001830E+01 -0.36625159532E+03  0.36688024113E+03  0.00000000000E+00 0. -1.
          1    1    1    2  502    0  0.21220883723E+02  0.16434558160E+02  0.82941792996E+03  0.82985210920E+03  0.00000000000E+00 0. -1.
         22    1    3    3    0    0 -0.76043341704E+02  0.19619155291E+02 -0.31886197105E+01  0.78598144809E+02  0.00000000000E+00 0. -1.
         22    1    3    3    0    0  0.34530696734E+02 -0.43062613634E+02  0.93048940565E+00  0.55205285258E+02  0.00000000000E+00 0. -1.
</event>
<event>
 7    1  0.5127424E-006  0.1410652E+03  0.7818608E-02  0.1364911E+00
          2   -1    0    0  502    0  0.00000000000E+00  0.00000000000E+00  0.33586170887E+03  0.33586170887E+03  0.00000000000E+00 0. -1.
          1   -1    0    0  501    0 -0.00000000000E+00 -0.00000000000E+00 -0.34898143405E+03  0.34898143405E+03  0.00000000000E+00 0. -1.
         25    2    1    2    0    0 -0.15325640395E+03 -0.38703150662E+02 -0.84782783045E+02  0.21863800867E+03  0.12501599621E+03 0.  0.
          2    1    1    2  501    0  0.14197294950E+02  0.30190880787E+02 -0.17756937427E+03  0.18067632702E+03  0.00000000000E+00 0. -1.
          1    1    1    2  502    0  0.13905910900E+03  0.85122698750E+01  0.24923243214E+03  0.28552880724E+03  0.00000000000E+00 0. -1.
         22    1    3    3    0    0  0.35389823135E+01  0.27086245187E+01  0.23317507800E+02  0.23739570607E+02  0.00000000000E+00 0.  1.
         22    1    3    3    0    0 -0.15679538626E+03 -0.41411775181E+02 -0.10810029084E+03  0.19489843806E+03  0.00000000000E+00 0.  1.
</event>
<event>
 7    1  0.5127424E-006  0.2150857E+03  0.7818608E-02  0.1160713E+00
          2   -1    0    0  502    0  0.00000000000E+00  0.00000000000E+00  0.16860627614E+04  0.16860627614E+04  0.00000000000E+00 0. -1.
          1   -1    0    0  501    0 -0.00000000000E+00 -0.00000000000E+00 -0.43419623389E+03  0.43419623389E+03  0.00000000000E+00 0. -1.
         25    2    1    2    0    0  0.27254558148E+02  0.15729607658E+03  0.32943500117E+03  0.38683008076E+03  0.12500089892E+03 0.  0.
          2    1    1    2  501    0  0.13478375392E+03 -0.17907525879E+03 -0.36897491846E+03  0.43171414047E+03  0.00000000000E+00 0. -1.
          1    1    1    2  502    0 -0.16203831207E+03  0.21779182209E+02  0.12914064448E+04  0.13017147741E+04  0.00000000000E+00 0. -1.
         22    1    3    3    0    0  0.61479474034E+02  0.41740009879E+02  0.18079537810E+03  0.19547102827E+03  0.00000000000E+00 0.  1.
         22    1    3    3    0    0 -0.34224915887E+02  0.11555606671E+03  0.14863962308E+03  0.19135905249E+03  0.00000000000E+00 0.  1.
</event>
<event>
 7    1  0.5127424E-006  0.1111718E+03  0.7818608E-02  0.1408823E+00
          2   -1    0    0  502    0  0.00000000000E+00  0.00000000000E+00  0.87101122387E+03  0.87101122387E+03  0.00000000000E+00 0. -1.
          1   -1    0    0  501    0 -0.00000000000E+00 -0.00000000000E+00 -0.40231030328E+02  0.40231030328E+02  0.00000000000E+00 0. -1.
         25    2    1    2    0    0 -0.66181541508E+02 -0.62580527359E+02  0.39187330602E+03  0.42129093279E+03  0.12500017296E+03 0.  0.
          2    1    1    2  501    0  0.76088310387E+02  0.90575144726E+02  0.11598793334E+03  0.16566981771E+03  0.00000000000E+00 0. -1.
          1    1    1    2  502    0 -0.99067688784E+01 -0.27994617367E+02  0.32291895417E+03  0.32428150369E+03  0.00000000000E+00 0. -1.
         22    1    3    3    0    0 -0.21299214814E+02  0.38436026999E+02  0.12093714149E+03  0.12867313984E+03  0.00000000000E+00 0.  1.
         22    1    3    3    0    0 -0.44882326694E+02 -0.10101655436E+03  0.27093616453E+03  0.29261779296E+03  0.00000000000E+00 0.  1.
</event>
<event>
 7    1  0.5127424E-006  0.5822347E+02  0.7818608E-02  0.1478474E+00
          2   -1    0    0  502    0  0.00000000000E+00  0.00000000000E+00  0.31874296515E+03  0.31874296515E+03  0.00000000000E+00 0. -1.
          1   -1    0    0  501    0 -0.00000000000E+00 -0.00000000000E+00 -0.95163980130E+02  0.95163980130E+02  0.00000000000E+00 0. -1.
         25    2    1    2    0    0 -0.51658749930E+02  0.11937406463E+01  0.10916989888E+03  0.17382117085E+03  0.12500272459E+03 0.  0.
          2    1    1    2  501    0  0.48562215658E+02 -0.34825872392E+02 -0.46469377694E+02  0.75700285605E+02  0.00000000000E+00 0. -1.
          1    1    1    2  502    0  0.30965342721E+01  0.33632131745E+02  0.16087846383E+03  0.16438548882E+03  0.00000000000E+00 0. -1.
         22    1    3    3    0    0  0.18032177962E+02 -0.28642074048E+02 -0.75173998239E+01  0.34670436223E+02  0.00000000000E+00 0. -1.
         22    1    3    3    0    0 -0.69690927892E+02  0.29835814694E+02  0.11668729870E+03  0.13915073463E+03  0.00000000000E+00 0. -1.
</event>
<event>
 7    1  0.5127424E-006  0.1270572E+03  0.7818608E-02  0.1268576E+00
          2   -1    0    0  502    0  0.00000000000E+00  0.00000000000E+00  0.88516817452E+03  0.88516817452E+03  0.00000000000E+00 0. -1.
          1   -1    0    0  501    0 -0.00000000000E+00 -0.00000000000E+00 -0.89766257412E+03  0.89766257412E+03  0.00000000000E+00 0. -1.
         25    2    1    2    0    0  0.28680877907E+02 -0.11316663328E+03  0.15030344889E+03  0.22769581781E+03  0.12499991621E+03 0.  0.
          2    1    1    2  501    0 -0.87888826357E+02 -0.57711278152E+01 -0.85033199337E+03  0.85488142492E+03  0.00000000000E+00 0. -1.
          1    1    1    2  502    0  0.59207948450E+02  0.11893776110E+03  0.68753414487E+03  0.70025350591E+03  0.00000000000E+00 0. -1.
         22    1    3    3    0    0  0.83280169897E+01  0.61868939659E+01  0.93294101246E+02  0.93869179453E+02  0.00000000000E+00 0. -1.
         22    1    3    3    0    0  0.20352860917E+02 -0.11935352725E+03  0.57009347648E+02  0.13382663836E+03  0.00000000000E+00 0. -1.
</event>
<event>
 7    1  0.5127424E-006  0.6493880E+02  0.7818608E-02  0.1482742E+00
          2   -1    0    0  502    0  0.00000000000E+00  0.00000000000E+00  0.89114861897E+03  0.89114861897E+03  0.00000000000E+00 0. -1.
          1   -1    0    0  501    0 -0.00000000000E+00 -0.00000000000E+00 -0.62809112823E+03  0.62809112823E+03  0.00000000000E+00 0. -1.
         25    2    1    2    0    0  0.35302536569E+02 -0.24269493791E+02 -0.11565119965E+03  0.17560137727E+03  0.12500146519E+03 0.  0.
          2    1    1    2  501    0 -0.40393568852E+02  0.53208211840E+02 -0.47989984594E+03  0.48452720909E+03  0.00000000000E+00 0. -1.
          1    1    1    2  502    0  0.50910322829E+01 -0.28938718049E+02  0.85860853634E+03  0.85911116084E+03  0.00000000000E+00 0. -1.
         22    1    3    3    0    0 -0.10017617325E+02 -0.56551599818E+02 -0.13068975246E+02  0.58900205542E+02  0.00000000000E+00 0.  1.
         22    1    3    3    0    0  0.45320153894E+02  0.32282106027E+02 -0.10258222440E+03  0.11670117172E+03  0.00000000000E+00 0.  1.
</event>
<event>
 7    1  0.5127424E-006  0.5408241E+02  0.7818608E-02  0.1451402E+00
          2   -1    0    0  502    0  0.00000000000E+00  0.00000000000E+00  0.73232482092E+03  0.73232482092E+03  0.00000000000E+00 0. -1.
          1   -1    0    0  501    0 -0.00000000000E+00 -0.00000000000E+00 -0.15933048632E+03  0.15933048632E+03  0.00000000000E+00 0. -1.
         25    2    1    2    0    0  0.34514612820E+02  0.68476902629E+02  0.18792750011E+03  0.23837120580E+03  0.12499496696E+03 0.  0.
          2    1    1    2  501    0  0.70274884927E+01 -0.53373328372E+02 -0.12771672333E+03  0.13859891483E+03  0.00000000000E+00 0. -1.
          1    1    1    2  502    0 -0.41542101313E+02 -0.15103574257E+02  0.51278355782E+03  0.51468518661E+03  0.00000000000E+00 0. -1.
         22    1    3    3    0    0  0.27463838380E+01  0.10032560414E+03  0.14377259746E+03  0.17533775763E+03  0.00000000000E+00 0. -1.
         22    1    3    3    0    0  0.31768228982E+02 -0.31848701507E+02  0.44154902646E+02  0.63033448168E+02  0.00000000000E+00 0. -1.
</event>
<event>
 7    1  0.5127424E-006  0.4679124E+02  0.7818608E-02  0.1536973E+00
          2   -1    0    0  502    0  0.00000000000E+00  0.00000000000E+00  0.10038379659E+04  0.10038379659E+04  0.00000000000E+00 0. -1.
          1   -1    0    0  501    0 -0.00000000000E+00 -0.00000000000E+00 -0.19823545110E+04  0.19823545110E+04  0.00000000000E+00 0. -1.
         25    2    1    2    0    0  0.68887043945E+02  0.29387820717E+02 -0.81752518637E+02  0.16708511411E+03  0.12499956890E+03 0.  0.
          2    1    1    2  501    0 -0.25947811128E+02 -0.11120743024E+02 -0.18572620048E+04  0.18574765447E+04  0.00000000000E+00 0. -1.
          1    1    1    2  502    0 -0.42939232817E+02 -0.18267077693E+02  0.96049797836E+03  0.96163081808E+03  0.00000000000E+00 0. -1.
         22    1    3    3    0    0 -0.26599484259E+02  0.13055598261E+02  0.12284485284E+02  0.32076311937E+02  0.00000000000E+00 0.  1.
         22    1    3    3    0    0  0.95486528204E+02  0.16332222457E+02 -0.94037003921E+02  0.13500880218E+03  0.00000000000E+00 0.  1.
</event>
<event>
 7    1  0.5127424E-006  0.5765462E+02  0.7818608E-02  0.1463819E+00
          2   -1    0    0  502    0  0.00000000000E+00  0.00000000000E+00  0.57389874350E+02  0.57389874350E+02  0.00000000000E+00 0. -1.
          1   -1    0    0  501    0 -0.00000000000E+00 -0.00000000000E+00 -0.63505951834E+03  0.63505951834E+03  0.00000000000E+00 0. -1.
         25    2    1    2    0    0 -0.11003278350E+02 -0.34543450533E+02 -0.27548844440E+03  0.30468567524E+03  0.12500062236E+03 0.  0.
          2    1    1    2  501    0  0.48434530888E+02  0.40332083356E+02 -0.33301300933E+03  0.33892513201E+03  0.00000000000E+00 0. -1.
          1    1    1    2  502    0 -0.37431252538E+02 -0.57886328236E+01  0.30831809731E+02  0.48838585440E+02  0.00000000000E+00 0. -1.
         22    1    3    3    0    0  0.25974578328E+02  0.95626076253E+01 -0.22909127755E+03  0.23075730895E+03  0.00000000000E+00 0. -1.
         22    1    3    3    0    0 -0.36977856678E+02 -0.44106058158E+02 -0.46397166848E+02  0.73928366290E+02  0.00000000000E+00 0. -1.
</event>
<event>
 7    1  0.5127424E-006  0.1764530E+03  0.7818608E-02  0.1395178E+00
          2   -1    0    0  502    0  0.00000000000E+00  0.00000000000E+00  0.94619042742E+02  0.94619042742E+02  0.00000000000E+00 0. -1.
          1   -1    0    0  501    0 -0.00000000000E+00 -0.00000000000E+00 -0.19195310232E+04  0.19195310232E+04  0.00000000000E+00 0. -1.
         25    2    1    2    0    0  0.41168047428E+02  0.18833451439E+03 -0.75996174514E+03  0.79392939172E+03  0.12496930629E+03 0.  0.
          2    1    1    2  501    0  0.51807318475E+01 -0.20183174722E+02 -0.10443821627E+04  0.10445900163E+04  0.00000000000E+00 0. -1.
          1    1    1    2  502    0 -0.46348779276E+02 -0.16815133967E+03 -0.20568072630E+02  0.17563065787E+03  0.00000000000E+00 0. -1.
         22    1    3    3    0    0 -0.16656994791E+02  0.16630776072E+03 -0.58154325840E+03  0.60508535608E+03  0.00000000000E+00 0. -1.
         22    1    3    3    0    0  0.57825042220E+02  0.22026753671E+02 -0.17841848674E+03  0.18884403564E+03  0.00000000000E+00 0. -1.
</event>
<event>
 7    1  0.5127424E-006  0.7044731E+02  0.7818608E-02  0.1384683E+00
          2   -1    0    0  502    0  0.00000000000E+00  0.00000000000E+00  0.10647484399E+03  0.10647484399E+03  0.00000000000E+00 0. -1.
          1   -1    0    0  501    0 -0.00000000000E+00 -0.00000000000E+00 -0.84284161317E+03  0.84284161317E+03  0.00000000000E+00 0. -1.
         25    2    1    2    0    0  0.77638546582E+00 -0.12301306156E+03 -0.39664711451E+03  0.43369137759E+03  0.12500584569E+03 0.  0.
          2    1    1    2  501    0 -0.12855511236E+02  0.55311414147E+02 -0.41197729182E+03  0.41587246323E+03  0.00000000000E+00 0. -1.
          1    1    1    2  502    0  0.12079125770E+02  0.67701647416E+02  0.72257637144E+02  0.99752616346E+02  0.00000000000E+00 0. -1.
         22    1    3    3    0    0 -0.61523501157E+02 -0.62960874432E+02 -0.22099314037E+03  0.23788060239E+03  0.00000000000E+00 0.  1.
         22    1    3    3    0    0  0.62299886622E+02 -0.60052187130E+02 -0.17565397414E+03  0.19581077520E+03  0.00000000000E+00 0.  1.
</event>
<event>
 7    1  0.5127424E-006  0.1455949E+03  0.7818608E-02  0.1268706E+00
          2   -1    0    0  502    0  0.00000000000E+00  0.00000000000E+00  0.59501878478E+02  0.59501878478E+02  0.00000000000E+00 0. -1.
          1   -1    0    0  501    0 -0.00000000000E+00 -0.00000000000E+00 -0.34947980949E+04  0.34947980949E+04  0.00000000000E+00 0. -1.
         25    2    1    2    0    0 -0.12041955499E+03 -0.14485074780E+03 -0.36683304008E+03  0.43090104474E+03  0.12500649061E+03 0.  0.
          2    1    1    2  501    0  0.44045709002E+02  0.13709526898E+03 -0.30370370803E+04  0.30404488755E+04  0.00000000000E+00 0. -1.
          1    1    1    2  502    0  0.76373845993E+02  0.77554788222E+01 -0.31426095993E+02  0.82950053121E+02  0.00000000000E+00 0. -1.
         22    1    3    3    0    0 -0.49793434894E+01 -0.57318801872E+02 -0.31458836933E+02  0.65573602393E+02  0.00000000000E+00 0. -1.
         22    1    3    3    0    0 -0.11544021151E+03 -0.87531945927E+02 -0.33537420315E+03  0.36532744234E+03  0.00000000000E+00 0. -1.
</event>
<event>
 7    1  0.5127424E-006  0.1288009E+03  0.7818608E-02  0.1243530E+00
          2   -1    0    0  502    0  0.00000000000E+00  0.00000000000E+00  0.13007289734E+04  0.13007289734E+04  0.00000000000E+00 0. -1.
          1   -1    0    0  501    0 -0.00000000000E+00 -0.00000000000E+00 -0.64244725310E+02  0.64244725310E+02  0.00000000000E+00 0. -1.
         25    2    1    2    0    0  0.15201054521E+02 -0.86558060471E+02  0.18453399457E+03  0.23958712814E+03  0.12500330767E+03 0.  0.
          2    1    1    2  501    0  0.10968083579E+03  0.18988739255E+02  0.66299671229E+02  0.12956119929E+03  0.00000000000E+00 0. -1.
          1    1    1    2  502    0 -0.12488189031E+03  0.67569321217E+02  0.98565058234E+03  0.99582537132E+03  0.00000000000E+00 0. -1.
         22    1    3    3    0    0 -0.93419167305E+01  0.14167319796E+02 -0.96058984130E+01  0.19500195967E+02  0.00000000000E+00 0. -1.
         22    1    3    3    0    0  0.24542971251E+02 -0.10072538027E+03  0.19413989298E+03  0.22008693217E+03  0.00000000000E+00 0. -1.
</event>
<event>
 7    1  0.5127424E-006  0.9859008E+02  0.7818608E-02  0.1335048E+00
          2   -1    0    0  502    0  0.00000000000E+00  0.00000000000E+00  0.24314788848E+04  0.24314788848E+04  0.00000000000E+00 0. -1.
          1   -1    0    0  501    0 -0.00000000000E+00 -0.00000000000E+00 -0.29920498629E+02  0.29920498629E+02  0.00000000000E+00 0. -1.
         25    2    1    2    0    0  0.91897005059E+02 -0.26391113796E+02  0.38300521348E+03  0.41407510947E+03  0.12499460911E+03 0.  0.
          2    1    1    2  501    0  0.20198296065E+01  0.61557109621E+02  0.59271853268E+02  0.85478126128E+02  0.00000000000E+00 0. -1.
          1    1    1    2  502    0 -0.93916834666E+02 -0.35165995825E+02  0.19592813194E+04  0.19618461478E+04  0.00000000000E+00 0. -1.
         22    1    3    3    0    0  0.59315928221E+02  0.39123216222E+02  0.10631928951E+03  0.12787805406E+03  0.00000000000E+00 0.  1.
         22    1    3    3    0    0  0.32581076838E+02 -0.65514330018E+02  0.27668592396E+03  0.28619705541E+03  0.00000000000E+00 0.  1.
</event>
<event>
 7    1  0.5127424E-006  0.7632521E+02  0.7818608E-02  0.1341123E+00
          2   -1    0    0  502    0  0.00000000000E+00  0.00000000000E+00  0.11492325717E+04  0.11492325717E+04  0.00000000000E+00 0. -1.
          1   -1    0    0  501    0 -0.00000000000E+00 -0.00000000000E+00 -0.67862078703E+03  0.67862078703E+03  0.00000000000E+00 0. -1.
         25    2    1    2    0    0  0.70533760515E+02 -0.52283254481E+02 -0.26079941751E+02  0.15496384788E+03  0.12500032287E+03 0.  0.
          2    1    1    2  501    0 -0.71412362520E+02 -0.24402550266E+02 -0.58431377996E+03  0.58916704204E+03  0.00000000000E+00 0. -1.
          1    1    1    2  502    0  0.87860200504E+00  0.76685804747E+02  0.10810055064E+04  0.10837224688E+04  0.00000000000E+00 0. -1.
         22    1    3    3    0    0 -0.82154942727E+01 -0.20549237493E+02  0.41111884123E+02  0.46689961703E+02  0.00000000000E+00 0. -1.
         22    1    3    3    0    0  0.78749254788E+02 -0.31734016988E+02 -0.67191825874E+02  0.10827388618E+03  0.00000000000E+00 0. -1.
</event>
<event>
 7    1  0.5127424E-006  0.6227861E+02  0.7818608E-02  0.1464090E+00
          2   -1    0    0  502    0  0.00000000000E+00  0.00000000000E+00  0.77863434603E+03  0.77863434603E+03  0.00000000000E+00 0. -1.
          1   -1    0    0  501    0 -0.00000000000E+00 -0.00000000000E+00 -0.11163086051E+04  0.11163086051E+04  0.00000000000E+00 0. -1.
         25    2    1    2    0    0  0.55463484485E+02  0.68947954947E+02  0.18232869365E+03  0.23812698330E+03  0.12502275410E+03 0.  0.
          2    1    1    2  501    0 -0.51985578094E+02 -0.34125890495E+02 -0.10869812933E+04  0.10887586549E+04  0.00000000000E+00 0. -1.
          1    1    1    2  502    0 -0.34779063908E+01 -0.34822064451E+02  0.56697834060E+03  0.56805731288E+03  0.00000000000E+00 0. -1.
         22    1    3    3    0    0  0.58967043620E+02  0.10308285739E+02  0.16701625238E+03  0.17741984542E+03  0.00000000000E+00 0.  1.
         22    1    3    3    0    0 -0.35035591347E+01  0.58639669208E+02  0.15312441267E+02  0.60707137875E+02  0.00000000000E+00 0.  1.
</event>
<event>
 7    1  0.5127424E-006  0.8589577E+02  0.7818608E-02  0.1451231E+00
          2   -1    0    0  502    0  0.00000000000E+00  0.00000000000E+00  0.15479487179E+03  0.15479487179E+03  0.00000000000E+00 0. -1.
          1   -1    0    0  501    0 -0.00000000000E+00 -0.00000000000E+00 -0.23762577539E+03  0.23762577539E+03  0.00000000000E+00 0. -1.
         25    2    1    2    0    0 -0.58810732122E+02 -0.77627284769E+02 -0.77319846349E+02  0.17631326615E+03  0.12499324632E+03 0.  0.
          2    1    1    2  501    0  0.27837793504E+02 -0.12615490286E+01 -0.91334213017E+02  0.95490694419E+02  0.00000000000E+00 0. -1.
          1    1    1    2  502    0  0.30972938618E+02  0.78888833798E+02  0.85823155760E+02  0.12061668661E+03  0.00000000000E+00 0. -1.
         22    1    3    3    0    0 -0.74809447493E+02 -0.55214835602E+02 -0.10293048198E+03  0.13870766246E+03  0.00000000000E+00 0. -1.
         22    1    3    3    0    0  0.15998715371E+02 -0.22412449167E+02  0.25610635631E+02  0.37605603686E+02  0.00000000000E+00 0. -1.
</event>
<event>
 7    1  0.5127424E-006  0.9701635E+02  0.7818608E-02  0.1474516E+00
          2   -1    0    0  502    0  0.00000000000E+00  0.00000000000E+00  0.75254732832E+02  0.75254732832E+02  0.00000000000E+00 0. -1.
          1   -1    0    0  501    0 -0.00000000000E+00 -0.00000000000E+00 -0.50271481824E+03  0.50271481824E+03  0.00000000000E+00 0. -1.
         25    2    1    2    0    0  0.61562640727E+02  0.80705293659E+02 -0.22041922439E+03  0.27296755791E+03  0.12499339996E+03 0.  0.
          2    1    1    2  501    0 -0.41548800261E+02 -0.86539814802E+02 -0.24420190257E+03  0.26239285731E+03  0.00000000000E+00 0. -1.
          1    1    1    2  502    0 -0.20013840465E+02  0.58345211439E+01  0.37161041563E+02  0.42609135842E+02  0.00000000000E+00 0. -1.
         22    1    3    3    0    0  0.47719610520E+02  0.23946071371E+02 -0.96561005560E+01  0.54256942784E+02  0.00000000000E+00 0. -1.
         22    1    3    3    0    0  0.13843030206E+02  0.56759222287E+02 -0.21076312384E+03  0.21871061513E+03  0.00000000000E+00 0. -1.
</event>
<event>
 7    1  0.5127424E-006  0.9181397E+02  0.7818608E-02  0.1301077E+00
          2   -1    0    0  502    0  0.00000000000E+00  0.00000000000E+00  0.23952560643E+04  0.23952560643E+04  0.00000000000E+00 0. -1.
          1   -1    0    0  501    0 -0.00000000000E+00 -0.00000000000E+00 -0.83666979732E+02  0.83666979732E+02  0.00000000000E+00 0. -1.
         25    2    1    2    0    0  0.61892183280E+01 -0.20063667030E+02  0.11494811523E+03  0.17110808392E+03  0.12499620006E+03 0.  0.
          2    1    1    2  501    0  0.88507378327E+02  0.14410009418E+02 -0.17733468679E+02  0.91409410353E+02  0.00000000000E+00 0. -1.
          1    1    1    2  502    0 -0.94696596655E+02  0.56536576112E+01  0.22143744380E+04  0.22164055498E+04  0.00000000000E+00 0. -1.
         22    1    3    3    0    0  0.16169983730E+02  0.51294324241E+02  0.39110641921E+02  0.66499762290E+02  0.00000000000E+00 0.  1.
         22    1    3    3    0    0 -0.99807654017E+01 -0.71357991270E+02  0.75837473304E+02  0.10460832163E+03  0.00000000000E+00 0.  1.
</event>
<event>
 7    1  0.5127424E-006  0.2325676E+03  0.7818608E-02  0.1216669E+00
          2   -1    0    0  502    0  0.00000000000E+00  0.00000000000E+00  0.16082415264E+04  0.16082415264E+04  0.00000000000E+00 0. -1.
          1   -1    0    0  501    0 -0.00000000000E+00 -0.00000000000E+00 -0.10808281317E+04  0.10808281317E+04  0.00000000000E+00 0. -1.
         25    2    1    2    0    0  0.13977794718E+03 -0.11583769760E+03  0.28604659564E+02  0.22226000949E+03  0.12500015427E+03 0.  0.
          2    1    1    2  501    0 -0.13560241512E+03  0.19707877679E+03 -0.96831737339E+03  0.99742999497E+03  0.00000000000E+00 0. -1.
          1    1    1    2  502    0 -0.41755320612E+01 -0.81241079191E+02  0.14671261086E+04  0.14693796536E+04  0.00000000000E+00 0. -1.
         22    1    3    3    0    0 -0.17054162436E+02 -0.17444461703E+02 -0.19201037490E+02  0.31045668638E+02  0.00000000000E+00 0. -1.
         22    1    3    3    0    0  0.15683210962E+03 -0.98393235899E+02  0.47805697054E+02  0.19121434086E+03  0.00000000000E+00 0. -1.
</event>
<event>
 7    1  0.5127424E-006  0.4087532E+02  0.7818608E-02  0.1505868E+00
          2   -1    0    0  502    0  0.00000000000E+00  0.00000000000E+00  0.12126311324E+03  0.12126311324E+03  0.00000000000E+00 0. -1.
          1   -1    0    0  501    0 -0.00000000000E+00 -0.00000000000E+00 -0.10632314254E+04  0.10632314254E+04  0.00000000000E+00 0. -1.
         25    2    1    2    0    0  0.10420870219E+02 -0.31544527627E+02 -0.34453842396E+03  0.36801417468E+03  0.12499622161E+03 0.  0.
          2    1    1    2  501    0  0.29334201284E+02  0.30363115302E+02 -0.70268982559E+03  0.70395696255E+03  0.00000000000E+00 0. -1.
          1    1    1    2  502    0 -0.39755071503E+02  0.11814123255E+01  0.10525993739E+03  0.11252340141E+03  0.00000000000E+00 0. -1.
         22    1    3    3    0    0  0.66862782848E+01 -0.79470831713E+02 -0.18676891679E+03  0.20308359778E+03  0.00000000000E+00 0.  1.
         22    1    3    3    0    0  0.37345919347E+01  0.47926304086E+02 -0.15776950718E+03  0.16493057690E+03  0.00000000000E+00 0.  1.
</event>
<event>
 7    1  0.5127424E-006  0.1116206E+03  0.7818608E-02  0.1297676E+00
          2   -1    0    0  502    0  0.00000000000E+00  0.00000000000E+00  0.58453676641E+03  0.58453676641E+03  0.00000000000E+00 0. -1.
          1   -1    0    0  501    0 -0.00000000000E+00 -0.00000000000E+00 -0.10550739707E+04  0.10550739707E+04  0.00000000000E+00 0. -1.
         25    2    1    2    0    0  0.47607905757E+02  0.38138743474E+02 -0.14757410795E+03  0.20279757821E+03  0.12501065534E+03 0.  0.
          2    1    1    2  501    0 -0.11972355105E+03 -0.13801001323E+02 -0.87312917952E+03  0.88140726140E+03  0.00000000000E+00 0. -1.
          1    1    1    2  502    0  0.72115645297E+02 -0.24337742151E+02  0.55016608314E+03  0.55540589754E+03  0.00000000000E+00 0. -1.
         22    1    3    3    0    0  0.85010378031E+02  0.26379057710E+02 -0.13484986787E+03  0.16157693500E+03  0.00000000000E+00 0. -1.
         22    1    3    3    0    0 -0.37402472274E+02  0.11759685764E+02 -0.12724240081E+02  0.41220643216E+02  0.00000000000E+00 0. -1.
</event>
<event>
 7    1  0.5127424E-006  0.2196233E+03  0.7818608E-02  0.1205338E+00
          2   -1    0    0  502    0  0.00000000000E+00  0.00000000000E+00  0.69121742526E+03  0.69121742526E+03  0.00000000000E+00 0. -1.
          1   -1    0    0  501    0 -0.00000000000E+00 -0.00000000000E+00 -0.61484866246E+03  0.61484866246E+03  0.00000000000E+00 0. -1.
         25    2    1    2    0    0 -0.17461011545E+03  0.13842612421E+03 -0.79336824262E+02  0.26752161759E+03  0.12499199939E+03 0.  0.
          2    1    1    2  501    0  0.21766122212E+03 -0.51278635400E+02 -0.40867469746E+03  0.46585503583E+03  0.00000000000E+00 0. -1.
          1    1    1    2  502    0 -0.43051106665E+02 -0.87147488809E+02  0.56438028453E+03  0.57268943430E+03  0.00000000000E+00 0. -1.
         22    1    3    3    0    0 -0.14005809712E+03  0.68712127837E+02  0.54940134689E+00  0.15600618232E+03  0.00000000000E+00 0.  1.
         22    1    3    3    0    0 -0.34552018332E+02  0.69713996372E+02 -0.79886225609E+02  0.11151543527E+03  0.00000000000E+00 0.  1.
</event>
<event>
 7    1  0.5127424E-006  0.9827042E+02  0.7818608E-02  0.1325243E+00
          2   -1    0    0  502    0  0.00000000000E+00  0.00000000000E+00  0.12465059124E+04  0.12465059124E+04  0.00000000000E+00 0. -1.
          1   -1    0    0  501    0 -0.00000000000E+00 -0.00000000000E+00 -0.20635640626E+03  0.20635640626E+03  0.00000000000E+00 0. -1.
         25    2    1    2    0    0  0.11425951130E+01  0.47208272366E+02  0.49107617037E+03  0.50893120162E+03  0.12500094546E+03 0.  0.
          2    1    1    2  501    0  0.56286157798E+02 -0.82402624604E+02 -0.18317374094E+03  0.20859276946E+03  0.00000000000E+00 0. -1.
          1    1    1    2  502    0 -0.57428752911E+02  0.35194352238E+02  0.73224707668E+03  0.73533834757E+03  0.00000000000E+00 0. -1.
         22    1    3    3    0    0  0.59454246654E+02  0.31383456134E+02  0.33262427809E+03  0.33935031920E+03  0.00000000000E+00 0.  1.
         22    1    3    3    0    0 -0.58311651541E+02  0.15824816232E+02  0.15845189228E+03  0.16958088242E+03  0.00000000000E+00 0.  1.
</event>
<event>
 7    1  0.6397454E-006  0.1101386E+03  0.7818608E-02  0.1415923E+00
          2   -1    0    0  502    0  0.00000000000E+00  0.00000000000E+00  0.76543862512E+03  0.76543862512E+03  0.00000000000E+00 0. -1.
          1   -1    0    0  501    0 -0.00000000000E+00 -0.00000000000E+00 -0.17584502081E+04  0.17584502081E+04  0.00000000000E+00 0. -1.
         25    2    1    2    0    0 -0.10373785774E+02  0.86263397554E+02 -0.37958947485E+03  0.40897854391E+03  0.12500516297E+03 0.  0.
          2    1    1    2  501    0 -0.20342373279E+02  0.19766713975E+02 -0.13599595887E+04  0.13602553503E+04  0.00000000000E+00 0. -1.
          1    1    1    2  502    0  0.30716159053E+02 -0.10603011153E+03  0.74653748061E+03  0.75465493898E+03  0.00000000000E+00 0. -1.
         22    1    3    3    0    0  0.22730100422E+02 -0.25657784601E+02 -0.10977316189E+03  0.11500054977E+03  0.00000000000E+00 0. -1.
         22    1    3    3    0    0 -0.33103886196E+02  0.11192118215E+03 -0.26981631296E+03  0.29397799414E+03  0.00000000000E+00 0. -1.
</event>
<event>
 7    1  0.5127424E-006  0.5845186E+02  0.7818608E-02  0.1496540E+00
          2   -1    0    0  502    0  0.00000000000E+00  0.00000000000E+00  0.26458860523E+03  0.26458860523E+03  0.00000000000E+00 0. -1.
          1   -1    0    0  501    0 -0.00000000000E+00 -0.00000000000E+00 -0.29838500123E+03  0.29838500123E+03  0.00000000000E+00 0. -1.
         25    2    1    2    0    0 -0.17183179927E+02 -0.69810992142E+02 -0.97228822908E+02  0.17391059925E+03  0.12499046456E+03 0.  0.
          2    1    1    2  501    0  0.34535145755E+02  0.45767657304E+02 -0.15674283716E+03  0.16690018499E+03  0.00000000000E+00 0. -1.
          1    1    1    2  502    0 -0.17351965829E+02  0.24043334838E+02  0.22017526407E+03  0.22216282222E+03  0.00000000000E+00 0. -1.
         22    1    3    3    0    0 -0.30710815149E+02 -0.91483723670E+02 -0.28552741704E+02  0.10063639959E+03  0.00000000000E+00 0.  1.
         22    1    3    3    0    0  0.13527635223E+02  0.21672731528E+02 -0.68676081204E+02  0.73274199662E+02  0.00000000000E+00 0.  1.
</event>
<event>
 7    1  0.5127424E-006  0.6084658E+02  0.7818608E-02  0.1407714E+00
          2   -1    0    0  502    0  0.00000000000E+00  0.00000000000E+00  0.52610471182E+03  0.52610471182E+03  0.00000000000E+00 0. -1.
          1   -1    0    0  501    0 -0.00000000000E+00 -0.00000000000E+00 -0.87932672637E+03  0.87932672637E+03  0.00000000000E+00 0. -1.
         25    2    1    2    0    0 -0.41254057319E+02  0.34521972951E+02  0.19870721178E+03  0.24083095152E+03  0.12498530849E+03 0.  0.
          2    1    1    2  501    0  0.45354541296E+02  0.30631553581E+02 -0.85390078174E+03  0.85565289198E+03  0.00000000000E+00 0. -1.
          1    1    1    2  502    0 -0.41004839771E+01 -0.65153526533E+02  0.30197155541E+03  0.30894759469E+03  0.00000000000E+00 0. -1.
         22    1    3    3    0    0 -0.18085651084E+02 -0.16421812920E+02  0.18025496938E+03  0.18190277816E+03  0.00000000000E+00 0. -1.
         22    1    3    3    0    0 -0.23168406235E+02  0.50943785872E+02  0.18452242392E+02  0.58928173361E+02  0.00000000000E+00 0. -1.
</event>
<event>
 7    1  0.5127424E-006  0.9102780E+02  0.7818608E-02  0.1329821E+00
          2   -1    0    0  502    0  0.00000000000E+00  0.00000000000E+00  0.73271501611E+03  0.73271501611E+03  0.00000000000E+00 0. -1.
          1   -1    0    0  501    0 -0.00000000000E+00 -0.00000000000E+00 -0.54326542637E+02  0.54326542637E+02  0.00000000000E+00 0. -1.
         25    2    1    2    0    0 -0.31464541118E+01 -0.46146548266E+02  0.18176023998E+03  0.22539035235E+03  0.12499848801E+03 0.  0.
          2    1    1    2  501    0  0.64401506234E+01  0.11590214939E+03  0.84326546480E+02  0.14347735088E+03  0.00000000000E+00 0. -1.
          1    1    1    2  502    0 -0.32936965116E+01 -0.69755601126E+02  0.41230168701E+03  0.41817385552E+03  0.00000000000E+00 0. -1.
         22    1    3    3    0    0 -0.18140019564E+02  0.25983836123E+02  0.27448957461E+01  0.31808088627E+02  0.00000000000E+00 0.  1.
         22    1    3    3    0    0  0.14993565452E+02 -0.72130384389E+02  0.17901534423E+03  0.19358226372E+03  0.00000000000E+00 0.  1.
</event>
<event>
 7    1  0.5127424E-006  0.4020039E+02  0.7818608E-02  0.1535015E+00
          2   -1    0    0  502    0  0.00000000000E+00  0.00000000000E+00  0.47690147580E+03  0.47690147580E+03  0.00000000000E+00 0. -1.
          1   -1    0    0  501    0 -0.00000000000E+00 -0.00000000000E+00 -0.75233716642E+02  0.75233716642E+02  0.00000000000E+00 0. -1.
         25    2    1    2    0    0  0.32195224096E+01  0.19174894974E+02  0.88527126445E+02  0.15440074121E+03  0.12499797938E+03 0.  0.
          2    1    1    2  501    0  0.33282584085E+02  0.36646322910E-01 -0.34335217563E+02  0.47818813363E+02  0.00000000000E+00 0. -1.
          1    1    1    2  502    0 -0.36502106494E+02 -0.19211541297E+02  0.34747585027E+03  0.34991563786E+03  0.00000000000E+00 0. -1.
         22    1    3    3    0    0  0.63724581875E+02  0.40847550778E+01  0.39586164562E+02  0.75130366590E+02  0.00000000000E+00 0.  1.
         22    1    3    3    0    0 -0.60505059466E+02  0.15090139896E+02  0.48940961883E+02  0.79270374624E+02  0.00000000000E+00 0.  1.
</event>
<event>
 7    1  0.5127424E-006  0.6630244E+02  0.7818608E-02  0.1378925E+00
          2   -1    0    0  502    0  0.00000000000E+00  0.00000000000E+00  0.25236520057E+03  0.25236520057E+03  0.00000000000E+00 0. -1.
          1   -1    0    0  501    0 -0.00000000000E+00 -0.00000000000E+00 -0.48476014437E+03  0.48476014437E+03  0.00000000000E+00 0. -1.
         25    2    1    2    0    0 -0.37352245829E+02  0.18404816496E+02  0.75577045067E+02  0.15189723411E+03  0.12500780956E+03 0.  0.
          2    1    1    2  501    0  0.24167535029E+02  0.58427180523E+02 -0.43316120258E+03  0.43775156492E+03  0.00000000000E+00 0. -1.
          1    1    1    2  502    0  0.13184710800E+02 -0.76831997019E+02  0.12518921371E+03  0.14747654591E+03  0.00000000000E+00 0. -1.
         22    1    3    3    0    0  0.31700753829E+02  0.28084950496E+02  0.70168920663E+02  0.81959622161E+02  0.00000000000E+00 0. -1.
         22    1    3    3    0    0 -0.69052999658E+02 -0.96801340001E+01  0.54081244035E+01  0.69937611952E+02  0.00000000000E+00 0. -1.
</event>
<event>
 7    1  0.5127424E-006  0.5324468E+02  0.7818608E-02  0.1540223E+00
          2   -1    0    0  502    0  0.00000000000E+00  0.00000000000E+00  0.95786439628E+03  0.95786439628E+03  0.00000000000E+00 0. -1.
          1   -1    0    0  501    0 -0.00000000000E+00 -0.00000000000E+00 -0.77348321074E+03  0.77348321074E+03  0.00000000000E+00 0. -1.
         25    2    1    2    0    0  0.63652377306E+02 -0.36259352789E+02  0.20849648679E+03  0.25389838234E+03  0.12500895066E+03 0.  0.
          2    1    1    2  501    0 -0.39369321476E+02  0.35737037057E+02 -0.74963740606E+03  0.75152067161E+03  0.00000000000E+00 0. -1.
          1    1    1    2  502    0 -0.24283055830E+02  0.52231573197E+00  0.72552210481E+03  0.72592855308E+03  0.00000000000E+00 0. -1.
         22    1    3    3    0    0  0.75564825666E+02 -0.31767805598E+02  0.22120832107E+03  0.23590751930E+03  0.00000000000E+00 0.  1.
         22    1    3    3    0    0 -0.11912448360E+02 -0.44915471914E+01 -0.12711834278E+02  0.17990863037E+02  0.00000000000E+00 0.  1.
</event>
<event>
 7    1  0.5127424E-006  0.6767731E+02  0.7818608E-02  0.1435574E+00
          2   -1    0    0  502    0  0.00000000000E+00  0.00000000000E+00  0.11180036083E+03  0.11180036083E+03  0.00000000000E+00 0. -1.
          1   -1    0    0  501    0 -0.00000000000E+00 -0.00000000000E+00 -0.49193972625E+03  0.49193972625E+03  0.00000000000E+00 0. -1.
         25    2    1    2    0    0 -0.68973501530E+01 -0.88662555711E+02 -0.15589590667E+03  0.21871744764E+03  0.12500066384E+03 0.  0.
          2    1    1    2  501    0  0.29933616062E+02  0.26131926148E+02 -0.28922721881E+03  0.29194397243E+03  0.00000000000E+00 0. -1.
          1    1    1    2  502    0 -0.23036265909E+02  0.62530629564E+02  0.64983760059E+02  0.93078667008E+02  0.00000000000E+00 0. -1.
         22    1    3    3    0    0  0.12288644157E+02 -0.11743864729E+02 -0.13590030360E+03  0.13695919703E+03  0.00000000000E+00 0.  1.
         22    1    3    3    0    0 -0.19185994310E+02 -0.76918690982E+02 -0.19995603072E+02  0.81758250607E+02  0.00000000000E+00 0.  1.
</event>
<event>
 7    1  0.5127424E-006  0.6941859E+02  0.7818608E-02  0.1447029E+00
          2   -1    0    0  502    0  0.00000000000E+00  0.00000000000E+00  0.15550595951E+03  0.15550595951E+03  0.00000000000E+00 0. -1.
          1   -1    0    0  501    0 -0.00000000000E+00 -0.00000000000E+00 -0.38748028791E+03  0.38748028791E+03  0.00000000000E+00 0. -1.
         25    2    1    2    0    0 -0.87901601273E+02  0.47238086405E+02 -0.24340084832E+02  0.16178808044E+03  0.12499925972E+03 0.  0.
          2    1    1    2  501    0  0.34138615341E+02 -0.99752653466E+01 -0.28080628968E+03  0.28304968344E+03  0.00000000000E+00 0. -1.
          1    1    1    2  502    0  0.53762985932E+02 -0.37262821058E+02  0.73172046110E+02  0.98148483541E+02  0.00000000000E+00 0. -1.
         22    1    3    3    0    0 -0.14670355419E+02  0.61895425810E+02 -0.51986609645E+02  0.82151510313E+02  0.00000000000E+00 0. -1.
         22    1    3    3    0    0 -0.73231245854E+02 -0.14657339405E+02  0.27646524814E+02  0.79636570130E+02  0.00000000000E+00 0. -1.
</event>
<event>
 7    1  0.5127424E-006  0.4710762E+02  0.7818608E-02  0.1503698E+00
          2   -1    0    0  502    0  0.00000000000E+00  0.00000000000E+00  0.15374592189E+03  0.15374592189E+03  0.00000000000E+00 0. -1.
          1   -1    0    0  501    0 -0.00000000000E+00 -0.00000000000E+00 -0.37449537108E+03  0.37449537108E+03  0.00000000000E+00 0. -1.
         25    2    1    2    0    0 -0.24327049392E+02 -0.11489922735E+02  0.67911934159E+02  0.14477908965E+03  0.12500052137E+03 0.  0.
          2    1    1    2  501    0 -0.12168082116E+02 -0.32844182647E+02 -0.31734617018E+03  0.31927322826E+03  0.00000000000E+00 0. -1.
          1    1    1    2  502    0  0.36495131507E+02  0.44334105382E+02  0.28684786828E+02  0.64188975059E+02  0.00000000000E+00 0. -1.
         22    1    3    3    0    0  0.16242474661E+02 -0.24465019795E+02 -0.27537265154E+02  0.40257373844E+02  0.00000000000E+00 0. -1.
         22    1    3    3    0    0 -0.40569524052E+02  0.12975097060E+02  0.95449199313E+02  0.10452171581E+03  0.00000000000E+00 0. -1.
</event>
<event>
 7    1  0.5127424E-006  0.1034466E+03  0.7818608E-02  0.1344849E+00
          2   -1    0    0  502    0  0.00000000000E+00  0.00000000000E+00  0.31643991357E+03  0.31643991357E+03  0.00000000000E+00 0. -1.
          1   -1    0    0  501    0 -0.00000000000E+00 -0.00000000000E+00 -0.71588875084E+03  0.71588875084E+03  0.00000000000E+00 0. -1.
         25    2    1    2    0    0 -0.67510908809E+02 -0.43571513298E+02 -0.27757260294E+02  0.15117163230E+03  0.12500478924E+03 0.  0.
          2    1    1    2  501    0 -0.39817490177E+02  0.36358761101E+02 -0.61383311102E+03  0.61619678692E+03  0.00000000000E+00 0. -1.
          1    1    1    2  502    0  0.10732839899E+03  0.72127521968E+01  0.24214153405E+03  0.26496024519E+03  0.00000000000E+00 0. -1.
         22    1    3    3    0    0 -0.18249397650E+02 -0.79732745860E+02 -0.36264263044E+02  0.89473169448E+02  0.00000000000E+00 0. -1.
         22    1    3    3    0    0 -0.49261511159E+02  0.36161232562E+02  0.85070027504E+01  0.61698462849E+02  0.00000000000E+00 0. -1.
</event>
<event>
 7    1  0.5127424E-006  0.2659780E+02  0.7818608E-02  0.1663872E+00
          2   -1    0    0  502    0  0.00000000000E+00  0.00000000000E+00  0.36422123975E+03  0.36422123975E+03  0.00000000000E+00 0. -1.
          1   -1    0    0  501    0 -0.00000000000E+00 -0.00000000000E+00 -0.79831464817E+03  0.79831464817E+03  0.00000000000E+00 0. -1.
         25    2    1    2    0    0  0.45289346555E+02 -0.18400349492E+02  0.24478836144E+03  0.27916946143E+03  0.12499819408E+03 0.  0.
          2    1    1    2  501    0 -0.22582188372E+02  0.14017674164E+02 -0.77958698085E+03  0.78003994201E+03  0.00000000000E+00 0. -1.
          1    1    1    2  502    0 -0.22707158183E+02  0.43826753282E+01  0.10070521098E+03  0.10332648448E+03  0.00000000000E+00 0. -1.
         22    1    3    3    0    0 -0.57977536415E+01 -0.47302519710E+02  0.29557161864E+02  0.56078232280E+02  0.00000000000E+00 0. -1.
         22    1    3    3    0    0  0.51087100196E+02  0.28902170218E+02  0.21523119958E+03  0.22309122915E+03  0.00000000000E+00 0. -1.
</event>
<event>
 7    1  0.5127424E-006  0.1270490E+03  0.7818608E-02  0.1369108E+00
          2   -1    0    0  502    0  0.00000000000E+00  0.00000000000E+00  0.45224535340E+03  0.45224535340E+03  0.00000000000E+00 0. -1.
          1   -1    0    0  501    0 -0.00000000000E+00 -0.00000000000E+00 -0.20134005083E+03  0.20134005083E+03  0.00000000000E+00 0. -1.
         25    2    1    2    0    0  0.88824790278E+02 -0.81823378372E+02 -0.92323010772E+02  0.19680499527E+03  0.12499503682E+03 0.  0.
          2    1    1    2  501    0 -0.22755431346E+02 -0.27602276484E+02 -0.39487896550E+02  0.53282166781E+02  0.00000000000E+00 0. -1.
          1    1    1    2  502    0 -0.66069358932E+02  0.10942565486E+03  0.38271620989E+03  0.40349824218E+03  0.00000000000E+00 0. -1.
         22    1    3    3    0    0 -0.11862201375E+02 -0.70294942708E+02 -0.26992587293E+02  0.76227885715E+02  0.00000000000E+00 0. -1.
         22    1    3    3    0    0  0.10068699165E+03 -0.11528435664E+02 -0.65330423479E+02  0.12057710956E+03  0.00000000000E+00 0. -1.
</event>
<event>
 7    1  0.5127424E-006  0.7308767E+02  0.7818608E-02  0.1415213E+00
          2   -1    0    0  502    0  0.00000000000E+00  0.00000000000E+00  0.14537486562E+04  0.14537486562E+04  0.00000000000E+00 0. -1.
          1   -1    0    0  501    0 -0.00000000000E+00 -0.00000000000E+00 -0.21522718372E+03  0.21522718372E+03  0.00000000000E+00 0. -1.
         25    2    1    2    0    0 -0.73514638399E+02  0.63453313310E+02  0.94445540487E+02  0.18434743734E+03  0.12503316562E+03 0.  0.
          2    1    1    2  501    0  0.30580208536E+02 -0.65406513442E+02 -0.16225292955E+03  0.17759272030E+03  0.00000000000E+00 0. -1.
          1    1    1    2  502    0  0.42934429864E+02  0.19532001321E+01  0.13063288615E+04  0.13070356823E+04  0.00000000000E+00 0. -1.
         22    1    3    3    0    0 -0.39210410858E+02  0.80511204289E+02  0.11099351182E+03  0.14261511141E+03  0.00000000000E+00 0.  1.
         22    1    3    3    0    0 -0.34304227542E+02 -0.17057890978E+02 -0.16547971337E+02  0.41732325926E+02  0.00000000000E+00 0.  1.
</event>
<event>
 7    1  0.5127424E-006  0.1934457E+03  0.7818608E-02  0.1270009E+00
          2   -1    0    0  502    0  0.00000000000E+00  0.00000000000E+00  0.93149748950E+03  0.93149748950E+03  0.00000000000E+00 0. -1.
          1   -1    0    0  501    0 -0.00000000000E+00 -0.00000000000E+00 -0.11348278645E+04  0.11348278645E+04  0.00000000000E+00 0. -1.
         25    2    1    2    0    0 -0.17623888839E+03 -0.46043966885E+02 -0.88598468820E+03  0.91311212556E+03  0.12499877382E+03 0.  0.
          2    1    1    2  501    0 -0.17246791939E+02  0.54384725837E+02 -0.22140774490E+03  0.22864063448E+03  0.00000000000E+00 0. -1.
          1    1    1    2  502    0  0.19348568033E+03 -0.83407589527E+01  0.90406205806E+03  0.92457259400E+03  0.00000000000E+00 0. -1.
         22    1    3    3    0    0 -0.14894200615E+03 -0.26128243239E+02 -0.42883101270E+03  0.45471138511E+03  0.00000000000E+00 0. -1.
         22    1    3    3    0    0 -0.27296882240E+02 -0.19915723645E+02 -0.45715367549E+03  0.45840074045E+03  0.00000000000E+00 0. -1.
</event>
<event>
 7    1  0.5127424E-006  0.2846659E+03  0.7818608E-02  0.1219679E+00
          2   -1    0    0  502    0  0.00000000000E+00  0.00000000000E+00  0.83475395048E+03  0.83475395048E+03  0.00000000000E+00 0. -1.
          1   -1    0    0  501    0 -0.00000000000E+00 -0.00000000000E+00 -0.22680590455E+04  0.22680590455E+04  0.00000000000E+00 0. -1.
         25    2    1    2    0    0 -0.12927945965E+03  0.19942693068E+03  0.38472737721E+02  0.27127432621E+03  0.12500131656E+03 0.  0.
          2    1    1    2  501    0 -0.11324216975E+02  0.63383062368E+02 -0.21184786685E+04  0.21194568926E+04  0.00000000000E+00 0. -1.
          1    1    1    2  502    0  0.14060367663E+03 -0.26280999305E+03  0.64670083581E+03  0.71208177716E+03  0.00000000000E+00 0. -1.
         22    1    3    3    0    0 -0.11258010123E+03  0.21254809615E+03  0.52020518218E+02  0.24608353599E+03  0.00000000000E+00 0.  1.
         22    1    3    3    0    0 -0.16699358429E+02 -0.13121165473E+02 -0.13547780497E+02  0.25190790216E+02  0.00000000000E+00 0.  1.
</event>
<event>
 7    1  0.5127424E-006  0.3829283E+02  0.7818608E-02  0.1544452E+00
          2   -1    0    0  502    0  0.00000000000E+00  0.00000000000E+00  0.54133768822E+03  0.54133768822E+03  0.00000000000E+00 0. -1.
          1   -1    0    0  501    0 -0.00000000000E+00 -0.00000000000E+00 -0.25048053072E+03  0.25048053072E+03  0.00000000000E+00 0. -1.
         25    2    1    2    0    0 -0.10331902431E+01 -0.61544252814E+02  0.37908939100E+02  0.14439832572E+03  0.12500010508E+03 0.  0.
          2    1    1    2  501    0 -0.17062779243E+02  0.28080599343E+02 -0.19505555768E+03  0.19780376406E+03  0.00000000000E+00 0. -1.
          1    1    1    2  502    0  0.18095969486E+02  0.33463653471E+02  0.44800377609E+03  0.44961612916E+03  0.00000000000E+00 0. -1.
         22    1    3    3    0    0  0.37886582263E+01  0.21705689508E+02  0.55023054635E+02  0.59270797443E+02  0.00000000000E+00 0.  1.
         22    1    3    3    0    0 -0.48218484694E+01 -0.83249942322E+02 -0.17114115535E+02  0.85127528273E+02  0.00000000000E+00 0.  1.
</event>
<event>
 7    1  0.5127424E-006  0.3746657E+03  0.7818608E-02  0.1190800E+00
          2   -1    0    0  502    0  0.00000000000E+00  0.00000000000E+00  0.37104953966E+04  0.37104953966E+04  0.00000000000E+00 0. -1.
          1   -1    0    0  501    0 -0.00000000000E+00 -0.00000000000E+00 -0.50878595396E+03  0.50878595396E+03  0.00000000000E+00 0. -1.
         25    2    1    2    0    0 -0.18420161626E+03 -0.39713881203E+03  0.12497335601E+04  0.13300780545E+04  0.12499675295E+03 0.  0.
          2    1    1    2  501    0  0.15401667458E+03  0.33759541782E+03 -0.39460754005E+03  0.54167048364E+03  0.00000000000E+00 0. -1.
          1    1    1    2  502    0  0.30184941674E+02  0.59543394208E+02  0.23465834225E+04  0.23475328124E+04  0.00000000000E+00 0. -1.
         22    1    3    3    0    0 -0.13949521801E+03 -0.34950397623E+03  0.92095234008E+03  0.99486941754E+03  0.00000000000E+00 0.  1.
         22    1    3    3    0    0 -0.44706398253E+02 -0.47634835799E+02  0.32878122006E+03  0.33520863696E+03  0.00000000000E+00 0.  1.
</event>
<event>
 7    1  0.5127424E-006  0.7597627E+02  0.7818608E-02  0.1409352E+00
          2   -1    0    0  502    0  0.00000000000E+00  0.00000000000E+00  0.41847850337E+03  0.41847850337E+03  0.00000000000E+00 0. -1.
          1   -1    0    0  501    0 -0.00000000000E+00 -0.00000000000E+00 -0.34802926434E+03  0.34802926434E+03  0.00000000000E+00 0. -1.
         25    2    1    2    0    0 -0.98737006219E+02  0.23007026878E+02 -0.90778309795E+02  0.18478001551E+03  0.12499853167E+03 0.  0.
          2    1    1    2  501    0  0.24344777014E+02 -0.35775326452E+02 -0.20412419516E+03  0.20866055976E+03  0.00000000000E+00 0. -1.
          1    1    1    2  502    0  0.74392229204E+02  0.12768299574E+02  0.36535174399E+03  0.37306719244E+03  0.00000000000E+00 0. -1.
         22    1    3    3    0    0 -0.11236902000E+03  0.38139082640E+02 -0.32484967848E+02  0.12303113190E+03  0.00000000000E+00 0.  1.
         22    1    3    3    0    0  0.13632013782E+02 -0.15132055762E+02 -0.58293341947E+02  0.61748883607E+02  0.00000000000E+00 0.  1.
</event>
<event>
 7    1  0.5127424E-006  0.1163782E+03  0.7818608E-02  0.1394083E+00
          2   -1    0    0  502    0  0.00000000000E+00  0.00000000000E+00  0.24044291163E+04  0.24044291163E+04  0.00000000000E+00 0. -1.
          1   -1    0    0  501    0 -0.00000000000E+00 -0.00000000000E+00 -0.16505682627E+03  0.16505682627E+03  0.00000000000E+00 0. -1.
         25    2    1    2    0    0  0.14041489279E+03 -0.26150470665E+02  0.99791325464E+02  0.21444420102E+03  0.12501126940E+03 0.  0.
          2    1    1    2  501    0 -0.24860769991E+02  0.19942984514E+02 -0.10384878429E+03  0.10862941827E+03  0.00000000000E+00 0. -1.
          1    1    1    2  502    0 -0.11555412280E+03  0.62074861516E+01  0.22434297488E+04  0.22464123232E+04  0.00000000000E+00 0. -1.
         22    1    3    3    0    0  0.82326528832E+02 -0.76449210729E+02  0.67727821146E+02  0.13118382876E+03  0.00000000000E+00 0. -1.
         22    1    3    3    0    0  0.58088363958E+02  0.50298740063E+02  0.32063504318E+02  0.83260372258E+02  0.00000000000E+00 0. -1.
</event>
<event>
 7    1  0.5127424E-006  0.7381889E+02  0.7818608E-02  0.1355783E+00
          2   -1    0    0  502    0  0.00000000000E+00  0.00000000000E+00  0.30051429781E+03  0.30051429781E+03  0.00000000000E+00 0. -1.
          1   -1    0    0  501    0 -0.00000000000E+00 -0.00000000000E+00 -0.76524411438E+03  0.76524411438E+03  0.00000000000E+00 0. -1.
         25    2    1    2    0    0 -0.15274379404E+01 -0.13963580472E+03 -0.55100000551E+02  0.19535069914E+03  0.12500157827E+03 0.  0.
          2    1    1    2  501    0 -0.80996362034E+01  0.71477966605E+02 -0.63279356364E+03  0.63686921578E+03  0.00000000000E+00 0. -1.
          1    1    1    2  502    0  0.96270741438E+01  0.68157838114E+02  0.22316374762E+03  0.23353849727E+03  0.00000000000E+00 0. -1.
         22    1    3    3    0    0 -0.31030181224E+02 -0.58106763732E+02  0.31315041887E+02  0.72937644509E+02  0.00000000000E+00 0.  1.
         22    1    3    3    0    0  0.29502743283E+02 -0.81529040987E+02 -0.86415042437E+02  0.12241305463E+03  0.00000000000E+00 0.  1.
</event>
<event>
 7    1  0.5127424E-006  0.1055977E+03  0.7818608E-02  0.1407242E+00
          2   -1    0    0  502    0  0.00000000000E+00  0.00000000000E+00  0.34413712360E+04  0.34413712360E+04  0.00000000000E+00 0. -1.
          1   -1    0    0  501    0 -0.00000000000E+00 -0.00000000000E+00 -0.84059053864E+02  0.84059053864E+02  0.00000000000E+00 0. -1.
         25    2    1    2    0    0  0.30816669600E+02 -0.99158097143E+02  0.88371700848E+02  0.18496064715E+03  0.12497555013E+03 0.  0.
          2    1    1    2  501    0 -0.30966943539E+02 -0.65518755529E+01 -0.27744176835E+02  0.42090592936E+02  0.00000000000E+00 0. -1.
          1    1    1    2  502    0  0.15027393930E+00  0.10570997270E+03  0.32966846581E+04  0.32983790497E+04  0.00000000000E+00 0. -1.
         22    1    3    3    0    0 -0.19632499587E+02 -0.11448257652E+02  0.80301624619E+02  0.83455668230E+02  0.00000000000E+00 0.  1.
         22    1    3    3    0    0  0.50449169187E+02 -0.87709839490E+02  0.80700762293E+01  0.10150497892E+03  0.00000000000E+00 0.  1.
</event>
<event>
 7    1  0.5127424E-006  0.1545247E+03  0.7818608E-02  0.1323782E+00
          2   -1    0    0  502    0  0.00000000000E+00  0.00000000000E+00  0.18275075753E+02  0.18275075753E+02  0.00000000000E+00 0. -1.
          1   -1    0    0  501    0 -0.00000000000E+00 -0.00000000000E+00 -0.28058722006E+04  0.28058722006E+04  0.00000000000E+00 0. -1.
         25    2    1    2    0    0  0.15218686750E+03  0.26743089028E+02 -0.10586495588E+04  0.10771446958E+04  0.12500308768E+03 0.  0.
          2    1    1    2  501    0  0.39074574658E+01 -0.43217089340E+02 -0.10184409973E+04  0.10193650229E+04  0.00000000000E+00 0. -1.
          1    1    1    2  502    0 -0.15609432497E+03  0.16474000311E+02 -0.71050656882E+03  0.72763755765E+03  0.00000000000E+00 0. -1.
         22    1    3    3    0    0  0.15927808734E+03  0.13365118925E+02 -0.69350110758E+03  0.71168245849E+03  0.00000000000E+00 0. -1.
         22    1    3    3    0    0 -0.70912198391E+01  0.13377970103E+02 -0.36514845117E+03  0.36546223728E+03  0.00000000000E+00 0. -1.
</event>
<event>
 7    1  0.5127424E-006  0.6876593E+02  0.7818608E-02  0.1382091E+00
          2   -1    0    0  502    0  0.00000000000E+00  0.00000000000E+00  0.11382428096E+04  0.11382428096E+04  0.00000000000E+00 0. -1.
          1   -1    0    0  501    0 -0.00000000000E+00 -0.00000000000E+00 -0.73429957947E+02  0.73429957947E+02  0.00000000000E+00 0. -1.
         25    2    1    2    0    0  0.48354891263E+02  0.53863376768E+02  0.49924095324E+03  0.51971446259E+03  0.12498853695E+03 0.  0.
          2    1    1    2  501    0 -0.56624024184E+02  0.17981934283E+02 -0.46614408603E+02  0.75515118783E+02  0.00000000000E+00 0. -1.
          1    1    1    2  502    0  0.82691329209E+01 -0.71845311051E+02  0.61218630706E+03  0.61644318621E+03  0.00000000000E+00 0. -1.
         22    1    3    3    0    0  0.64165402135E+02  0.90628599605E+01  0.43507800432E+03  0.43987748761E+03  0.00000000000E+00 0.  1.
         22    1    3    3    0    0 -0.15810510872E+02  0.44800516807E+02  0.64162948913E+02  0.79836974977E+02  0.00000000000E+00 0.  1.
</event>
<event>
 7    1  0.5127424E-006  0.9794033E+02  0.7818608E-02  0.1369665E+00
          2   -1    0    0  502    0  0.00000000000E+00  0.00000000000E+00  0.13461555725E+03  0.13461555725E+03  0.00000000000E+00 0. -1.
          1   -1    0    0  501    0 -0.00000000000E+00 -0.00000000000E+00 -0.70114778254E+03  0.70114778254E+03  0.00000000000E+00 0. -1.
         25    2    1    2    0    0  0.14757794419E+02 -0.11773644114E+03 -0.13077685362E+03  0.21635258718E+03  0.12500477778E+03 0.  0.
          2    1    1    2  501    0 -0.46802118726E+02  0.84468079861E+02 -0.51700640743E+03  0.52594764013E+03  0.00000000000E+00 0. -1.
          1    1    1    2  502    0  0.32044324307E+02  0.33268361281E+02  0.81251035757E+02  0.93463112479E+02  0.00000000000E+00 0. -1.
         22    1    3    3    0    0 -0.44305422061E+02 -0.29641623137E+02 -0.76659265795E+01  0.53855015333E+02  0.00000000000E+00 0.  1.
         22    1    3    3    0    0  0.59063216480E+02 -0.88094818005E+02 -0.12311092704E+03  0.16249757185E+03  0.00000000000E+00 0.  1.
</event>
<event>
 7    1  0.5127424E-006  0.3090772E+02  0.7818608E-02  0.1624530E+00
          2   -1    0    0  502    0  0.00000000000E+00  0.00000000000E+00  0.71893640654E+03  0.71893640654E+03  0.00000000000E+00 0. -1.
          1   -1    0    0  501    0 -0.00000000000E+00 -0.00000000000E+00 -0.27510719677E+03  0.27510719677E+03  0.00000000000E+00 0. -1.
         25    2    1    2    0    0 -0.71871821852E+01  0.54095239780E+02 -0.54991390649E+02  0.14705858650E+03  0.12499689702E+03 0.  0.
          2    1    1    2  501    0 -0.23555784994E+01 -0.24781333167E+02 -0.17283694268E+03  0.17462036530E+03  0.00000000000E+00 0. -1.
          1    1    1    2  502    0  0.95427606846E+01 -0.29313906613E+02  0.67165754309E+03  0.67236465151E+03  0.00000000000E+00 0. -1.
         22    1    3    3    0    0 -0.61057104271E+02  0.25607627506E+02 -0.19006672951E+01  0.66236946673E+02  0.00000000000E+00 0.  1.
         22    1    3    3    0    0  0.53869922085E+02  0.28487612274E+02 -0.53090723354E+02  0.80821639830E+02  0.00000000000E+00 0.  1.
</event>
<event>
 7    1  0.5127424E-006  0.3132766E+03  0.7818608E-02  0.1176030E+00
          2   -1    0    0  502    0  0.00000000000E+00  0.00000000000E+00  0.10318812156E+04  0.10318812156E+04  0.00000000000E+00 0. -1.
          1   -1    0    0  501    0 -0.00000000000E+00 -0.00000000000E+00 -0.10475716663E+04  0.10475716663E+04  0.00000000000E+00 0. -1.
         25    2    1    2    0    0  0.29123889912E+03  0.20168748734E+03  0.30267088898E+03  0.48242390609E+03  0.12500087687E+03 0.  0.
          2    1    1    2  501    0 -0.29214618777E+03 -0.10752661141E+03 -0.92869061136E+03  0.97947823805E+03  0.00000000000E+00 0. -1.
          1    1    1    2  502    0  0.90728865398E+00 -0.94160875929E+02  0.61032927168E+03  0.61755073767E+03  0.00000000000E+00 0. -1.
         22    1    3    3    0    0  0.35893363177E+02  0.10052712447E+02 -0.66882877395E+01  0.37869826255E+02  0.00000000000E+00 0.  1.
         22    1    3    3    0    0  0.25534553594E+03  0.19163477489E+03  0.30935917672E+03  0.44455407983E+03  0.00000000000E+00 0.  1.
</event>
<event>
 7    1  0.5127424E-006  0.4311700E+02  0.7818608E-02  0.1557451E+00
          2   -1    0    0  502    0  0.00000000000E+00  0.00000000000E+00  0.16552470105E+02  0.16552470105E+02  0.00000000000E+00 0. -1.
          1   -1    0    0  501    0 -0.00000000000E+00 -0.00000000000E+00 -0.17691117120E+04  0.17691117120E+04  0.00000000000E+00 0. -1.
         25    2    1    2    0    0 -0.12453325713E+02 -0.36082222888E+02 -0.49094185651E+03  0.50804151339E+03  0.12500104287E+03 0.  0.
          2    1    1    2  501    0 -0.13857015673E+02  0.41424047897E+02 -0.12455893415E+04  0.12463549961E+04  0.00000000000E+00 0. -1.
          1    1    1    2  502    0  0.26310341386E+02 -0.53418250091E+01 -0.16028043805E+02  0.31267672546E+02  0.00000000000E+00 0. -1.
         22    1    3    3    0    0 -0.67589588196E+02 -0.27753528408E+02 -0.31996238694E+03  0.32819893332E+03  0.00000000000E+00 0.  1.
         22    1    3    3    0    0  0.55136262482E+02 -0.83286944792E+01 -0.17097946957E+03  0.17984258007E+03  0.00000000000E+00 0.  1.
</event>
<event>
 7    1  0.5127424E-006  0.4591346E+02  0.7818608E-02  0.1523571E+00
          2   -1    0    0  502    0  0.00000000000E+00  0.00000000000E+00  0.15787363244E+03  0.15787363244E+03  0.00000000000E+00 0. -1.
          1   -1    0    0  501    0 -0.00000000000E+00 -0.00000000000E+00 -0.57802249519E+03  0.57802249519E+03  0.00000000000E+00 0. -1.
         25    2    1    2    0    0  0.18362140697E+02  0.73675273549E+02  0.11943753595E+02  0.14675479068E+03  0.12501640370E+03 0.  0.
          2    1    1    2  501    0 -0.16908693447E+02 -0.42280178173E+02 -0.50640917741E+03  0.50845233045E+03  0.00000000000E+00 0. -1.
          1    1    1    2  502    0 -0.14534472505E+01 -0.31395095376E+02  0.74316561055E+02  0.80689006498E+02  0.00000000000E+00 0. -1.
         22    1    3    3    0    0 -0.16931155590E+02  0.38023056589E+02  0.62785881743E+02  0.75329169704E+02  0.00000000000E+00 0. -1.
         22    1    3    3    0    0  0.35293296288E+02  0.35652216959E+02 -0.50842128148E+02  0.71425620974E+02  0.00000000000E+00 0. -1.
</event>
<event>
 7    1  0.5127424E-006  0.5768345E+02  0.7818608E-02  0.1483908E+00
          2   -1    0    0  502    0  0.00000000000E+00  0.00000000000E+00  0.12774457419E+04  0.12774457419E+04  0.00000000000E+00 0. -1.
          1   -1    0    0  501    0 -0.00000000000E+00 -0.00000000000E+00 -0.28513161352E+03  0.28513161352E+03  0.00000000000E+00 0. -1.
         25    2    1    2    0    0 -0.14793037501E+02 -0.67847840760E+02  0.17796213213E+02  0.14409067305E+03  0.12499301341E+03 0.  0.
          2    1    1    2  501    0 -0.22490889749E+02  0.23886997578E+02 -0.22007334868E+03  0.22250552257E+03  0.00000000000E+00 0. -1.
          1    1    1    2  502    0  0.37283927250E+02  0.43960843181E+02  0.11945912638E+04  0.11959811598E+04  0.00000000000E+00 0. -1.
         22    1    3    3    0    0 -0.19221738530E+02  0.34477857281E+02 -0.29685198721E+01  0.39585476946E+02  0.00000000000E+00 0.  1.
         22    1    3    3    0    0  0.44287010290E+01 -0.10232569804E+03  0.20764733085E+02  0.10450519610E+03  0.00000000000E+00 0.  1.
</event>
<event>
 7    1  0.5127424E-006  0.5856188E+02  0.7818608E-02  0.1480587E+00
          2   -1    0    0  502    0  0.00000000000E+00  0.00000000000E+00  0.91495622297E+03  0.91495622297E+03  0.00000000000E+00 0. -1.
          1   -1    0    0  501    0 -0.00000000000E+00 -0.00000000000E+00 -0.11951442886E+03  0.11951442886E+03  0.00000000000E+00 0. -1.
         25    2    1    2    0    0 -0.67790481009E+02  0.35211260918E+02 -0.27564265219E+02  0.14906573058E+03  0.12500168440E+03 0.  0.
          2    1    1    2  501    0  0.31375228755E+02  0.10486474999E+02 -0.21126904827E+02  0.39251971224E+02  0.00000000000E+00 0. -1.
          1    1    1    2  502    0  0.36415252254E+02 -0.45697735917E+02  0.84413296416E+03  0.84615295003E+03  0.00000000000E+00 0. -1.
         22    1    3    3    0    0 -0.91069161851E+02  0.57467337284E+02 -0.39526019120E+02  0.11471004002E+03  0.00000000000E+00 0. -1.
         22    1    3    3    0    0  0.23278680842E+02 -0.22256076366E+02  0.11961753901E+02  0.34355690552E+02  0.00000000000E+00 0. -1.
</event>
<event>
 7    1  0.5127424E-006  0.8874367E+02  0.7818608E-02  0.1306943E+00
          2   -1    0    0  502    0  0.00000000000E+00  0.00000000000E+00  0.32094742698E+03  0.32094742698E+03  0.00000000000E+00 0. -1.
          1   -1    0    0  501    0 -0.00000000000E+00 -0.00000000000E+00 -0.32605673644E+03  0.32605673644E+03  0.00000000000E+00 0. -1.
         25    2    1    2    0    0  0.26712081744E+02  0.33578919664E+02 -0.97992100639E+01  0.13251837591E+03  0.12499606506E+03 0.  0.
          2    1    1    2  501    0  0.39216885549E+02 -0.91747777259E+02 -0.23708244215E+03  0.25722306102E+03  0.00000000000E+00 0. -1.
          1    1    1    2  502    0 -0.65928967294E+02  0.58168857596E+02  0.24177234275E+03  0.25726272649E+03  0.00000000000E+00 0. -1.
         22    1    3    3    0    0  0.75446875216E+02  0.10705187643E+02  0.59269730303E+01  0.76432722258E+02  0.00000000000E+00 0. -1.
         22    1    3    3    0    0 -0.48734793472E+02  0.22873732020E+02 -0.15726183094E+02  0.56085653656E+02  0.00000000000E+00 0. -1.
</event>
<event>
 7    1  0.5127424E-006  0.9421106E+02  0.7818608E-02  0.1382627E+00
          2   -1    0    0  502    0  0.00000000000E+00  0.00000000000E+00  0.72150790891E+03  0.72150790891E+03  0.00000000000E+00 0. -1.
          1   -1    0    0  501    0 -0.00000000000E+00 -0.00000000000E+00 -0.15544803093E+03  0.15544803093E+03  0.00000000000E+00 0. -1.
         25    2    1    2    0    0 -0.56275375060E+02 -0.33040380052E+01  0.18261462834E+03  0.22836834410E+03  0.12500465430E+03 0.  0.
          2    1    1    2  501    0  0.95017268494E+02  0.22362751117E+02 -0.11353902077E+03  0.14973137008E+03  0.00000000000E+00 0. -1.
          1    1    1    2  502    0 -0.38741893433E+02 -0.19058713111E+02  0.49698427041E+03  0.49885622566E+03  0.00000000000E+00 0. -1.
         22    1    3    3    0    0 -0.39057849793E+02  0.21172307559E+02  0.19194703659E+03  0.19702143815E+03  0.00000000000E+00 0. -1.
         22    1    3    3    0    0 -0.17217525267E+02 -0.24476345564E+02 -0.93324082492E+01  0.31346905944E+02  0.00000000000E+00 0. -1.
</event>
<event>
 7    1  0.5127424E-006  0.3388661E+02  0.7818608E-02  0.1582800E+00
          2   -1    0    0  502    0  0.00000000000E+00  0.00000000000E+00  0.42859193212E+03  0.42859193212E+03  0.00000000000E+00 0. -1.
          1   -1    0    0  501    0 -0.00000000000E+00 -0.00000000000E+00 -0.48631251552E+02  0.48631251552E+02  0.00000000000E+00 0. -1.
         25    2    1    2    0    0  0.38533791711E+02 -0.15872433850E+02  0.22904052610E+03  0.26423648545E+03  0.12499828154E+03 0.  0.
          2    1    1    2  501    0 -0.31657008231E+02 -0.12456150527E+02 -0.20090726533E+02  0.39508975546E+02  0.00000000000E+00 0. -1.
          1    1    1    2  502    0 -0.68767834806E+01  0.28328584377E+02  0.17101088100E+03  0.17347772267E+03  0.00000000000E+00 0. -1.
         22    1    3    3    0    0  0.14699776866E+02 -0.29776823664E+02 -0.33296071754E+00  0.33209238628E+02  0.00000000000E+00 0.  1.
         22    1    3    3    0    0  0.23834014846E+02  0.13904389814E+02  0.22937348682E+03  0.23102724682E+03  0.00000000000E+00 0.  1.
</event>
<event>
 7    1  0.5127424E-006  0.1275918E+03  0.7818608E-02  0.1304559E+00
          2   -1    0    0  502    0  0.00000000000E+00  0.00000000000E+00  0.41429777994E+03  0.41429777994E+03  0.00000000000E+00 0. -1.
          1   -1    0    0  501    0 -0.00000000000E+00 -0.00000000000E+00 -0.18984220756E+04  0.18984220756E+04  0.00000000000E+00 0. -1.
         25    2    1    2    0    0 -0.12813553682E+03  0.11918435485E+03 -0.38528289448E+03  0.44123500411E+03  0.12498717469E+03 0.  0.
          2    1    1    2  501    0  0.61401140182E+02 -0.11659642577E+02 -0.14741193933E+04  0.14754436732E+04  0.00000000000E+00 0. -1.
          1    1    1    2  502    0  0.66734396634E+02 -0.10752471228E+03  0.37527799211E+03  0.39604117817E+03  0.00000000000E+00 0. -1.
         22    1    3    3    0    0 -0.76846794135E+02  0.22387244433E+02 -0.27248485599E+03  0.28399756201E+03  0.00000000000E+00 0.  1.
         22    1    3    3    0    0 -0.51288742681E+02  0.96797110419E+02 -0.11279803848E+03  0.15723744210E+03  0.00000000000E+00 0.  1.
</event>
<event>
 7    1  0.5127424E-006  0.2733715E+03  0.7818608E-02  0.1262614E+00
          2   -1    0    0  502    0  0.00000000000E+00  0.00000000000E+00  0.58416317188E+03  0.58416317188E+03  0.00000000000E+00 0. -1.
          1   -1    0    0  501    0 -0.00000000000E+00 -0.00000000000E+00 -0.97381423152E+03  0.97381423152E+03  0.00000000000E+00 0. -1.
         25    2    1    2    0    0 -0.30862031442E+03  0.47367079611E+02  0.48234349888E+02  0.33976915535E+03  0.12500555074E+03 0.  0.
          2    1    1    2  501    0  0.26635004878E+03 -0.37600308343E+02 -0.80488998198E+03  0.84864834576E+03  0.00000000000E+00 0. -1.
          1    1    1    2  502    0  0.42270265642E+02 -0.97667712687E+01  0.36700457245E+03  0.36955990229E+03  0.00000000000E+00 0. -1.
         22    1    3    3    0    0 -0.21536387338E+03 -0.18007724041E+02  0.62547514901E+02  0.22498459437E+03  0.00000000000E+00 0.  1.
         22    1    3    3    0    0 -0.93256441036E+02  0.65374803652E+02 -0.14313165013E+02  0.11478456098E+03  0.00000000000E+00 0.  1.
</event>
<event>
 7    1  0.5127424E-006  0.1065997E+03  0.7818608E-02  0.1359801E+00
          2   -1    0    0  502    0  0.00000000000E+00  0.00000000000E+00  0.48400981478E+03  0.48400981478E+03  0.00000000000E+00 0. -1.
          1   -1    0    0  501    0 -0.00000000000E+00 -0.00000000000E+00 -0.32931970407E+03  0.32931970407E+03  0.00000000000E+00 0. -1.
         25    2    1    2    0    0 -0.53037508091E+02  0.13496256511E+03 -0.27678156169E+02  0.19344297986E+03  0.12500493943E+03 0.  0.
          2    1    1    2  501    0 -0.15966125456E+01 -0.46051705541E+02 -0.20942461474E+03  0.21443408781E+03  0.00000000000E+00 0. -1.
          1    1    1    2  502    0  0.54634120636E+02 -0.88910859566E+02  0.39179288162E+03  0.40545245119E+03  0.00000000000E+00 0. -1.
         22    1    3    3    0    0 -0.52877079640E+02  0.15672859514E+02  0.27939946736E+02  0.61824466841E+02  0.00000000000E+00 0.  1.
         22    1    3    3    0    0 -0.16042845106E+00  0.11928970559E+03 -0.55618102905E+02  0.13161851302E+03  0.00000000000E+00 0.  1.
</event>
<event>
 7    1  0.5127424E-006  0.1043742E+03  0.7818608E-02  0.1443111E+00
          2   -1    0    0  502    0  0.00000000000E+00  0.00000000000E+00  0.19018218753E+03  0.19018218753E+03  0.00000000000E+00 0. -1.
          1   -1    0    0  501    0 -0.00000000000E+00 -0.00000000000E+00 -0.15730360562E+04  0.15730360562E+04  0.00000000000E+00 0. -1.
         25    2    1    2    0    0  0.90453154741E+02 -0.71299782256E+02 -0.26169095319E+03  0.31204705873E+03  0.12500311889E+03 0.  0.
          2    1    1    2  501    0 -0.23080468697E+02 -0.77675714491E+01 -0.12696895406E+04  0.12699230578E+04  0.00000000000E+00 0. -1.
          1    1    1    2  502    0 -0.67372686044E+02  0.79067353705E+02  0.14852662512E+03  0.18124812721E+03  0.00000000000E+00 0. -1.
         22    1    3    3    0    0  0.20495853792E+02 -0.32210318019E+02 -0.21691449771E+03  0.22024868655E+03  0.00000000000E+00 0. -1.
         22    1    3    3    0    0  0.69957300949E+02 -0.39089464236E+02 -0.44776455473E+02  0.91798372181E+02  0.00000000000E+00 0. -1.
</event>
<event>
 7    1  0.5127424E-006  0.8680681E+02  0.7818608E-02  0.1415218E+00
          2   -1    0    0  502    0  0.00000000000E+00  0.00000000000E+00  0.78675467740E+03  0.78675467740E+03  0.00000000000E+00 0. -1.
          1   -1    0    0  501    0 -0.00000000000E+00 -0.00000000000E+00 -0.18062233867E+03  0.18062233867E+03  0.00000000000E+00 0. -1.
         25    2    1    2    0    0 -0.24506023212E+02  0.63850354834E+02  0.22900940865E+02  0.14431484736E+03  0.12499963636E+03 0.  0.
          2    1    1    2  501    0 -0.36183720632E+02 -0.29863473063E+00 -0.11436493024E+03  0.11995285778E+03  0.00000000000E+00 0. -1.
          1    1    1    2  502    0  0.60689743844E+02 -0.63551720103E+02  0.69759632810E+03  0.70310931093E+03  0.00000000000E+00 0. -1.
         22    1    3    3    0    0 -0.15504746267E+02  0.10205838552E+03  0.16186957614E+02  0.10449080730E+03  0.00000000000E+00 0.  1.
         22    1    3    3    0    0 -0.90012769448E+01 -0.38208030690E+02  0.67139832509E+01  0.39824040063E+02  0.00000000000E+00 0.  1.
</event>
<event>
 7    1  0.5127424E-006  0.1309983E+03  0.7818608E-02  0.1339828E+00
          2   -1    0    0  502    0  0.00000000000E+00  0.00000000000E+00  0.18038221167E+04  0.18038221167E+04  0.00000000000E+00 0. -1.
          1   -1    0    0  501    0 -0.00000000000E+00 -0.00000000000E+00 -0.40972562214E+03  0.40972562214E+03  0.00000000000E+00 0. -1.
         25    2    1    2    0    0  0.13987962523E+03 -0.98398390762E+02  0.19000056811E+02  0.21268548634E+03  0.12500224430E+03 0.  0.
          2    1    1    2  501    0 -0.10409825965E+03  0.72000068843E+02 -0.29977507087E+03  0.32540060032E+03  0.00000000000E+00 0. -1.
          1    1    1    2  502    0 -0.35781365589E+02  0.26398321919E+02  0.16748715086E+04  0.16754616522E+04  0.00000000000E+00 0. -1.
         22    1    3    3    0    0  0.28168421629E+02 -0.18657105912E+02 -0.48994348296E+02  0.59514651498E+02  0.00000000000E+00 0. -1.
         22    1    3    3    0    0  0.11171120361E+03 -0.79741284850E+02  0.67994405107E+02  0.15317083484E+03  0.00000000000E+00 0. -1.
</event>
<event>
 7    1  0.5127424E-006  0.3013088E+03  0.7818608E-02  0.1214364E+00
          2   -1    0    0  502    0  0.00000000000E+00  0.00000000000E+00  0.16387983748E+04  0.16387983748E+04  0.00000000000E+00 0. -1.
          1   -1    0    0  501    0 -0.00000000000E+00 -0.00000000000E+00 -0.20806986673E+04  0.20806986673E+04  0.00000000000E+00 0. -1.
         25    2    1    2    0    0  0.88520120502E+02  0.29805293671E+03  0.70793574902E+03  0.78324235597E+03  0.12499679449E+03 0.  0.
          2    1    1    2  501    0 -0.14361740989E+03 -0.26482848351E+03 -0.20307597822E+04  0.20529845053E+04  0.00000000000E+00 0. -1.
          1    1    1    2  502    0  0.55097289387E+02 -0.33224453200E+02  0.88092374064E+03  0.88327018087E+03  0.00000000000E+00 0. -1.
         22    1    3    3    0    0  0.11025151800E+03  0.29158264899E+03  0.64585006253E+03  0.71714583014E+03  0.00000000000E+00 0.  1.
         22    1    3    3    0    0 -0.21731397498E+02  0.64702877191E+01  0.62085686488E+02  0.66096525832E+02  0.00000000000E+00 0.  1.
</event>
<event>
 7    1  0.5127424E-006  0.9520786E+02  0.7818608E-02  0.1357247E+00
          2   -1    0    0  502    0  0.00000000000E+00  0.00000000000E+00  0.23584141602E+04  0.23584141602E+04  0.00000000000E+00 0. -1.
          1   -1    0    0  501    0 -0.00000000000E+00 -0.00000000000E+00 -0.58636771277E+02  0.58636771277E+02  0.00000000000E+00 0. -1.
         25    2    1    2    0    0 -0.52524268846E+02  0.89918277388E+02  0.51111155294E+03  0.53637692376E+03  0.12498435649E+03 0.  0.
          2    1    1    2  501    0  0.52407689195E+02  0.56792393570E+01 -0.29223379748E+02  0.60272925683E+02  0.00000000000E+00 0. -1.
          1    1    1    2  502    0  0.11657965088E+00 -0.95597516745E+02  0.18178892157E+04  0.18204010820E+04  0.00000000000E+00 0. -1.
         22    1    3    3    0    0  0.97121248714E+01  0.79607254034E+02  0.40553470594E+03  0.41338848314E+03  0.00000000000E+00 0. -1.
         22    1    3    3    0    0 -0.62236393718E+02  0.10311023354E+02  0.10557684699E+03  0.12298844062E+03  0.00000000000E+00 0. -1.
</event>
<event>
 7    1  0.5127424E-006  0.5880409E+02  0.7818608E-02  0.1542158E+00
          2   -1    0    0  502    0  0.00000000000E+00  0.00000000000E+00  0.44900311297E+03  0.44900311297E+03  0.00000000000E+00 0. -1.
          1   -1    0    0  501    0 -0.00000000000E+00 -0.00000000000E+00 -0.12995192488E+03  0.12995192488E+03  0.00000000000E+00 0. -1.
         25    2    1    2    0    0 -0.53676443146E+02 -0.29343563082E+02  0.14428022923E+03  0.20045937248E+03  0.12499988089E+03 0.  0.
          2    1    1    2  501    0  0.15313875110E+02 -0.15399279001E+02 -0.97515011290E+02  0.99904103978E+02  0.00000000000E+00 0. -1.
          1    1    1    2  502    0  0.38362568035E+02  0.44742842083E+02  0.27228597014E+03  0.27859156140E+03  0.00000000000E+00 0. -1.
         22    1    3    3    0    0  0.15530593682E+02  0.13182254068E+02 -0.12490024149E+02  0.23895017591E+02  0.00000000000E+00 0.  1.
         22    1    3    3    0    0 -0.69207036828E+02 -0.42525817150E+02  0.15677025338E+03  0.17656435488E+03  0.00000000000E+00 0.  1.
</event>
<event>
 7    1  0.5127424E-006  0.3010909E+02  0.7818608E-02  0.1635615E+00
          2   -1    0    0  502    0  0.00000000000E+00  0.00000000000E+00  0.96214511970E+03  0.96214511970E+03  0.00000000000E+00 0. -1.
          1   -1    0    0  501    0 -0.00000000000E+00 -0.00000000000E+00 -0.52985368690E+03  0.52985368690E+03  0.00000000000E+00 0. -1.
         25    2    1    2    0    0  0.39797857825E+02 -0.28943540690E+02  0.19288209173E+03  0.23505235782E+03  0.12499804627E+03 0.  0.
          2    1    1    2  501    0 -0.16095307254E+02  0.25407499344E+02 -0.50813186287E+03  0.50902120781E+03  0.00000000000E+00 0. -1.
          1    1    1    2  502    0 -0.23702550570E+02  0.35360413459E+01  0.74754120394E+03  0.74792524097E+03  0.00000000000E+00 0. -1.
         22    1    3    3    0    0  0.63503471026E+02  0.50935263662E+01  0.36841652631E+02  0.73593085353E+02  0.00000000000E+00 0.  1.
         22    1    3    3    0    0 -0.23705613202E+02 -0.34037067056E+02  0.15604043910E+03  0.16145927247E+03  0.00000000000E+00 0.  1.
</event>
<event>
 7    1  0.5127424E-006  0.1092168E+03  0.7818608E-02  0.1318803E+00
          2   -1    0    0  502    0  0.00000000000E+00  0.00000000000E+00  0.15970812565E+04  0.15970812565E+04  0.00000000000E+00 0. -1.
          1   -1    0    0  501    0 -0.00000000000E+00 -0.00000000000E+00 -0.10424098990E+04  0.10424098990E+04  0.00000000000E+00 0. -1.
         25    2    1    2    0    0  0.66689508956E+02  0.91752696559E+02  0.81052358372E+02  0.18724560913E+03  0.12500154164E+03 0.  0.
          2    1    1    2  501    0 -0.49881886995E+01 -0.10942273743E+03 -0.98557374823E+03  0.99164198716E+03  0.00000000000E+00 0. -1.
          1    1    1    2  502    0 -0.61701320257E+02  0.17670040867E+02  0.14591927474E+04  0.14606035592E+04  0.00000000000E+00 0. -1.
         22    1    3    3    0    0  0.27332250517E+00  0.83066745248E+02  0.12742264511E+01  0.83076967472E+02  0.00000000000E+00 0.  1.
         22    1    3    3    0    0  0.66416186451E+02  0.86859513103E+01  0.79778131921E+02  0.10416864166E+03  0.00000000000E+00 0.  1.
</event>
<event>
 7    1  0.5127424E-006  0.7458704E+02  0.7818608E-02  0.1405291E+00
          2   -1    0    0  502    0  0.00000000000E+00  0.00000000000E+00  0.31215015939E+04  0.31215015939E+04  0.00000000000E+00 0. -1.
          1   -1    0    0  501    0 -0.00000000000E+00 -0.00000000000E+00 -0.47145141842E+03  0.47145141842E+03  0.00000000000E+00 0. -1.
         25    2    1    2    0    0  0.61917251615E+01 -0.11306719833E+03  0.58904083603E+03  0.61271286539E+03  0.12500168040E+03 0.  0.
          2    1    1    2  501    0 -0.19213643561E+02  0.41248258967E+02 -0.45795921808E+03  0.46021432876E+03  0.00000000000E+00 0. -1.
          1    1    1    2  502    0  0.13021918399E+02  0.71818939358E+02  0.25189685576E+04  0.25200258182E+04  0.00000000000E+00 0. -1.
         22    1    3    3    0    0  0.40539882764E+02 -0.39088258513E+02  0.84014911143E+02  0.10114286600E+03  0.00000000000E+00 0. -1.
         22    1    3    3    0    0 -0.34348157602E+02 -0.73978939812E+02  0.50502592489E+03  0.51156999939E+03  0.00000000000E+00 0. -1.
</event>
<event>
 7    1  0.5127424E-006  0.5120026E+02  0.7818608E-02  0.1481750E+00
          2   -1    0    0  502    0  0.00000000000E+00  0.00000000000E+00  0.82119678093E+02  0.82119678093E+02  0.00000000000E+00 0. -1.
          1   -1    0    0  501    0 -0.00000000000E+00 -0.00000000000E+00 -0.98796392061E+03  0.98796392061E+03  0.00000000000E+00 0. -1.
         25    2    1    2    0    0  0.23112021724E+02 -0.39905887610E+02 -0.12108059859E+03  0.18003487778E+03  0.12500160177E+03 0.  0.
          2    1    1    2  501    0  0.27587304051E+02  0.25443235122E+02 -0.82367060474E+03  0.82452512555E+03  0.00000000000E+00 0. -1.
          1    1    1    2  502    0 -0.50699325775E+02  0.14462652488E+02  0.38906960814E+02  0.65523595374E+02  0.00000000000E+00 0. -1.
         22    1    3    3    0    0 -0.13584650067E+02 -0.44990923379E+02 -0.13304643671E+03  0.14110308369E+03  0.00000000000E+00 0.  1.
         22    1    3    3    0    0  0.36696671791E+02  0.50850357684E+01  0.11965838118E+02  0.38931794091E+02  0.00000000000E+00 0.  1.
</event>
<event>
 7    1  0.5127424E-006  0.4770189E+02  0.7818608E-02  0.1466090E+00
          2   -1    0    0  502    0  0.00000000000E+00  0.00000000000E+00  0.49655515149E+02  0.49655515149E+02  0.00000000000E+00 0. -1.
          1   -1    0    0  501    0 -0.00000000000E+00 -0.00000000000E+00 -0.63412778398E+03  0.63412778398E+03  0.00000000000E+00 0. -1.
         25    2    1    2    0    0 -0.30342417946E+02 -0.10773961984E+01 -0.14401940816E+03  0.19310934557E+03  0.12501122473E+03 0.  0.
          2    1    1    2  501    0  0.38666251895E+01 -0.44868806687E+02 -0.43504573763E+03  0.43737050019E+03  0.00000000000E+00 0. -1.
          1    1    1    2  502    0  0.26475792756E+02  0.45946202886E+02 -0.54071230304E+01  0.53303453370E+02  0.00000000000E+00 0. -1.
         22    1    3    3    0    0 -0.48723879313E+02  0.50699771704E+02 -0.10223529508E+03  0.12408279021E+03  0.00000000000E+00 0. -1.
         22    1    3    3    0    0  0.18381461367E+02 -0.51777167903E+02 -0.41784113083E+02  0.69026555355E+02  0.00000000000E+00 0. -1.
</event>
<event>
 7    1  0.5127424E-006  0.7498950E+02  0.7818608E-02  0.1422224E+00
          2   -1    0    0  502    0  0.00000000000E+00  0.00000000000E+00  0.31248080826E+02  0.31248080826E+02  0.00000000000E+00 0. -1.
          1   -1    0    0  501    0 -0.00000000000E+00 -0.00000000000E+00 -0.22976547274E+04  0.22976547274E+04  0.00000000000E+00 0. -1.
         25    2    1    2    0    0 -0.68535386394E+01  0.56352891844E+02 -0.32557996123E+03  0.35334096511E+03  0.12499962823E+03 0.  0.
          2    1    1    2  501    0 -0.30380853229E+02 -0.70085730153E+02 -0.19337397310E+04  0.19352478790E+04  0.00000000000E+00 0. -1.
          1    1    1    2  502    0  0.37234391869E+02  0.13732838309E+02 -0.70869543819E+01  0.40313964185E+02  0.00000000000E+00 0. -1.
         22    1    3    3    0    0 -0.18956279774E+02  0.31416242113E+02 -0.12096987401E+02  0.38634931287E+02  0.00000000000E+00 0.  1.
         22    1    3    3    0    0  0.12102741134E+02  0.24936649730E+02 -0.31348297383E+03  0.31470603382E+03  0.00000000000E+00 0.  1.
</event>
<event>
 7    1  0.5127424E-006  0.8881585E+02  0.7818608E-02  0.1390235E+00
          2   -1    0    0  502    0  0.00000000000E+00  0.00000000000E+00  0.76554721276E+03  0.76554721276E+03  0.00000000000E+00 0. -1.
          1   -1    0    0  501    0 -0.00000000000E+00 -0.00000000000E+00 -0.36417737339E+02  0.36417737339E+02  0.00000000000E+00 0. -1.
         25    2    1    2    0    0 -0.51815847974E+02 -0.23809062937E+02  0.58745208515E+03  0.60330467160E+03  0.12499928338E+03 0.  0.
          2    1    1    2  501    0  0.93754903612E+02  0.14007632763E+02  0.83863565214E+02  0.12656734688E+03  0.00000000000E+00 0. -1.
          1    1    1    2  502    0 -0.41939055638E+02  0.98014301742E+01  0.57813825053E+02  0.72092931613E+02  0.00000000000E+00 0. -1.
         22    1    3    3    0    0 -0.19428093377E+02  0.48659107782E+02  0.32214263786E+03  0.32637560986E+03  0.00000000000E+00 0.  1.
         22    1    3    3    0    0 -0.32387754597E+02 -0.72468170719E+02  0.26530944729E+03  0.27692906174E+03  0.00000000000E+00 0.  1.
</event>
<event>
 7    1  0.6021606E-006  0.1740163E+03  0.7818608E-02  0.1315415E+00
          2   -1    0    0  502    0  0.00000000000E+00  0.00000000000E+00  0.17191887085E+04  0.17191887085E+04  0.00000000000E+00 0. -1.
          1   -1    0    0  501    0 -0.00000000000E+00 -0.00000000000E+00 -0.23836459042E+04  0.23836459042E+04  0.00000000000E+00 0. -1.
         25    2    1    2    0    0  0.22077644731E+02 -0.15167254551E+03 -0.68190733884E+03  0.71001054341E+03  0.12500147810E+03 0.  0.
          2    1    1    2  501    0 -0.58051297756E+02  0.17241559922E+03 -0.16825299465E+04  0.16923368793E+04  0.00000000000E+00 0. -1.
          1    1    1    2  502    0  0.35973653026E+02 -0.20743053713E+02  0.16999800897E+04  0.17004871900E+04  0.00000000000E+00 0. -1.
         22    1    3    3    0    0 -0.33573438544E+02 -0.70114652175E+02 -0.14927554608E+03  0.16830457178E+03  0.00000000000E+00 0. -1.
         22    1    3    3    0    0  0.55651083275E+02 -0.81557893334E+02 -0.53263179276E+03  0.54170597163E+03  0.00000000000E+00 0. -1.
</event>
<event>
 7    1  0.5127424E-006  0.8738354E+02  0.7818608E-02  0.1356126E+00
          2   -1    0    0  502    0  0.00000000000E+00  0.00000000000E+00  0.21177772321E+03  0.21177772321E+03  0.00000000000E+00 0. -1.
          1   -1    0    0  501    0 -0.00000000000E+00 -0.00000000000E+00 -0.62914107410E+03  0.62914107410E+03  0.00000000000E+00 0. -1.
         25    2    1    2    0    0 -0.77801879800E+02  0.11262800779E+02 -0.12138923053E+03  0.19115511372E+03  0.12499979612E+03 0.  0.
          2    1    1    2  501    0  0.17104212739E+01 -0.57955609886E+02 -0.45966662875E+03  0.46330895506E+03  0.00000000000E+00 0. -1.
          1    1    1    2  502    0  0.76091458526E+02  0.46692809106E+02  0.16369250839E+03  0.18645472852E+03  0.00000000000E+00 0. -1.
         22    1    3    3    0    0  0.19242113831E+02  0.38723332141E+02 -0.18352838276E+02  0.46974270293E+02  0.00000000000E+00 0.  1.
         22    1    3    3    0    0 -0.97043993631E+02 -0.27460531362E+02 -0.10303639226E+03  0.14418084343E+03  0.00000000000E+00 0.  1.
</event>
<event>
 7    1  0.5127424E-006  0.8474815E+02  0.7818608E-02  0.1415323E+00
          2   -1    0    0  502    0  0.00000000000E+00  0.00000000000E+00  0.97781607387E+03  0.97781607387E+03  0.00000000000E+00 0. -1.
          1   -1    0    0  501    0 -0.00000000000E+00 -0.00000000000E+00 -0.83375965297E+03  0.83375965297E+03  0.00000000000E+00 0. -1.
         25    2    1    2    0    0 -0.39014907175E+02 -0.53237815000E+02  0.36199167749E+03  0.38861094576E+03  0.12499625858E+03 0.  0.
          2    1    1    2  501    0  0.14842032745E+02 -0.33929632613E+02 -0.81663286039E+03  0.81747216134E+03  0.00000000000E+00 0. -1.
          1    1    1    2  502    0  0.24172874430E+02  0.87167447613E+02  0.59869760378E+03  0.60549261974E+03  0.00000000000E+00 0. -1.
         22    1    3    3    0    0 -0.79492663883E+02 -0.12075852787E+02  0.25005752456E+03  0.26266647182E+03  0.00000000000E+00 0. -1.
         22    1    3    3    0    0  0.40477756707E+02 -0.41161962213E+02  0.11193415294E+03  0.12594447394E+03  0.00000000000E+00 0. -1.
</event>
<event>
 7    1  0.6563275E-006  0.5260270E+02  0.7818608E-02  0.1436901E+00
          2   -1    0    0  502    0  0.00000000000E+00  0.00000000000E+00  0.34348606669E+04  0.34348606669E+04  0.00000000000E+00 0. -1.
          1   -1    0    0  501    0 -0.00000000000E+00 -0.00000000000E+00 -0.63774518210E+03  0.63774518210E+03  0.00000000000E+00 0. -1.
         25    2    1    2    0    0  0.12602026326E+02 -0.24706129649E+01 -0.38608168571E+03  0.40601575183E+03  0.12499923080E+03 0.  0.
          2    1    1    2  501    0 -0.80943996346E+01 -0.49963750532E+02 -0.23884200353E+03  0.24414626420E+03  0.00000000000E+00 0. -1.
          1    1    1    2  502    0 -0.45076266914E+01  0.52434363497E+02  0.34220391741E+04  0.34224438330E+04  0.00000000000E+00 0. -1.
         22    1    3    3    0    0  0.28358463354E+01 -0.52177686469E+02 -0.78572728304E+02  0.94362209718E+02  0.00000000000E+00 0.  1.
         22    1    3    3    0    0  0.97661799906E+01  0.49707073504E+02 -0.30750895740E+03  0.31165354211E+03  0.00000000000E+00 0.  1.
</event>
<event>
 7    1  0.5127424E-006  0.8624958E+02  0.7818608E-02  0.1453476E+00
          2   -1    0    0  502    0  0.00000000000E+00  0.00000000000E+00  0.14375512522E+04  0.14375512522E+04  0.00000000000E+00 0. -1.
          1   -1    0    0  501    0 -0.00000000000E+00 -0.00000000000E+00 -0.14794286936E+04  0.14794286936E+04  0.00000000000E+00 0. -1.
         25    2    1    2    0    0  0.79895902076E+02 -0.44565803069E+02  0.21934694610E+02  0.15644545530E+03  0.12499833473E+03 0.  0.
          2    1    1    2  501    0 -0.84408632974E+02  0.17643054318E+02 -0.14107184543E+04  0.14133515670E+04  0.00000000000E+00 0. -1.
          1    1    1    2  502    0  0.45127308986E+01  0.26922748751E+02  0.13469063183E+04  0.13471829235E+04  0.00000000000E+00 0. -1.
         22    1    3    3    0    0  0.52805947757E+02  0.36946037325E+02  0.28146266331E+02  0.70325600609E+02  0.00000000000E+00 0.  1.
         22    1    3    3    0    0  0.27089954318E+02 -0.81511840395E+02 -0.62115717210E+01  0.86119854695E+02  0.00000000000E+00 0.  1.
</event>
<event>
 7    1  0.5127424E-006  0.9530170E+02  0.7818608E-02  0.1370022E+00
          2   -1    0    0  502    0  0.00000000000E+00  0.00000000000E+00  0.42899692111E+03  0.42899692111E+03  0.00000000000E+00 0. -1.
          1   -1    0    0  501    0 -0.00000000000E+00 -0.00000000000E+00 -0.76046778794E+02  0.76046778794E+02  0.00000000000E+00 0. -1.
         25    2    1    2    0    0  0.11160055037E+03 -0.57061288334E+02  0.14681154161E+03  0.22998091034E+03  0.12500766738E+03 0.  0.
          2    1    1    2  501    0 -0.23456157068E+02  0.41108504012E+02 -0.31255656117E+01  0.47432789997E+02  0.00000000000E+00 0. -1.
          1    1    1    2  502    0 -0.88144393299E+02  0.15952784322E+02  0.20926416632E+03  0.22762999957E+03  0.00000000000E+00 0. -1.
         22    1    3    3    0    0  0.13696128207E+03 -0.38849705935E+02  0.10104571282E+03  0.17457929005E+03  0.00000000000E+00 0.  1.
         22    1    3    3    0    0 -0.25360731698E+02 -0.18211582399E+02  0.45765828786E+02  0.55401620285E+02  0.00000000000E+00 0.  1.
</event>
<event>
 7    1  0.5127424E-006  0.1175546E+03  0.7818608E-02  0.1285901E+00
          2   -1    0    0  502    0  0.00000000000E+00  0.00000000000E+00  0.56101187977E+03  0.56101187977E+03  0.00000000000E+00 0. -1.
          1   -1    0    0  501    0 -0.00000000000E+00 -0.00000000000E+00 -0.10879673545E+04  0.10879673545E+04  0.00000000000E+00 0. -1.
         25    2    1    2    0    0 -0.22214851614E+02 -0.74339268447E+02 -0.30004187156E+02  0.15015017913E+03  0.12499999432E+03 0.  0.
          2    1    1    2  501    0 -0.80312283824E+02  0.75857881711E+01 -0.98875302333E+03  0.99203838043E+03  0.00000000000E+00 0. -1.
          1    1    1    2  502    0  0.10252713544E+03  0.66753480276E+02  0.49180173578E+03  0.50679067468E+03  0.00000000000E+00 0. -1.
         22    1    3    3    0    0  0.27181031946E+02 -0.89547271215E+02 -0.78248430991E+01  0.93908202247E+02  0.00000000000E+00 0. -1.
         22    1    3    3    0    0 -0.49395883560E+02  0.15208002768E+02 -0.22179344057E+02  0.56241976883E+02  0.00000000000E+00 0. -1.
</event>
<event>
 7    1  0.5127424E-006  0.4271469E+02  0.7818608E-02  0.1544440E+00
          2   -1    0    0  502    0  0.00000000000E+00  0.00000000000E+00  0.40095211189E+03  0.40095211189E+03  0.00000000000E+00 0. -1.
          1   -1    0    0  501    0 -0.00000000000E+00 -0.00000000000E+00 -0.21228575601E+03  0.21228575601E+03  0.00000000000E+00 0. -1.
         25    2    1    2    0    0  0.67736767500E+02  0.47884538511E+01  0.28467759152E+03  0.31824228978E+03  0.12500249969E+03 0.  0.
          2    1    1    2  501    0 -0.41613267626E+02  0.88277814848E+01 -0.19092943775E+03  0.19561095053E+03  0.00000000000E+00 0. -1.
          1    1    1    2  502    0 -0.26123499874E+02 -0.13616235336E+02  0.94918202104E+02  0.99384627589E+02  0.00000000000E+00 0. -1.
         22    1    3    3    0    0  0.53409741381E+02  0.17792783086E+02  0.29213229774E+03  0.29750708057E+03  0.00000000000E+00 0.  1.
         22    1    3    3    0    0  0.14327026119E+02 -0.13004329235E+02 -0.74547062194E+01  0.20735209213E+02  0.00000000000E+00 0.  1.
</event>
<event>
 7    1  0.8718246E-006  0.8080323E+02  0.7818608E-02  0.1336309E+00
          2   -1    0    0  502    0  0.00000000000E+00  0.00000000000E+00  0.10805176646E+04  0.10805176646E+04  0.00000000000E+00 0. -1.
          1   -1    0    0  501    0 -0.00000000000E+00 -0.00000000000E+00 -0.12195291238E+04  0.12195291238E+04  0.00000000000E+00 0. -1.
         25    2    1    2    0    0 -0.61701286896E+02  0.16373119654E+02 -0.58341842337E+03  0.60006453960E+03  0.12500106840E+03 0.  0.
          2    1    1    2  501    0  0.50351248164E+01 -0.74154643273E+02 -0.62405204059E+03  0.62846257881E+03  0.00000000000E+00 0. -1.
          1    1    1    2  502    0  0.56666162080E+02  0.57781523619E+02  0.10684590047E+04  0.10715196700E+04  0.00000000000E+00 0. -1.
         22    1    3    3    0    0  0.31544120910E+02 -0.22806204250E+02 -0.17997961140E+03  0.18414074790E+03  0.00000000000E+00 0. -1.
         22    1    3    3    0    0 -0.93245407806E+02  0.39179323905E+02 -0.40343881197E+03  0.41592379170E+03  0.00000000000E+00 0. -1.
</event>
<event>
 7    1  0.5127424E-006  0.4658344E+02  0.7818608E-02  0.1538913E+00
          2   -1    0    0  502    0  0.00000000000E+00  0.00000000000E+00  0.10215771594E+04  0.10215771594E+04  0.00000000000E+00 0. -1.
          1   -1    0    0  501    0 -0.00000000000E+00 -0.00000000000E+00 -0.13922180974E+04  0.13922180974E+04  0.00000000000E+00 0. -1.
         25    2    1    2    0    0 -0.25761460919E+02  0.22224231798E+02 -0.42223109804E+03  0.44165798091E+03  0.12500041041E+03 0.  0.
          2    1    1    2  501    0  0.47497332349E+02 -0.45738024757E+01 -0.95948684821E+03  0.96067264359E+03  0.00000000000E+00 0. -1.
          1    1    1    2  502    0 -0.21735871430E+02 -0.17650429322E+02  0.10110770082E+04  0.10114646323E+04  0.00000000000E+00 0. -1.
         22    1    3    3    0    0 -0.50734463365E+02  0.61704455694E+02 -0.30922272555E+03  0.31937457573E+03  0.00000000000E+00 0.  1.
         22    1    3    3    0    0  0.24973002446E+02 -0.39480223897E+02 -0.11300837249E+03  0.12228340518E+03  0.00000000000E+00 0.  1.
</event>
<event>
 7    1  0.5127424E-006  0.6684840E+02  0.7818608E-02  0.1482578E+00
          2   -1    0    0  502    0  0.00000000000E+00  0.00000000000E+00  0.64716814935E+03  0.64716814935E+03  0.00000000000E+00 0. -1.
          1   -1    0    0  501    0 -0.00000000000E+00 -0.00000000000E+00 -0.59933888385E+03  0.59933888385E+03  0.00000000000E+00 0. -1.
         25    2    1    2    0    0  0.80377394015E+02  0.33209902969E+02 -0.27805027518E+03  0.31701793664E+03  0.12499997400E+03 0.  0.
          2    1    1    2  501    0 -0.52018076551E+02 -0.36727951702E+02 -0.29811531632E+03  0.30484022790E+03  0.00000000000E+00 0. -1.
          1    1    1    2  502    0 -0.28359317464E+02  0.35180487325E+01  0.62399485700E+03  0.62464886866E+03  0.00000000000E+00 0. -1.
         22    1    3    3    0    0  0.12417012255E+02  0.50645240172E+01  0.11871717993E+02  0.17910033081E+02  0.00000000000E+00 0. -1.
         22    1    3    3    0    0  0.67960381760E+02  0.28145378952E+02 -0.28992199318E+03  0.29910790356E+03  0.00000000000E+00 0. -1.
</event>
<event>
 7    1  0.5127424E-006  0.1525592E+03  0.7818608E-02  0.1290139E+00
          2   -1    0    0  502    0  0.00000000000E+00  0.00000000000E+00  0.14328433698E+04  0.14328433698E+04  0.00000000000E+00 0. -1.
          1   -1    0    0  501    0 -0.00000000000E+00 -0.00000000000E+00 -0.67252511601E+03  0.67252511601E+03  0.00000000000E+00 0. -1.
         25    2    1    2    0    0  0.60920006469E+01 -0.12998788842E+03  0.52913125242E+03  0.55905162464E+03  0.12499949249E+03 0.  0.
          2    1    1    2  501    0 -0.51321602982E+02 -0.30565795812E+02 -0.64835338623E+03  0.65109929215E+03  0.00000000000E+00 0. -1.
          1    1    1    2  502    0  0.45229602335E+02  0.16055368423E+03  0.87954038765E+03  0.89521756906E+03  0.00000000000E+00 0. -1.
         22    1    3    3    0    0  0.72356062329E+01 -0.69201309168E+02  0.46688339176E+03  0.47203948637E+03  0.00000000000E+00 0. -1.
         22    1    3    3    0    0 -0.11436055860E+01 -0.60786579254E+02  0.62247860658E+02  0.87012138278E+02  0.00000000000E+00 0. -1.
</event>
<event>
 7    1  0.8515790E-006  0.7906325E+02  0.7818608E-02  0.1395082E+00
          2   -1    0    0  502    0  0.00000000000E+00  0.00000000000E+00  0.27182690570E+04  0.27182690570E+04  0.00000000000E+00 0. -1.
          1   -1    0    0  501    0 -0.00000000000E+00 -0.00000000000E+00 -0.58950632460E+03  0.58950632460E+03  0.00000000000E+00 0. -1.
         25    2    1    2    0    0  0.21940796130E+02 -0.32146134420E+02 -0.13327850810E+03  0.18682451044E+03  0.12500185793E+03 0.  0.
          2    1    1    2  501    0 -0.80233193040E+01 -0.45843765179E+02 -0.42760895339E+03  0.43013421333E+03  0.00000000000E+00 0. -1.
          1    1    1    2  502    0 -0.13917476826E+02  0.77989899599E+02  0.26896501939E+04  0.26908166579E+04  0.00000000000E+00 0. -1.
         22    1    3    3    0    0 -0.17490005767E+02  0.42749060425E+02 -0.43746423471E+02  0.63617073459E+02  0.00000000000E+00 0.  1.
         22    1    3    3    0    0  0.39430801898E+02 -0.74895194845E+02 -0.89532084630E+02  0.12320743698E+03  0.00000000000E+00 0.  1.
</event>
<event>
 7    1  0.5127424E-006  0.3195378E+02  0.7818608E-02  0.1590007E+00
          2   -1    0    0  502    0  0.00000000000E+00  0.00000000000E+00  0.24858183910E+04  0.24858183910E+04  0.00000000000E+00 0. -1.
          1   -1    0    0  501    0 -0.00000000000E+00 -0.00000000000E+00 -0.28745308670E+02  0.28745308670E+02  0.00000000000E+00 0. -1.
         25    2    1    2    0    0  0.61250432220E+01 -0.11335671117E+02  0.11764792174E+04  0.11831711703E+04  0.12499862270E+03 0.  0.
          2    1    1    2  501    0 -0.32056979394E+02 -0.28950742235E+01 -0.14964852641E+02  0.35496171585E+02  0.00000000000E+00 0. -1.
          1    1    1    2  502    0  0.25931936172E+02  0.14230745340E+02  0.12955587175E+04  0.12958963578E+04  0.00000000000E+00 0. -1.
         22    1    3    3    0    0  0.63259913857E+02  0.41829487625E+01  0.47774797034E+03  0.48193613366E+03  0.00000000000E+00 0.  1.
         22    1    3    3    0    0 -0.57134870635E+02 -0.15518619880E+02  0.69873124707E+03  0.70123503666E+03  0.00000000000E+00 0.  1.
</event>
<event>
 7    1  0.5127424E-006  0.9271317E+02  0.7818608E-02  0.1354398E+00
          2   -1    0    0  502    0  0.00000000000E+00  0.00000000000E+00  0.23583109860E+03  0.23583109860E+03  0.00000000000E+00 0. -1.
          1   -1    0    0  501    0 -0.00000000000E+00 -0.00000000000E+00 -0.54607759552E+03  0.54607759552E+03  0.00000000000E+00 0. -1.
         25    2    1    2    0    0 -0.12275084176E+02 -0.12605394902E+03 -0.17204654744E+03  0.24751882493E+03  0.12500111381E+03 0.  0.
          2    1    1    2  501    0 -0.24987163686E+02  0.84986442730E+02 -0.32639128735E+03  0.33819864910E+03  0.00000000000E+00 0. -1.
          1    1    1    2  502    0  0.37262247862E+02  0.41067506290E+02  0.18819133787E+03  0.19619122009E+03  0.00000000000E+00 0. -1.
         22    1    3    3    0    0  0.97869244869E+01 -0.13916619542E+03 -0.17249526384E+03  0.22185046740E+03  0.00000000000E+00 0.  1.
         22    1    3    3    0    0 -0.22062008663E+02  0.13112246399E+02  0.44871639965E+00  0.25668357530E+02  0.00000000000E+00 0.  1.
</event>
<event>
 7    1  0.5127424E-006  0.1489573E+03  0.7818608E-02  0.1278102E+00
          2   -1    0    0  502    0  0.00000000000E+00  0.00000000000E+00  0.54077786174E+03  0.54077786174E+03  0.00000000000E+00 0. -1.
          1   -1    0    0  501    0 -0.00000000000E+00 -0.00000000000E+00 -0.26510475835E+03  0.26510475835E+03  0.00000000000E+00 0. -1.
         25    2    1    2    0    0  0.37164837709E+02 -0.72925165424E+01  0.26917474155E+03  0.29918842842E+03  0.12499707297E+03 0.  0.
          2    1    1    2  501    0 -0.14854748425E+02 -0.14821478719E+03 -0.19865526875E+03  0.24829861557E+03  0.00000000000E+00 0. -1.
          1    1    1    2  502    0 -0.22310089284E+02  0.15550730373E+03  0.20515363060E+03  0.25839557609E+03  0.00000000000E+00 0. -1.
         22    1    3    3    0    0 -0.45597551456E+02  0.56919246306E+01  0.11249366515E+03  0.12151690995E+03  0.00000000000E+00 0. -1.
         22    1    3    3    0    0  0.82762389165E+02 -0.12984441173E+02  0.15668107640E+03  0.17767151847E+03  0.00000000000E+00 0. -1.
</event>
<event>
 7    1  0.5127424E-006  0.9494912E+02  0.7818608E-02  0.1480705E+00
          2   -1    0    0  502    0  0.00000000000E+00  0.00000000000E+00  0.20154694296E+03  0.20154694296E+03  0.00000000000E+00 0. -1.
          1   -1    0    0  501    0 -0.00000000000E+00 -0.00000000000E+00 -0.10061495156E+04  0.10061495156E+04  0.00000000000E+00 0. -1.
         25    2    1    2    0    0 -0.58201279151E+02  0.80049212132E+02 -0.10469078326E+03  0.19073641741E+03  0.12499982228E+03 0.  0.
          2    1    1    2  501    0  0.38860689276E+02 -0.86495883124E+02 -0.85514878766E+03  0.86039010920E+03  0.00000000000E+00 0. -1.
          1    1    1    2  502    0  0.19340589875E+02  0.64466709927E+01  0.15523699824E+03  0.15656993200E+03  0.00000000000E+00 0. -1.
         22    1    3    3    0    0 -0.69913641920E+02  0.77198271213E+01 -0.10059359773E+02  0.71054231234E+02  0.00000000000E+00 0.  1.
         22    1    3    3    0    0  0.11712362768E+02  0.72329385010E+02 -0.94631423487E+02  0.11968218618E+03  0.00000000000E+00 0.  1.
</event>
<event>
 7    1  0.5127424E-006  0.9823029E+02  0.7818608E-02  0.1380680E+00
          2   -1    0    0  502    0  0.00000000000E+00  0.00000000000E+00  0.63163180194E+03  0.63163180194E+03  0.00000000000E+00 0. -1.
          1   -1    0    0  501    0 -0.00000000000E+00 -0.00000000000E+00 -0.24847168159E+03  0.24847168159E+03  0.00000000000E+00 0. -1.
         25    2    1    2    0    0  0.11067905075E+03  0.50643778332E+02  0.41628984072E+03  0.45137233002E+03  0.12500041707E+03 0.  0.
          2    1    1    2  501    0 -0.71714212477E+02 -0.66508355707E+02 -0.21810519972E+03  0.23903172968E+03  0.00000000000E+00 0. -1.
          1    1    1    2  502    0 -0.38964838270E+02  0.15864577375E+02  0.18497547936E+03  0.18969942383E+03  0.00000000000E+00 0. -1.
         22    1    3    3    0    0 -0.18577088906E+02  0.38811957029E+02  0.78785235820E+02  0.89769647565E+02  0.00000000000E+00 0.  1.
         22    1    3    3    0    0  0.12925613965E+03  0.11831821304E+02  0.33750460490E+03  0.36160268246E+03  0.00000000000E+00 0.  1.
</event>
<event>
 7    1  0.5127424E-006  0.5470059E+02  0.7818608E-02  0.1440065E+00
          2   -1    0    0  502    0  0.00000000000E+00  0.00000000000E+00  0.70915799587E+03  0.70915799587E+03  0.00000000000E+00 0. -1.
          1   -1    0    0  501    0 -0.00000000000E+00 -0.00000000000E+00 -0.11273161021E+04  0.11273161021E+04  0.00000000000E+00 0. -1.
         25    2    1    2    0    0  0.95147333288E+02  0.21969258965E+02 -0.49548662253E+03  0.52025703141E+03  0.12499888902E+03 0.  0.
          2    1    1    2  501    0 -0.47764354746E+02 -0.18179544767E+02 -0.61757681448E+03  0.61968786596E+03  0.00000000000E+00 0. -1.
          1    1    1    2  502    0 -0.47382978542E+02 -0.37897141978E+01  0.69490533076E+03  0.69652920062E+03  0.00000000000E+00 0. -1.
         22    1    3    3    0    0 -0.29756360096E+02 -0.15572560507E+01 -0.67221758486E+02  0.73529795502E+02  0.00000000000E+00 0.  1.
         22    1    3    3    0    0  0.12490369338E+03  0.23526515016E+02 -0.42826486405E+03  0.44672723591E+03  0.00000000000E+00 0.  1.
</event>
<event>
 7    1  0.5127424E-006  0.9809938E+02  0.7818608E-02  0.1464625E+00
          2   -1    0    0  502    0  0.00000000000E+00  0.00000000000E+00  0.58724731996E+03  0.58724731996E+03  0.00000000000E+00 0. -1.
          1   -1    0    0  501    0 -0.00000000000E+00 -0.00000000000E+00 -0.11731448404E+04  0.11731448404E+04  0.00000000000E+00 0. -1.
         25    2    1    2    0    0 -0.73067815157E+02  0.65045856765E+02 -0.11768438522E+03  0.19759639000E+03  0.12499939889E+03 0.  0.
          2    1    1    2  501    0  0.16254141052E+02  0.15019761858E+02 -0.10109796482E+04  0.10112218547E+04  0.00000000000E+00 0. -1.
          1    1    1    2  502    0  0.56813674104E+02 -0.80065618624E+02  0.54276651297E+03  0.55157391567E+03  0.00000000000E+00 0. -1.
         22    1    3    3    0    0 -0.68799620919E+02 -0.10317976295E+02 -0.96928002863E+02  0.11931004238E+03  0.00000000000E+00 0.  1.
         22    1    3    3    0    0 -0.42681942376E+01  0.75363833060E+02 -0.20756382354E+02  0.78286347622E+02  0.00000000000E+00 0.  1.
</event>
<event>
 7    1  0.5127424E-006  0.6605760E+02  0.7818608E-02  0.1397872E+00
          2   -1    0    0  502    0  0.00000000000E+00  0.00000000000E+00  0.95556725750E+03  0.95556725750E+03  0.00000000000E+00 0. -1.
          1   -1    0    0  501    0 -0.00000000000E+00 -0.00000000000E+00 -0.46099684604E+02  0.46099684604E+02  0.00000000000E+00 0. -1.
         25    2    1    2    0    0  0.11858602435E+02 -0.14458932587E+02  0.49429818159E+03  0.51020134393E+03  0.12500012739E+03 0.  0.
          2    1    1    2  501    0  0.58328975364E+02  0.31005429939E+02 -0.39617481614E+01  0.66176291081E+02  0.00000000000E+00 0. -1.
          1    1    1    2  502    0 -0.70187577799E+02 -0.16546497351E+02  0.41913113947E+03  0.42528930709E+03  0.00000000000E+00 0. -1.
         22    1    3    3    0    0  0.56196996599E+02  0.19252608262E+02  0.35908442536E+03  0.36396481958E+03  0.00000000000E+00 0. -1.
         22    1    3    3    0    0 -0.44338394164E+02 -0.33711540849E+02  0.13521375622E+03  0.14623652436E+03  0.00000000000E+00 0. -1.
</event>
<event>
 7    1  0.5127424E-006  0.4654550E+02  0.7818608E-02  0.1466028E+00
          2   -1    0    0  502    0  0.00000000000E+00  0.00000000000E+00  0.41485777453E+03  0.41485777453E+03  0.00000000000E+00 0. -1.
          1   -1    0    0  501    0 -0.00000000000E+00 -0.00000000000E+00 -0.12008772294E+03  0.12008772294E+03  0.00000000000E+00 0. -1.
         25    2    1    2    0    0  0.15125189563E+02 -0.71437456324E+01  0.11927679901E+03  0.17358547503E+03  0.12500063160E+03 0.  0.
          2    1    1    2  501    0  0.20373153486E+02  0.41849950525E+02 -0.84606522531E+02  0.96564731640E+02  0.00000000000E+00 0. -1.
          1    1    1    2  502    0 -0.35498343049E+02 -0.34706204893E+02  0.26009977511E+03  0.26479529080E+03  0.00000000000E+00 0. -1.
         22    1    3    3    0    0  0.14927969140E+02 -0.63804808391E+02  0.42267490127E+02  0.77977166902E+02  0.00000000000E+00 0. -1.
         22    1    3    3    0    0  0.19722042297E+00  0.56661062759E+02  0.77009308886E+02  0.95608308132E+02  0.00000000000E+00 0. -1.
</event>
<event>
 7    1  0.5127424E-006  0.6605265E+02  0.7818608E-02  0.1399766E+00
          2   -1    0    0  502    0  0.00000000000E+00  0.00000000000E+00  0.26242904887E+03  0.26242904887E+03  0.00000000000E+00 0. -1.
          1   -1    0    0  501    0 -0.00000000000E+00 -0.00000000000E+00 -0.10469418036E+04  0.10469418036E+04  0.00000000000E+00 0. -1.
         25    2    1    2    0    0 -0.31009992761E+02 -0.24576134537E+02  0.18757053844E+03  0.22885327597E+03  0.12500203595E+03 0.  0.
          2    1    1    2  501    0  0.63810416443E+02 -0.17907387804E+02 -0.10116618301E+04  0.10138304110E+04  0.00000000000E+00 0. -1.
          1    1    1    2  502    0 -0.32800423682E+02  0.42483522341E+02  0.39578536898E+02  0.66687165535E+02  0.00000000000E+00 0. -1.
         22    1    3    3    0    0  0.30812051044E+02  0.33473911789E+02  0.77992510388E+02  0.90292396893E+02  0.00000000000E+00 0. -1.
         22    1    3    3    0    0 -0.61822043805E+02 -0.58050046326E+02  0.10957802805E+03  0.13856087908E+03  0.00000000000E+00 0. -1.
</event>
<event>
 7    1  0.5127424E-006  0.1571124E+03  0.7818608E-02  0.1260531E+00
          2   -1    0    0  502    0  0.00000000000E+00  0.00000000000E+00  0.52199979646E+04  0.52199979646E+04  0.00000000000E+00 0. -1.
          1   -1    0    0  501    0 -0.00000000000E+00 -0.00000000000E+00 -0.88392073262E+02  0.88392073262E+02  0.00000000000E+00 0. -1.
         25    2    1    2    0    0 -0.79061543937E+02  0.19333164010E+03  0.48968482993E+03  0.54684855308E+03  0.12499702614E+03 0.  0.
          2    1    1    2  501    0 -0.20491514845E+02 -0.74268908907E+02 -0.33165742884E+02  0.83879315162E+02  0.00000000000E+00 0. -1.
          1    1    1    2  502    0  0.99553058782E+02 -0.11906273120E+03  0.46750868042E+04  0.46776621696E+04  0.00000000000E+00 0. -1.
         22    1    3    3    0    0 -0.38139533193E+01  0.15993229905E+03  0.29783911599E+03  0.33808434677E+03  0.00000000000E+00 0. -1.
         22    1    3    3    0    0 -0.75247590618E+02  0.33399341057E+02  0.19184571394E+03  0.20876420630E+03  0.00000000000E+00 0. -1.
</event>
<event>
 7    1  0.5127424E-006  0.8817888E+02  0.7818608E-02  0.1459607E+00
          2   -1    0    0  502    0  0.00000000000E+00  0.00000000000E+00  0.67598001344E+03  0.67598001344E+03  0.00000000000E+00 0. -1.
          1   -1    0    0  501    0 -0.00000000000E+00 -0.00000000000E+00 -0.11807402985E+04  0.11807402985E+04  0.00000000000E+00 0. -1.
         25    2    1    2    0    0 -0.57837775916E+02 -0.24384368059E+02 -0.73790757460E+03  0.75104706060E+03  0.12499717142E+03 0.  0.
          2    1    1    2  501    0 -0.23010703985E+02 -0.11063926191E+02 -0.43297484301E+03  0.43372700820E+03  0.00000000000E+00 0. -1.
          1    1    1    2  502    0  0.80848479901E+02  0.35448294250E+02  0.66612213252E+03  0.67194624317E+03  0.00000000000E+00 0. -1.
         22    1    3    3    0    0  0.10555345418E+02 -0.61213537340E+02 -0.31563197784E+03  0.32168627249E+03  0.00000000000E+00 0.  1.
         22    1    3    3    0    0 -0.68393121334E+02  0.36829169281E+02 -0.42227559675E+03  0.42936078811E+03  0.00000000000E+00 0.  1.
</event>
<event>
 7    1  0.5127424E-006  0.1946467E+03  0.7818608E-02  0.1208600E+00
          2   -1    0    0  502    0  0.00000000000E+00  0.00000000000E+00  0.57415280071E+03  0.57415280071E+03  0.00000000000E+00 0. -1.
          1   -1    0    0  501    0 -0.00000000000E+00 -0.00000000000E+00 -0.98590652960E+03  0.98590652960E+03  0.00000000000E+00 0. -1.
         25    2    1    2    0    0  0.21195117754E+03  0.61968070064E+02  0.36811579023E+03  0.44710013101E+03  0.12500379500E+03 0.  0.
          2    1    1    2  501    0 -0.19013976999E+03  0.41663185365E+02 -0.91827888246E+03  0.93868261895E+03  0.00000000000E+00 0. -1.
          1    1    1    2  502    0 -0.21811407544E+02 -0.10363125543E+03  0.13840936334E+03  0.17427658036E+03  0.00000000000E+00 0. -1.
         22    1    3    3    0    0  0.45082681014E+02  0.48517776926E+02  0.19647087677E+03  0.20733361576E+03  0.00000000000E+00 0. -1.
         22    1    3    3    0    0  0.16686849652E+03  0.13450293138E+02  0.17164491346E+03  0.23976651525E+03  0.00000000000E+00 0. -1.
</event>
<event>
 7    1  0.5127424E-006  0.5976733E+02  0.7818608E-02  0.1465530E+00
          2   -1    0    0  502    0  0.00000000000E+00  0.00000000000E+00  0.12215541942E+04  0.12215541942E+04  0.00000000000E+00 0. -1.
          1   -1    0    0  501    0 -0.00000000000E+00 -0.00000000000E+00 -0.93718920355E+02  0.93718920355E+02  0.00000000000E+00 0. -1.
         25    2    1    2    0    0 -0.31914866147E+02 -0.83586527340E+02  0.10852023570E+03  0.18816475349E+03  0.12499626661E+03 0.  0.
          2    1    1    2  501    0  0.82680815257E+01  0.56324233433E+02 -0.38470236474E+02  0.68707638136E+02  0.00000000000E+00 0. -1.
          1    1    1    2  502    0  0.23646784621E+02  0.27262293907E+02  0.10577852746E+04  0.10584007229E+04  0.00000000000E+00 0. -1.
         22    1    3    3    0    0  0.28713722725E+01 -0.74237102724E+02  0.49712850074E+00  0.74294275259E+02  0.00000000000E+00 0. -1.
         22    1    3    3    0    0 -0.34786238420E+02 -0.93494246160E+01  0.10802310720E+03  0.11387047823E+03  0.00000000000E+00 0. -1.
</event>
<event>
 7    1  0.5127424E-006  0.8787488E+02  0.7818608E-02  0.1340283E+00
          2   -1    0    0  502    0  0.00000000000E+00  0.00000000000E+00  0.34421518444E+03  0.34421518444E+03  0.00000000000E+00 0. -1.
          1   -1    0    0  501    0 -0.00000000000E+00 -0.00000000000E+00 -0.74299348814E+03  0.74299348814E+03  0.00000000000E+00 0. -1.
         25    2    1    2    0    0 -0.60274820981E+02 -0.13851152496E+03  0.52921610654E+02  0.20306135377E+03  0.12495887295E+03 0.  0.
          2    1    1    2  501    0  0.24658034241E+02  0.82916380018E+02 -0.65999411909E+03  0.66563907785E+03  0.00000000000E+00 0. -1.
          1    1    1    2  502    0  0.35616786740E+02  0.55595144942E+02  0.20829420474E+03  0.21850824096E+03  0.00000000000E+00 0. -1.
         22    1    3    3    0    0 -0.38253297628E+02  0.13051012621E+02 -0.17117943414E+01  0.40454591207E+02  0.00000000000E+00 0.  1.
         22    1    3    3    0    0 -0.22021523354E+02 -0.15156253758E+03  0.54633404995E+02  0.16260676256E+03  0.00000000000E+00 0.  1.
</event>
<event>
 7    1  0.5127424E-006  0.8911162E+02  0.7818608E-02  0.1308373E+00
          2   -1    0    0  502    0  0.00000000000E+00  0.00000000000E+00  0.15282458533E+04  0.15282458533E+04  0.00000000000E+00 0. -1.
          1   -1    0    0  501    0 -0.00000000000E+00 -0.00000000000E+00 -0.27093163280E+03  0.27093163280E+03  0.00000000000E+00 0. -1.
         25    2    1    2    0    0 -0.12767127945E+02  0.27187533603E+02  0.50286124336E+03  0.51903484406E+03  0.12500231093E+03 0.  0.
          2    1    1    2  501    0 -0.72145907506E+02  0.47584670564E+02 -0.25248558095E+03  0.26686757284E+03  0.00000000000E+00 0. -1.
          1    1    1    2  502    0  0.84913035452E+02 -0.74772204168E+02  0.10069385581E+04  0.10132750692E+04  0.00000000000E+00 0. -1.
         22    1    3    3    0    0 -0.64078923767E+02  0.26258346169E+02  0.37349925556E+03  0.37986484850E+03  0.00000000000E+00 0. -1.
         22    1    3    3    0    0  0.51311795822E+02  0.92918743480E+00  0.12936198779E+03  0.13916999556E+03  0.00000000000E+00 0. -1.
</event>
<event>
 7    1  0.5127424E-006  0.1219175E+03  0.7818608E-02  0.1333396E+00
          2   -1    0    0  502    0  0.00000000000E+00  0.00000000000E+00  0.10748198613E+04  0.10748198613E+04  0.00000000000E+00 0. -1.
          1   -1    0    0  501    0 -0.00000000000E+00 -0.00000000000E+00 -0.44519598393E+04  0.44519598393E+04  0.00000000000E+00 0. -1.
         25    2    1    2    0    0  0.11559939767E+02  0.14415349750E+03  0.29461230297E+03  0.35118417498E+03  0.12498020900E+03 0.  0.
          2    1    1    2  501    0  0.31513800905E+02 -0.11773549281E+03 -0.44219843780E+04  0.44236637084E+04  0.00000000000E+00 0. -1.
          1    1    1    2  502    0 -0.43073740672E+02 -0.26418004685E+02  0.75023209713E+03  0.75193181717E+03  0.00000000000E+00 0. -1.
         22    1    3    3    0    0  0.22969056322E+02 -0.13403880954E+02  0.82703194739E+02  0.86873816499E+02  0.00000000000E+00 0. -1.
         22    1    3    3    0    0 -0.11409116555E+02  0.15755737845E+03  0.21190910823E+03  0.26431035848E+03  0.00000000000E+00 0. -1.
</event>
<event>
 7    1  0.5127424E-006  0.3246897E+02  0.7818608E-02  0.1622279E+00
          2   -1    0    0  502    0  0.00000000000E+00  0.00000000000E+00  0.36704434590E+03  0.36704434590E+03  0.00000000000E+00 0. -1.
          1   -1    0    0  501    0 -0.00000000000E+00 -0.00000000000E+00 -0.27003619007E+03  0.27003619007E+03  0.00000000000E+00 0. -1.
         25    2    1    2    0    0  0.25236949689E+02  0.45017124949E+02 -0.72473136110E+02  0.15341589489E+03  0.12498254350E+03 0.  0.
          2    1    1    2  501    0 -0.63643844017E+00 -0.24001145932E+02 -0.15536589798E+03  0.15721012154E+03  0.00000000000E+00 0. -1.
          1    1    1    2  502    0 -0.24600511249E+02 -0.21015979017E+02  0.32484718992E+03  0.32645451954E+03  0.00000000000E+00 0. -1.
         22    1    3    3    0    0  0.12413221478E+02  0.82975496449E+02 -0.75988793894E+02  0.11319592694E+03  0.00000000000E+00 0.  1.
         22    1    3    3    0    0  0.12823728211E+02 -0.37958371500E+02  0.35156577838E+01  0.40219967949E+02  0.00000000000E+00 0.  1.
</event>
<event>
 7    1  0.5127424E-006  0.5031611E+02  0.7818608E-02  0.1473647E+00
          2   -1    0    0  502    0  0.00000000000E+00  0.00000000000E+00  0.14831110732E+04  0.14831110732E+04  0.00000000000E+00 0. -1.
          1   -1    0    0  501    0 -0.00000000000E+00 -0.00000000000E+00 -0.30211823136E+04  0.30211823136E+04  0.00000000000E+00 0. -1.
         25    2    1    2    0    0 -0.35632445123E+02  0.62618269050E+02 -0.51817301296E+02  0.15333349687E+03  0.12504163220E+03 0.  0.
          2    1    1    2  501    0 -0.89757675420E+01 -0.39436651988E+02 -0.29180256244E+04  0.29183059056E+04  0.00000000000E+00 0. -1.
          1    1    1    2  502    0  0.44608212665E+02 -0.23181617061E+02  0.14317716854E+04  0.14326539844E+04  0.00000000000E+00 0. -1.
         22    1    3    3    0    0 -0.26565974740E+02  0.85448199727E+02 -0.77075145564E+02  0.11810048228E+03  0.00000000000E+00 0. -1.
         22    1    3    3    0    0 -0.90664703823E+01 -0.22829930677E+02  0.25257844268E+02  0.35233014588E+02  0.00000000000E+00 0. -1.
</event>
<event>
 7    1  0.5127424E-006  0.9142979E+02  0.7818608E-02  0.1398889E+00
          2   -1    0    0  502    0  0.00000000000E+00  0.00000000000E+00  0.22748692254E+03  0.22748692254E+03  0.00000000000E+00 0. -1.
          1   -1    0    0  501    0 -0.00000000000E+00 -0.00000000000E+00 -0.42006503017E+03  0.42006503017E+03  0.00000000000E+00 0. -1.
         25    2    1    2    0    0  0.10432729683E+03  0.72360945851E+02 -0.56403091159E+02  0.18688635923E+03  0.12499964490E+03 0.  0.
          2    1    1    2  501    0 -0.31933257412E+02 -0.22468224436E+02 -0.28507980270E+03  0.28774128648E+03  0.00000000000E+00 0. -1.
          1    1    1    2  502    0 -0.72394039415E+02 -0.49892721415E+02  0.14890478623E+03  0.17292430701E+03  0.00000000000E+00 0. -1.
         22    1    3    3    0    0  0.12534156100E+03  0.78784086964E+02 -0.66988268631E+02  0.16249574581E+03  0.00000000000E+00 0.  1.
         22    1    3    3    0    0 -0.21014264174E+02 -0.64231411127E+01  0.10585177472E+02  0.24390613413E+02  0.00000000000E+00 0.  1.
</event>
<event>
 7    1  0.5127424E-006  0.5572081E+02  0.7818608E-02  0.1438461E+00
          2   -1    0    0  502    0  0.00000000000E+00  0.00000000000E+00  0.21238658161E+04  0.21238658161E+04  0.00000000000E+00 0. -1.
          1   -1    0    0  501    0 -0.00000000000E+00 -0.00000000000E+00 -0.33595883799E+03  0.33595883799E+03  0.00000000000E+00 0. -1.
         25    2    1    2    0    0  0.54818471014E+01  0.69118016190E+01  0.14947308291E+02  0.12619738357E+03  0.12499813577E+03 0.  0.
          2    1    1    2  501    0  0.27942243527E+02  0.38073904467E+02 -0.27795923964E+03  0.28194277802E+03  0.00000000000E+00 0. -1.
          1    1    1    2  502    0 -0.33424090628E+02 -0.44985706086E+02  0.20509189095E+04  0.20516844925E+04  0.00000000000E+00 0. -1.
         22    1    3    3    0    0  0.31552670111E+02 -0.62265826527E+01  0.62562429511E+02  0.70344857018E+02  0.00000000000E+00 0. -1.
         22    1    3    3    0    0 -0.26070823009E+02  0.13138384272E+02 -0.47615121219E+02  0.55852526553E+02  0.00000000000E+00 0. -1.
</event>
<event>
 7    1  0.5127424E-006  0.6924666E+02  0.7818608E-02  0.1377370E+00
          2   -1    0    0  502    0  0.00000000000E+00  0.00000000000E+00  0.88852166274E+03  0.88852166274E+03  0.00000000000E+00 0. -1.
          1   -1    0    0  501    0 -0.00000000000E+00 -0.00000000000E+00 -0.21096894549E+03  0.21096894549E+03  0.00000000000E+00 0. -1.
         25    2    1    2    0    0 -0.91902744836E+02  0.89981252217E+02  0.16518012602E+03  0.24382808655E+03  0.12499968601E+03 0.  0.
          2    1    1    2  501    0  0.47493889453E+02 -0.47704055689E+02 -0.16360374440E+03  0.17691108401E+03  0.00000000000E+00 0. -1.
          1    1    1    2  502    0  0.44408855382E+02 -0.42277196528E+02  0.67597633564E+03  0.67875143766E+03  0.00000000000E+00 0. -1.
         22    1    3    3    0    0 -0.77182123533E+02 -0.99990508154E+01  0.63191761668E+02  0.10025098480E+03  0.00000000000E+00 0.  1.
         22    1    3    3    0    0 -0.14720621302E+02  0.99980303032E+02  0.10198836435E+03  0.14357710175E+03  0.00000000000E+00 0.  1.
</event>
<event>
 7    1  0.5127424E-006  0.7109761E+02  0.7818608E-02  0.1364109E+00
          2   -1    0    0  502    0  0.00000000000E+00  0.00000000000E+00  0.28913391775E+04  0.28913391775E+04  0.00000000000E+00 0. -1.
          1   -1    0    0  501    0 -0.00000000000E+00 -0.00000000000E+00 -0.84943143682E+03  0.84943143682E+03  0.00000000000E+00 0. -1.
         25    2    1    2    0    0 -0.54135203994E+02  0.33405969471E+02  0.10597356456E+04  0.10689767855E+04  0.12500060143E+03 0.  0.
          2    1    1    2  501    0  0.63239196029E+02  0.32608918258E+02 -0.84270348597E+03  0.84570189944E+03  0.00000000000E+00 0. -1.
          1    1    1    2  502    0 -0.91039920347E+01 -0.66014887729E+02  0.18248755811E+04  0.18260919294E+04  0.00000000000E+00 0. -1.
         22    1    3    3    0    0 -0.89706858786E+02  0.41027357970E+02  0.62671074721E+03  0.63442645380E+03  0.00000000000E+00 0. -1.
         22    1    3    3    0    0  0.35571654792E+02 -0.76213884990E+01  0.43302489834E+03  0.43455033169E+03  0.00000000000E+00 0. -1.
</event>
<event>
 7    1  0.5127424E-006  0.7233909E+02  0.7818608E-02  0.1479870E+00
          2   -1    0    0  502    0  0.00000000000E+00  0.00000000000E+00  0.19222862557E+04  0.19222862557E+04  0.00000000000E+00 0. -1.
          1   -1    0    0  501    0 -0.00000000000E+00 -0.00000000000E+00 -0.27556132555E+03  0.27556132555E+03  0.00000000000E+00 0. -1.
         25    2    1    2    0    0 -0.48544887796E+02  0.40228018185E+02  0.79570482299E+03  0.80792669977E+03  0.12499794917E+03 0.  0.
          2    1    1    2  501    0  0.10952345980E+02  0.24587846446E+02 -0.26752160874E+03  0.26887232512E+03  0.00000000000E+00 0. -1.
          1    1    1    2  502    0  0.37592541816E+02 -0.64815864631E+02  0.11185417159E+04  0.11210485564E+04  0.00000000000E+00 0. -1.
         22    1    3    3    0    0 -0.69013887036E+02 -0.13298164513E+02  0.59701249499E+03  0.60113532333E+03  0.00000000000E+00 0. -1.
         22    1    3    3    0    0  0.20468999240E+02  0.53526182699E+02  0.19869232800E+03  0.20679137644E+03  0.00000000000E+00 0. -1.
</event>
<event>
 7    1  0.5127424E-006  0.6346376E+02  0.7818608E-02  0.1509068E+00
          2   -1    0    0  502    0  0.00000000000E+00  0.00000000000E+00  0.86357140982E+03  0.86357140982E+03  0.00000000000E+00 0. -1.
          1   -1    0    0  501    0 -0.00000000000E+00 -0.00000000000E+00 -0.67980474245E+02  0.67980474245E+02  0.00000000000E+00 0. -1.
         25    2    1    2    0    0 -0.35103617858E+01  0.50219751633E+02  0.46359095767E+03  0.48277761023E+03  0.12499319505E+03 0.  0.
          2    1    1    2  501    0 -0.19026504246E+02 -0.61189823833E+02 -0.40256082010E+02  0.75675323213E+02  0.00000000000E+00 0. -1.
          1    1    1    2  502    0  0.22536866032E+02  0.10970072200E+02  0.37225605992E+03  0.37309895063E+03  0.00000000000E+00 0. -1.
         22    1    3    3    0    0 -0.47459324918E+02  0.68349310437E+02  0.23504961865E+03  0.24934381682E+03  0.00000000000E+00 0.  1.
         22    1    3    3    0    0  0.43948963132E+02 -0.18129558803E+02  0.22854133902E+03  0.23343379341E+03  0.00000000000E+00 0.  1.
</event>
<event>
 7    1  0.5127424E-006  0.9103117E+02  0.7818608E-02  0.1358622E+00
          2   -1    0    0  502    0  0.00000000000E+00  0.00000000000E+00  0.82313550715E+03  0.82313550715E+03  0.00000000000E+00 0. -1.
          1   -1    0    0  501    0 -0.00000000000E+00 -0.00000000000E+00 -0.10063792283E+04  0.10063792283E+04  0.00000000000E+00 0. -1.
         25    2    1    2    0    0  0.10461969784E+03  0.99649937826E+02  0.31906929216E+03  0.37189456218E+03  0.12499984358E+03 0.  0.
          2    1    1    2  501    0 -0.70317840373E+02 -0.57301232923E+02 -0.97630282270E+03  0.98050763973E+03  0.00000000000E+00 0. -1.
          1    1    1    2  502    0 -0.34301857468E+02 -0.42348704903E+02  0.47398980939E+03  0.47711253352E+03  0.00000000000E+00 0. -1.
         22    1    3    3    0    0  0.44251441331E+02  0.50826153210E+02  0.32169962108E+02  0.74675259437E+02  0.00000000000E+00 0. -1.
         22    1    3    3    0    0  0.60368256510E+02  0.48823784616E+02  0.28689933006E+03  0.29721930275E+03  0.00000000000E+00 0. -1.
</event>
<event>
 7    1  0.5127424E-006  0.4991630E+02  0.7818608E-02  0.1451507E+00
          2   -1    0    0  502    0  0.00000000000E+00  0.00000000000E+00  0.17622885472E+04  0.17622885472E+04  0.00000000000E+00 0. -1.
          1   -1    0    0  501    0 -0.00000000000E+00 -0.00000000000E+00 -0.42687978941E+02  0.42687978941E+02  0.00000000000E+00 0. -1.
         25    2    1    2    0    0 -0.15617260518E+02 -0.34250358486E+02  0.71302331370E+03  0.72487505503E+03  0.12499845454E+03 0.  0.
          2    1    1    2  501    0 -0.37639050292E+02  0.29553051132E+02 -0.20192677264E+02  0.51940592538E+02  0.00000000000E+00 0. -1.
          1    1    1    2  502    0  0.53256310810E+02  0.46973073545E+01  0.10267699318E+04  0.10281608786E+04  0.00000000000E+00 0. -1.
         22    1    3    3    0    0 -0.27004276393E+02 -0.32237686511E+02  0.71202798452E+03  0.71326877831E+03  0.00000000000E+00 0.  1.
         22    1    3    3    0    0  0.11387015875E+02 -0.20126719756E+01  0.99532918082E+00  0.11606276716E+02  0.00000000000E+00 0.  1.
</event>
<event>
 7    1  0.5127424E-006  0.1385656E+03  0.7818608E-02  0.1253278E+00
          2   -1    0    0  502    0  0.00000000000E+00  0.00000000000E+00  0.20462685986E+04  0.20462685986E+04  0.00000000000E+00 0. -1.
          1   -1    0    0  501    0 -0.00000000000E+00 -0.00000000000E+00 -0.56767405604E+02  0.56767405604E+02  0.00000000000E+00 0. -1.
         25    2    1    2    0    0  0.79395722138E+02  0.99934527464E+01  0.12368384838E+04  0.12457120134E+04  0.12500174233E+03 0.  0.
          2    1    1    2  501    0 -0.10446356268E+03 -0.10042751147E+03  0.57570156902E+02  0.15592512290E+03  0.00000000000E+00 0. -1.
          1    1    1    2  502    0  0.25067840538E+02  0.90434058721E+02  0.69509255233E+03  0.70139886791E+03  0.00000000000E+00 0. -1.
         22    1    3    3    0    0 -0.75507789750E+01  0.44189201548E+02  0.21576203041E+03  0.22037003780E+03  0.00000000000E+00 0. -1.
         22    1    3    3    0    0  0.86946501113E+02 -0.34195748801E+02  0.10210764534E+04  0.10253419756E+04  0.00000000000E+00 0. -1.
</event>
<event>
 7    1  0.5127424E-006  0.1078182E+03  0.7818608E-02  0.1339407E+00
          2   -1    0    0  502    0  0.00000000000E+00  0.00000000000E+00  0.10919745125E+04  0.10919745125E+04  0.00000000000E+00 0. -1.
          1   -1    0    0  501    0 -0.00000000000E+00 -0.00000000000E+00 -0.25818825135E+03  0.25818825135E+03  0.00000000000E+00 0. -1.
         25    2    1    2    0    0  0.44098281959E+02 -0.40946747650E+02  0.21525004179E+03  0.25608217823E+03  0.12499682757E+03 0.  0.
          2    1    1    2  501    0 -0.60092661018E+02  0.92757157645E+02 -0.22401024606E+03  0.24979112983E+03  0.00000000000E+00 0. -1.
          1    1    1    2  502    0  0.15994379059E+02 -0.51810409995E+02  0.84254646545E+03  0.84428945581E+03  0.00000000000E+00 0. -1.
         22    1    3    3    0    0  0.63016110478E+02 -0.22423415246E+02  0.21932199018E+03  0.22929451609E+03  0.00000000000E+00 0.  1.
         22    1    3    3    0    0 -0.18917828519E+02 -0.18523332404E+02 -0.40719483968E+01  0.26787662141E+02  0.00000000000E+00 0.  1.
</event>
<event>
 7    1  0.5127424E-006  0.7676200E+02  0.7818608E-02  0.1446481E+00
          2   -1    0    0  502    0  0.00000000000E+00  0.00000000000E+00  0.11708025314E+04  0.11708025314E+04  0.00000000000E+00 0. -1.
          1   -1    0    0  501    0 -0.00000000000E+00 -0.00000000000E+00 -0.13988657476E+04  0.13988657476E+04  0.00000000000E+00 0. -1.
         25    2    1    2    0    0  0.49108288576E+02 -0.59033157477E+02  0.47745915152E+02  0.15427156324E+03  0.12499402035E+03 0.  0.
          2    1    1    2  501    0 -0.69074094500E+02  0.33650188247E+02 -0.13442619273E+04  0.13464559758E+04  0.00000000000E+00 0. -1.
          1    1    1    2  502    0  0.19965805924E+02  0.25382969230E+02  0.10684527959E+04  0.10689407400E+04  0.00000000000E+00 0. -1.
         22    1    3    3    0    0  0.20927243595E+02 -0.36027709591E+02  0.89602234488E+02  0.98815514005E+02  0.00000000000E+00 0.  1.
         22    1    3    3    0    0  0.28181044981E+02 -0.23005447885E+02 -0.41856319336E+02  0.55456049237E+02  0.00000000000E+00 0.  1.
</event>
<event>
 7    1  0.5127424E-006  0.7271710E+02  0.7818608E-02  0.1381758E+00
          2   -1    0    0  502    0  0.00000000000E+00  0.00000000000E+00  0.18893991716E+03  0.18893991716E+03  0.00000000000E+00 0. -1.
          1   -1    0    0  501    0 -0.00000000000E+00 -0.00000000000E+00 -0.85148612485E+03  0.85148612485E+03  0.00000000000E+00 0. -1.
         25    2    1    2    0    0  0.10645697511E+03 -0.40792105325E+02 -0.38568844749E+03  0.42116445520E+03  0.12500734535E+03 0.  0.
          2    1    1    2  501    0 -0.50293043215E+02  0.45176469891E+02 -0.44077742266E+03  0.44593165391E+03  0.00000000000E+00 0. -1.
          1    1    1    2  502    0 -0.56163931895E+02 -0.43843645654E+01  0.16391966246E+03  0.17332993290E+03  0.00000000000E+00 0. -1.
         22    1    3    3    0    0 -0.79011522271E+01 -0.52695075087E+02 -0.14339784759E+03  0.15297758606E+03  0.00000000000E+00 0. -1.
         22    1    3    3    0    0  0.11435812734E+03  0.11902969762E+02 -0.24229059990E+03  0.26818686914E+03  0.00000000000E+00 0. -1.
</event>
<event>
 7    1  0.5127424E-006  0.3465310E+02  0.7818608E-02  0.1553893E+00
          2   -1    0    0  502    0  0.00000000000E+00  0.00000000000E+00  0.11416607836E+04  0.11416607836E+04  0.00000000000E+00 0. -1.
          1   -1    0    0  501    0 -0.00000000000E+00 -0.00000000000E+00 -0.15277092173E+03  0.15277092173E+03  0.00000000000E+00 0. -1.
         25    2    1    2    0    0  0.51306716197E+01 -0.10974320202E+02  0.38339170457E+02  0.13130421166E+03  0.12499657801E+03 0.  0.
          2    1    1    2  501    0 -0.32474369720E+02 -0.10633166406E+02 -0.10324646051E+03  0.10875422072E+03  0.00000000000E+00 0. -1.
          1    1    1    2  502    0  0.27343698100E+02  0.21607486608E+02  0.10537971519E+04  0.10543732729E+04  0.00000000000E+00 0. -1.
         22    1    3    3    0    0 -0.28409297875E+02 -0.50840822650E+02 -0.11320170369E+02  0.59329787718E+02  0.00000000000E+00 0.  1.
         22    1    3    3    0    0  0.33539969494E+02  0.39866502448E+02  0.49659340826E+02  0.71974423946E+02  0.00000000000E+00 0.  1.
</event>
<event>
 7    1  0.5127424E-006  0.1134820E+03  0.7818608E-02  0.1316319E+00
          2   -1    0    0  502    0  0.00000000000E+00  0.00000000000E+00  0.12779260847E+04  0.12779260847E+04  0.00000000000E+00 0. -1.
          1   -1    0    0  501    0 -0.00000000000E+00 -0.00000000000E+00 -0.24056899464E+03  0.24056899464E+03  0.00000000000E+00 0. -1.
         25    2    1    2    0    0 -0.33938885654E+01 -0.81732945412E+02  0.20837816379E+03  0.25639561379E+03  0.12500183510E+03 0.  0.
          2    1    1    2  501    0 -0.56506461391E+02  0.10176476801E+03 -0.19988036602E+03  0.23130328339E+03  0.00000000000E+00 0. -1.
          1    1    1    2  502    0  0.59900349956E+02 -0.20031822602E+02  0.10288592923E+04  0.10307961821E+04  0.00000000000E+00 0. -1.
         22    1    3    3    0    0  0.28577651440E+00 -0.11378383526E+03  0.18237540501E+03  0.21495960361E+03  0.00000000000E+00 0. -1.
         22    1    3    3    0    0 -0.36796650798E+01  0.32050889843E+02  0.26002758787E+02  0.41436010177E+02  0.00000000000E+00 0. -1.
</event>
<event>
 7    1  0.5127424E-006  0.7590586E+02  0.7818608E-02  0.1401429E+00
          2   -1    0    0  502    0  0.00000000000E+00  0.00000000000E+00  0.48497510093E+03  0.48497510093E+03  0.00000000000E+00 0. -1.
          1   -1    0    0  501    0 -0.00000000000E+00 -0.00000000000E+00 -0.76211501300E+02  0.76211501300E+02  0.00000000000E+00 0. -1.
         25    2    1    2    0    0 -0.41519545553E+02 -0.11807010224E+02  0.34414956830E+03  0.36868328309E+03  0.12500063885E+03 0.  0.
          2    1    1    2  501    0  0.55637307417E+02  0.55686487374E+02 -0.32377060448E+02  0.85116208186E+02  0.00000000000E+00 0. -1.
          1    1    1    2  502    0 -0.14117761864E+02 -0.43879477150E+02  0.96991091776E+02  0.10738711095E+03  0.00000000000E+00 0. -1.
         22    1    3    3    0    0 -0.52621100508E+02  0.31081791144E+01  0.46021113421E+02  0.69975594865E+02  0.00000000000E+00 0.  1.
         22    1    3    3    0    0  0.11101554955E+02 -0.14915189339E+02  0.29812845488E+03  0.29870768822E+03  0.00000000000E+00 0.  1.
</event>
<event>
 7    1  0.5127424E-006  0.1836343E+03  0.7818608E-02  0.1266756E+00
          2   -1    0    0  502    0  0.00000000000E+00  0.00000000000E+00  0.18598835375E+04  0.18598835375E+04  0.00000000000E+00 0. -1.
          1   -1    0    0  501    0 -0.00000000000E+00 -0.00000000000E+00 -0.41862889077E+02  0.41862889077E+02  0.00000000000E+00 0. -1.
         25    2    1    2    0    0  0.19256361690E+03  0.88604689552E+02  0.11140737698E+04  0.11409282030E+04  0.12500104918E+03 0.  0.
          2    1    1    2  501    0 -0.61158970616E+02  0.10343206003E+02  0.33517197984E+02  0.70503930089E+02  0.00000000000E+00 0. -1.
          1    1    1    2  502    0 -0.13140464629E+03 -0.98947895555E+02  0.67042968068E+03  0.69031429352E+03  0.00000000000E+00 0. -1.
         22    1    3    3    0    0  0.17324905554E+03  0.10263747405E+03  0.10839256134E+04  0.11024719596E+04  0.00000000000E+00 0. -1.
         22    1    3    3    0    0  0.19314561366E+02 -0.14032784494E+02  0.30148156323E+02  0.38456243331E+02  0.00000000000E+00 0. -1.
</event>
<event>
 7    1  0.5127424E-006  0.6126638E+02  0.7818608E-02  0.1457426E+00
          2   -1    0    0  502    0  0.00000000000E+00  0.00000000000E+00  0.30647772271E+04  0.30647772271E+04  0.00000000000E+00 0. -1.
          1   -1    0    0  501    0 -0.00000000000E+00 -0.00000000000E+00 -0.20507698796E+02  0.20507698796E+02  0.00000000000E+00 0. -1.
         25    2    1    2    0    0 -0.17822356477E+01 -0.57050212130E+02  0.12730903281E+04  0.12804850760E+04  0.12500057322E+03 0.  0.
          2    1    1    2  501    0  0.38187443354E+02  0.48764976642E+02  0.41135752613E+02  0.74353573686E+02  0.00000000000E+00 0. -1.
          1    1    1    2  502    0 -0.36405207707E+02  0.82852354882E+01  0.17300434476E+04  0.17304462762E+04  0.00000000000E+00 0. -1.
         22    1    3    3    0    0 -0.32046527299E+02 -0.17601601962E+02  0.10226401387E+03  0.10860352129E+03  0.00000000000E+00 0.  1.
         22    1    3    3    0    0  0.30264291651E+02 -0.39448610168E+02  0.11708263142E+04  0.11718815547E+04  0.00000000000E+00 0.  1.
</event>
<event>
 7    1  0.5127424E-006  0.1122522E+03  0.7818608E-02  0.1365560E+00
          2   -1    0    0  502    0  0.00000000000E+00  0.00000000000E+00  0.22227703017E+04  0.22227703017E+04  0.00000000000E+00 0. -1.
          1   -1    0    0  501    0 -0.00000000000E+00 -0.00000000000E+00 -0.16325339912E+02  0.16325339912E+02  0.00000000000E+00 0. -1.
         25    2    1    2    0    0  0.10176714403E+03 -0.19608730913E+02  0.89804859113E+03  0.91261027720E+03  0.12500076831E+03 0.  0.
          2    1    1    2  501    0 -0.10109671602E+03  0.61303063201E+02  0.39937647876E+03  0.41650952371E+03  0.00000000000E+00 0. -1.
          1    1    1    2  502    0 -0.67042801182E+00 -0.41694332287E+02  0.90901989188E+03  0.90997584069E+03  0.00000000000E+00 0. -1.
         22    1    3    3    0    0  0.19643590006E+02  0.48140105998E+02  0.20814160897E+03  0.21453733898E+03  0.00000000000E+00 0.  1.
         22    1    3    3    0    0  0.82123554029E+02 -0.67748836911E+02  0.68990698217E+03  0.69807293822E+03  0.00000000000E+00 0.  1.
</event>
<event>
 7    1  0.5127424E-006  0.1292847E+03  0.7818608E-02  0.1314740E+00
          2   -1    0    0  502    0  0.00000000000E+00  0.00000000000E+00  0.21485390220E+04  0.21485390220E+04  0.00000000000E+00 0. -1.
          1   -1    0    0  501    0 -0.00000000000E+00 -0.00000000000E+00 -0.88002519505E+02  0.88002519505E+02  0.00000000000E+00 0. -1.
         25    2    1    2    0    0  0.15224541196E+03 -0.57786092833E+02  0.44859747944E+03  0.49334057182E+03  0.12500929267E+03 0.  0.
          2    1    1    2  501    0 -0.99401855916E+02  0.77016859614E+02 -0.44579918327E+01  0.12582606771E+03  0.00000000000E+00 0. -1.
          1    1    1    2  502    0 -0.52843556043E+02 -0.19230766782E+02  0.16163970149E+04  0.16173749020E+04  0.00000000000E+00 0. -1.
         22    1    3    3    0    0  0.26834879793E+02  0.35078294952E+02  0.59366968693E+02  0.73993476212E+02  0.00000000000E+00 0. -1.
         22    1    3    3    0    0  0.12541053217E+03 -0.92864387784E+02  0.38923051075E+03  0.41934709561E+03  0.00000000000E+00 0. -1.
</event>
<event>
 7    1  0.5127424E-006  0.7048044E+02  0.7818608E-02  0.1389163E+00
          2   -1    0    0  502    0  0.00000000000E+00  0.00000000000E+00  0.43685462389E+03  0.43685462389E+03  0.00000000000E+00 0. -1.
          1   -1    0    0  501    0 -0.00000000000E+00 -0.00000000000E+00 -0.67787580083E+03  0.67787580083E+03  0.00000000000E+00 0. -1.
         25    2    1    2    0    0  0.79000736042E+01 -0.23922498191E+02  0.10557938487E+03  0.16555065215E+03  0.12500125933E+03 0.  0.
          2    1    1    2  501    0 -0.61189207286E+02  0.36455477466E+02 -0.64342204527E+03  0.64735233781E+03  0.00000000000E+00 0. -1.
          1    1    1    2  502    0  0.53289133682E+02 -0.12532979275E+02  0.29682148346E+03  0.30182743477E+03  0.00000000000E+00 0. -1.
         22    1    3    3    0    0  0.32225413218E+02  0.37377277804E+02  0.81626515193E+02  0.95385670495E+02  0.00000000000E+00 0. -1.
         22    1    3    3    0    0 -0.24325339614E+02 -0.61299775996E+02  0.23952869673E+02  0.70164981651E+02  0.00000000000E+00 0. -1.
</event>
<event>
 7    1  0.5127424E-006  0.6740808E+02  0.7818608E-02  0.1447227E+00
          2   -1    0    0  502    0  0.00000000000E+00  0.00000000000E+00  0.17247891890E+04  0.17247891890E+04  0.00000000000E+00 0. -1.
          1   -1    0    0  501    0 -0.00000000000E+00 -0.00000000000E+00 -0.66430096802E+02  0.66430096802E+02  0.00000000000E+00 0. -1.
         25    2    1    2    0    0 -0.99978043144E+02 -0.16402124313E+02  0.33361671376E+03  0.37039036314E+03  0.12499708243E+03 0.  0.
          2    1    1    2  501    0  0.65038180885E+02  0.55942698850E+01 -0.25506705534E+02  0.70084612117E+02  0.00000000000E+00 0. -1.
          1    1    1    2  502    0  0.34939862259E+02  0.10807854428E+02  0.13502490840E+04  0.13507443106E+04  0.00000000000E+00 0. -1.
         22    1    3    3    0    0 -0.25251795892E+02  0.25018421788E+01 -0.25468983738E+01  0.25502923389E+02  0.00000000000E+00 0.  1.
         22    1    3    3    0    0 -0.74726247252E+02 -0.18903966492E+02  0.33616361213E+03  0.34488743976E+03  0.00000000000E+00 0.  1.
</event>
<event>
 7    1  0.5127424E-006  0.8810042E+02  0.7818608E-02  0.1460300E+00
          2   -1    0    0  502    0  0.00000000000E+00  0.00000000000E+00  0.14765558106E+04  0.14765558106E+04  0.00000000000E+00 0. -1.
          1   -1    0    0  501    0 -0.00000000000E+00 -0.00000000000E+00 -0.94856720136E+02  0.94856720136E+02  0.00000000000E+00 0. -1.
         25    2    1    2    0    0  0.82935729611E+02 -0.66573972539E+01  0.18434531294E+03  0.23778880359E+03  0.12505064784E+03 0.  0.
          2    1    1    2  501    0 -0.37218678902E+00 -0.25423993782E+02 -0.64154485857E+02  0.69009535851E+02  0.00000000000E+00 0. -1.
          1    1    1    2  502    0 -0.82563542822E+02  0.32081391036E+02  0.12615082634E+04  0.12646141913E+04  0.00000000000E+00 0. -1.
         22    1    3    3    0    0 -0.19806825994E+02 -0.33137318280E+02  0.80736646207E+02  0.89491889351E+02  0.00000000000E+00 0. -1.
         22    1    3    3    0    0  0.10274255561E+03  0.26479921026E+02  0.10360866674E+03  0.14829691424E+03  0.00000000000E+00 0. -1.
</event>
<event>
 7    1  0.5127424E-006  0.1342847E+03  0.7818608E-02  0.1302407E+00
          2   -1    0    0  502    0  0.00000000000E+00  0.00000000000E+00  0.20062237098E+04  0.20062237098E+04  0.00000000000E+00 0. -1.
          1   -1    0    0  501    0 -0.00000000000E+00 -0.00000000000E+00 -0.58215493408E+03  0.58215493408E+03  0.00000000000E+00 0. -1.
         25    2    1    2    0    0  0.19819990580E+02  0.12251538883E+03  0.21058373756E+02  0.17740805766E+03  0.12500924482E+03 0.  0.
          2    1    1    2  501    0  0.59147023028E+02 -0.13035278156E+02 -0.49976066460E+03  0.50341733253E+03  0.00000000000E+00 0. -1.
          1    1    1    2  502    0 -0.78967013608E+02 -0.10948011068E+03  0.19027710666E+04  0.19075532537E+04  0.00000000000E+00 0. -1.
         22    1    3    3    0    0  0.56041640188E+02  0.97399040829E+02  0.51732811386E+02  0.12370740626E+03  0.00000000000E+00 0.  1.
         22    1    3    3    0    0 -0.36221649608E+02  0.25116348005E+02 -0.30674437629E+02  0.53700651405E+02  0.00000000000E+00 0.  1.
</event>
<event>
 7    1  0.5127424E-006  0.1720624E+03  0.7818608E-02  0.1231324E+00
          2   -1    0    0  502    0  0.00000000000E+00  0.00000000000E+00  0.20033790126E+04  0.20033790126E+04  0.00000000000E+00 0. -1.
          1   -1    0    0  501    0 -0.00000000000E+00 -0.00000000000E+00 -0.21889928249E+03  0.21889928249E+03  0.00000000000E+00 0. -1.
         25    2    1    2    0    0  0.10877697460E+01  0.14525182836E+03  0.20642769281E+03  0.28166657649E+03  0.12499756425E+03 0.  0.
          2    1    1    2  501    0 -0.95106263045E+02 -0.15339605685E+03 -0.13473230701E+03  0.22522954087E+03  0.00000000000E+00 0. -1.
          1    1    1    2  502    0  0.94018493298E+02  0.81442284852E+01  0.17127843444E+04  0.17153821778E+04  0.00000000000E+00 0. -1.
         22    1    3    3    0    0  0.12360870802E+02  0.16656287310E+03  0.18678584459E+03  0.25056921910E+03  0.00000000000E+00 0. -1.
         22    1    3    3    0    0 -0.11273101056E+02 -0.21311044736E+02  0.19641848220E+02  0.31097357390E+02  0.00000000000E+00 0. -1.
</event>
<event>
 7    1  0.5127424E-006  0.1186268E+03  0.7818608E-02  0.1429658E+00
          2   -1    0    0  502    0  0.00000000000E+00  0.00000000000E+00  0.29240726081E+04  0.29240726081E+04  0.00000000000E+00 0. -1.
          1   -1    0    0  501    0 -0.00000000000E+00 -0.00000000000E+00 -0.45304507308E+03  0.45304507308E+03  0.00000000000E+00 0. -1.
         25    2    1    2    0    0  0.62678668901E+02  0.76962504155E+02  0.15807051177E+04  0.15887433021E+04  0.12499907307E+03 0.  0.
          2    1    1    2  501    0 -0.85836913400E+02 -0.82024450727E+02 -0.44107053924E+03  0.45677040929E+03  0.00000000000E+00 0. -1.
          1    1    1    2  502    0  0.23158244499E+02  0.50619465716E+01  0.13313929566E+04  0.13316039698E+04  0.00000000000E+00 0. -1.
         22    1    3    3    0    0  0.83696512642E+02  0.75392107314E+01  0.10001959552E+04  0.10037200281E+04  0.00000000000E+00 0.  1.
         22    1    3    3    0    0 -0.21017843741E+02  0.69423293424E+02  0.58050916241E+03  0.58502327396E+03  0.00000000000E+00 0.  1.
</event>
<event>
 7    1  0.5127424E-006  0.1891516E+03  0.7818608E-02  0.1272281E+00
          2   -1    0    0  502    0  0.00000000000E+00  0.00000000000E+00  0.39594167978E+03  0.39594167978E+03  0.00000000000E+00 0. -1.
          1   -1    0    0  501    0 -0.00000000000E+00 -0.00000000000E+00 -0.98282286502E+03  0.98282286502E+03  0.00000000000E+00 0. -1.
         25    2    1    2    0    0 -0.22474111965E+03 -0.17166002044E+02 -0.85319928706E+02  0.27148976062E+03  0.12499582953E+03 0.  0.
          2    1    1    2  501    0  0.41993463585E+02  0.38665987789E+02 -0.77532192968E+03  0.77742048097E+03  0.00000000000E+00 0. -1.
          1    1    1    2  502    0  0.18274765606E+03 -0.21499985746E+02  0.27376067315E+03  0.32985430321E+03  0.00000000000E+00 0. -1.
         22    1    3    3    0    0 -0.11272390062E+03 -0.48327521709E+02  0.72621470315E+01  0.12286157212E+03  0.00000000000E+00 0. -1.
         22    1    3    3    0    0 -0.11201721903E+03  0.31161519665E+02 -0.92582075738E+02  0.14862818849E+03  0.00000000000E+00 0. -1.
</event>
