<event>
 7    1  0.5553952E-006  0.1118909E+03  0.7818608E-02  0.1307022E+00
          2   -1    0    0  502    0  0.00000000000E+00  0.00000000000E+00  0.15834975989E+04  0.15834975989E+04  0.00000000000E+00 0. -1.
          1   -1    0    0  501    0 -0.00000000000E+00 -0.00000000000E+00 -0.20911225515E+02  0.20911225515E+02  0.00000000000E+00 0. -1.
         25    2    1    2    0    0  0.12806039216E+02 -0.48925869855E+02  0.56060423208E+03  0.57659474399E+03  0.12500663336E+03 0.  0.
          2    1    1    2  501    0 -0.11154266008E+03 -0.88209037770E+01  0.57441692381E+03  0.58521310283E+03  0.00000000000E+00 0. -1.
          1    1    1    2  502    0  0.98736620863E+02  0.57746773632E+02  0.42756521751E+03  0.44260097762E+03  0.00000000000E+00 0. -1.
         22    1    3    3    0    0  0.57554414398E+02 -0.85301117436E+01  0.13875885396E+03  0.15046359352E+03  0.00000000000E+00 0.  1.
         22    1    3    3    0    0 -0.44748375182E+02 -0.40395758112E+02  0.42184537812E+03  0.42613115046E+03  0.00000000000E+00 0.  1.
</event>
<event>
 7    1  0.5553952E-006  0.1238588E+03  0.7818608E-02  0.1292182E+00
          2   -1    0    0  502    0  0.00000000000E+00  0.00000000000E+00  0.35603154142E+04  0.35603154142E+04  0.00000000000E+00 0. -1.
          1   -1    0    0  501    0 -0.00000000000E+00 -0.00000000000E+00 -0.55086540577E+03  0.55086540577E+03  0.00000000000E+00 0. -1.
         25    2    1    2    0    0  0.17911758709E+03  0.78985204984E+02 -0.22768250322E+03  0.32524711447E+03  0.12499836234E+03 0.  0.
          2    1    1    2  501    0 -0.66078834137E+02 -0.29053395391E+02 -0.26854583433E+03  0.27807800568E+03  0.00000000000E+00 0. -1.
          1    1    1    2  502    0 -0.11303875295E+03 -0.49931809592E+02  0.35056783460E+04  0.35078556998E+04  0.00000000000E+00 0. -1.
         22    1    3    3    0    0  0.35484225213E+02  0.58467377810E+02 -0.13975438080E+03  0.15559193893E+03  0.00000000000E+00 0. -1.
         22    1    3    3    0    0  0.14363336187E+03  0.20517827174E+02 -0.87928122421E+02  0.16965517554E+03  0.00000000000E+00 0. -1.
</event>
<event>
 7    1  0.5553952E-006  0.3382670E+03  0.7818608E-02  0.1120463E+00
          2   -1    0    0  502    0  0.00000000000E+00  0.00000000000E+00  0.68341137408E+03  0.68341137408E+03  0.00000000000E+00 0. -1.
          1   -1    0    0  501    0 -0.00000000000E+00 -0.00000000000E+00 -0.24925811718E+04  0.24925811718E+04  0.00000000000E+00 0. -1.
         25    2    1    2    0    0  0.19688417927E+03 -0.47119225526E+02 -0.15892360454E+03  0.28612058504E+03  0.12499870258E+03 0.  0.
          2    1    1    2  501    0 -0.35625016259E+03  0.10293730283E+03 -0.22430458078E+04  0.22734917555E+04  0.00000000000E+00 0. -1.
          1    1    1    2  502    0  0.15936598332E+03 -0.55818077302E+02  0.59279961461E+03  0.61638020529E+03  0.00000000000E+00 0. -1.
         22    1    3    3    0    0 -0.10792255975E+02 -0.89144116529E+01 -0.43023043428E+02  0.45242919777E+02  0.00000000000E+00 0. -1.
         22    1    3    3    0    0  0.20767643524E+03 -0.38204813873E+02 -0.11590056111E+03  0.24087766527E+03  0.00000000000E+00 0. -1.
</event>
<event>
 7    1  0.5553952E-006  0.2076713E+03  0.7818608E-02  0.1199972E+00
          2   -1    0    0  502    0  0.00000000000E+00  0.00000000000E+00  0.80492953682E+03  0.80492953682E+03  0.00000000000E+00 0. -1.
          1   -1    0    0  501    0 -0.00000000000E+00 -0.00000000000E+00 -0.59453997639E+03  0.59453997639E+03  0.00000000000E+00 0. -1.
         25    2    1    2    0    0  0.64565709565E+02 -0.27323980063E+03 -0.79561444964E+00  0.30733433722E+03  0.12500016933E+03 0.  0.
          2    1    1    2  501    0 -0.10128024101E+03  0.17067750278E+03 -0.41316121750E+03  0.45835650843E+03  0.00000000000E+00 0. -1.
          1    1    1    2  502    0  0.36714531447E+02  0.10256229785E+03  0.62434639239E+03  0.63377866756E+03  0.00000000000E+00 0. -1.
         22    1    3    3    0    0  0.52587080075E+02 -0.29070767673E+02  0.16346628996E+02  0.62271364233E+02  0.00000000000E+00 0. -1.
         22    1    3    3    0    0  0.11978629489E+02 -0.24416903295E+03 -0.17142243445E+02  0.24506297299E+03  0.00000000000E+00 0. -1.
</event>
<event>
 7    1  0.5553952E-006  0.8680808E+02  0.7818608E-02  0.1377928E+00
          2   -1    0    0  502    0  0.00000000000E+00  0.00000000000E+00  0.13932628424E+03  0.13932628424E+03  0.00000000000E+00 0. -1.
          1   -1    0    0  501    0 -0.00000000000E+00 -0.00000000000E+00 -0.14326926389E+04  0.14326926389E+04  0.00000000000E+00 0. -1.
         25    2    1    2    0    0  0.39285006942E+02 -0.54357328278E+02 -0.18875011205E+03  0.23611549827E+03  0.12500357122E+03 0.  0.
          2    1    1    2  501    0 -0.48035856602E+01  0.88730647740E+02 -0.12134375970E+04  0.12166868965E+04  0.00000000000E+00 0. -1.
          1    1    1    2  502    0 -0.34481421282E+02 -0.34373319462E+02  0.10882135430E+03  0.11921652846E+03  0.00000000000E+00 0. -1.
         22    1    3    3    0    0  0.10717462887E+02 -0.67676752155E+02 -0.30928322299E+02  0.75176910772E+02  0.00000000000E+00 0. -1.
         22    1    3    3    0    0  0.28567544055E+02  0.13319423877E+02 -0.15782178975E+03  0.16093858750E+03  0.00000000000E+00 0. -1.
</event>
<event>
 7    1  0.5553952E-006  0.2225784E+03  0.7818608E-02  0.1204359E+00
          2   -1    0    0  502    0  0.00000000000E+00  0.00000000000E+00  0.19697671972E+04  0.19697671972E+04  0.00000000000E+00 0. -1.
          1   -1    0    0  501    0 -0.00000000000E+00 -0.00000000000E+00 -0.79162310836E+02  0.79162310836E+02  0.00000000000E+00 0. -1.
         25    2    1    2    0    0  0.23630701973E+03  0.16565636696E+03  0.98748001650E+03  0.10363512934E+04  0.12499672333E+03 0.  0.
          2    1    1    2  501    0 -0.13980754823E+03 -0.15655914239E+03  0.16200329868E+03  0.26514521378E+03  0.00000000000E+00 0. -1.
          1    1    1    2  502    0 -0.96499471499E+02 -0.90972245669E+01  0.74112157122E+03  0.74743300090E+03  0.00000000000E+00 0. -1.
         22    1    3    3    0    0  0.22662054838E+03  0.10584700539E+03  0.72374783868E+03  0.76574891152E+03  0.00000000000E+00 0. -1.
         22    1    3    3    0    0  0.96864713481E+01  0.59809361568E+02  0.26373217782E+03  0.27060238187E+03  0.00000000000E+00 0. -1.
</event>
<event>
 7    1  0.5553952E-006  0.6163960E+02  0.7818608E-02  0.1489028E+00
          2   -1    0    0  502    0  0.00000000000E+00  0.00000000000E+00  0.15368016062E+04  0.15368016062E+04  0.00000000000E+00 0. -1.
          1   -1    0    0  501    0 -0.00000000000E+00 -0.00000000000E+00 -0.94956485133E+02  0.94956485133E+02  0.00000000000E+00 0. -1.
         25    2    1    2    0    0 -0.61389270293E+02 -0.49007029111E+02  0.31446348257E+03  0.34739446427E+03  0.12500120212E+03 0.  0.
          2    1    1    2  501    0  0.31939022892E+02  0.52194706895E+02 -0.66353098991E+02  0.90261411228E+02  0.00000000000E+00 0. -1.
          1    1    1    2  502    0  0.29450247401E+02 -0.31876777836E+01  0.11937347375E+04  0.11941022158E+04  0.00000000000E+00 0. -1.
         22    1    3    3    0    0  0.34587148217E+02 -0.75884121035E+01  0.38556851865E+02  0.52349648000E+02  0.00000000000E+00 0. -1.
         22    1    3    3    0    0 -0.95976418510E+02 -0.41418617008E+02  0.27590663070E+03  0.29504481627E+03  0.00000000000E+00 0. -1.
</event>
<event>
 7    1  0.5553952E-006  0.3491051E+02  0.7818608E-02  0.1601540E+00
          2   -1    0    0  502    0  0.00000000000E+00  0.00000000000E+00  0.35477808081E+03  0.35477808081E+03  0.00000000000E+00 0. -1.
          1   -1    0    0  501    0 -0.00000000000E+00 -0.00000000000E+00 -0.94710162225E+03  0.94710162225E+03  0.00000000000E+00 0. -1.
         25    2    1    2    0    0  0.13916191141E+02 -0.47423575122E+01 -0.17290941146E+02  0.12704614635E+03  0.12500238528E+03 0.  0.
          2    1    1    2  501    0  0.55626571493E+01 -0.24630010434E+02 -0.87371457443E+03  0.87407936604E+03  0.00000000000E+00 0. -1.
          1    1    1    2  502    0 -0.19478848290E+02  0.29372367946E+02  0.29868197414E+03  0.30075419067E+03  0.00000000000E+00 0. -1.
         22    1    3    3    0    0  0.48607541849E+02 -0.49405838832E+02 -0.91550657019E+01  0.69910265793E+02  0.00000000000E+00 0.  1.
         22    1    3    3    0    0 -0.34691350708E+02  0.44663481320E+02 -0.81358754445E+01  0.57135880555E+02  0.00000000000E+00 0.  1.
</event>
<event>
 7    1  0.5553952E-006  0.7433216E+02  0.7818608E-02  0.1460939E+00
          2   -1    0    0  502    0  0.00000000000E+00  0.00000000000E+00  0.21872098684E+03  0.21872098684E+03  0.00000000000E+00 0. -1.
          1   -1    0    0  501    0 -0.00000000000E+00 -0.00000000000E+00 -0.93813205688E+03  0.93813205688E+03  0.00000000000E+00 0. -1.
         25    2    1    2    0    0  0.56809145113E+02 -0.77965214185E+02 -0.21497277299E+03  0.26672655850E+03  0.12499564108E+03 0.  0.
          2    1    1    2  501    0 -0.28941638316E+02  0.66864493642E+02 -0.69419773047E+03  0.69801072193E+03  0.00000000000E+00 0. -1.
          1    1    1    2  502    0 -0.27867506797E+02  0.11100720543E+02  0.18975943342E+03  0.19211576329E+03  0.00000000000E+00 0. -1.
         22    1    3    3    0    0  0.73837541665E+02 -0.30878091504E+02 -0.19847986531E+03  0.21400863540E+03  0.00000000000E+00 0. -1.
         22    1    3    3    0    0 -0.17028396552E+02 -0.47087122681E+02 -0.16492907677E+02  0.52717923092E+02  0.00000000000E+00 0. -1.
</event>
<event>
 7    1  0.5553952E-006  0.8207347E+02  0.7818608E-02  0.1376060E+00
          2   -1    0    0  502    0  0.00000000000E+00  0.00000000000E+00  0.17559976594E+04  0.17559976594E+04  0.00000000000E+00 0. -1.
          1   -1    0    0  501    0 -0.00000000000E+00 -0.00000000000E+00 -0.34018515258E+02  0.34018515258E+02  0.00000000000E+00 0. -1.
         25    2    1    2    0    0 -0.89144234980E+02 -0.37014078430E+02  0.93063843440E+03  0.94394392900E+03  0.12500203549E+03 0.  0.
          2    1    1    2  501    0  0.80756064753E+02 -0.14599363944E+02  0.37169230386E+02  0.90090149902E+02  0.00000000000E+00 0. -1.
          1    1    1    2  502    0  0.83881702273E+01  0.51613442374E+02  0.75417147934E+03  0.75598209574E+03  0.00000000000E+00 0. -1.
         22    1    3    3    0    0 -0.11231245603E+03 -0.58190519014E+02  0.75502409380E+03  0.76554660635E+03  0.00000000000E+00 0.  1.
         22    1    3    3    0    0  0.23168221045E+02  0.21176440584E+02  0.17561434061E+03  0.17839732265E+03  0.00000000000E+00 0.  1.
</event>
<event>
 7    1  0.5553952E-006  0.4907080E+02  0.7818608E-02  0.1453214E+00
          2   -1    0    0  502    0  0.00000000000E+00  0.00000000000E+00  0.30638044231E+03  0.30638044231E+03  0.00000000000E+00 0. -1.
          1   -1    0    0  501    0 -0.00000000000E+00 -0.00000000000E+00 -0.45761830238E+03  0.45761830238E+03  0.00000000000E+00 0. -1.
         25    2    1    2    0    0 -0.98493753713E+01 -0.14381221079E+02  0.12980551572E+02  0.12687658749E+03  0.12500137607E+03 0.  0.
          2    1    1    2  501    0 -0.31492199889E+02  0.38915046403E+02 -0.39663708913E+03  0.39978384155E+03  0.00000000000E+00 0. -1.
          1    1    1    2  502    0  0.41341575260E+02 -0.24533825324E+02  0.23241867749E+03  0.23733831565E+03  0.00000000000E+00 0. -1.
         22    1    3    3    0    0  0.34841801501E+02  0.16282793488E+02 -0.36841147514E+02  0.53257399916E+02  0.00000000000E+00 0. -1.
         22    1    3    3    0    0 -0.44691176873E+02 -0.30664014567E+02  0.49821699086E+02  0.73619187577E+02  0.00000000000E+00 0. -1.
</event>
<event>
 7    1  0.5553952E-006  0.5957287E+02  0.7818608E-02  0.1497400E+00
          2   -1    0    0  502    0  0.00000000000E+00  0.00000000000E+00  0.52954412620E+03  0.52954412620E+03  0.00000000000E+00 0. -1.
          1   -1    0    0  501    0 -0.00000000000E+00 -0.00000000000E+00 -0.13535228250E+04  0.13535228250E+04  0.00000000000E+00 0. -1.
         25    2    1    2    0    0  0.38358373941E+02 -0.16013570768E+02 -0.87260317302E+02  0.15800869666E+03  0.12499834376E+03 0.  0.
          2    1    1    2  501    0  0.12845304016E+01 -0.28892284383E+02 -0.12289023483E+04  0.12292426106E+04  0.00000000000E+00 0. -1.
          1    1    1    2  502    0 -0.39642904342E+02  0.44905855152E+02  0.49218396674E+03  0.49581564397E+03  0.00000000000E+00 0. -1.
         22    1    3    3    0    0 -0.28539047043E+02 -0.23231239214E+02 -0.82760196859E+02  0.90572721422E+02  0.00000000000E+00 0. -1.
         22    1    3    3    0    0  0.66897420984E+02  0.72176684459E+01 -0.45001204429E+01  0.67435975236E+02  0.00000000000E+00 0. -1.
</event>
<event>
 7    1  0.5553952E-006  0.1347142E+03  0.7818608E-02  0.1422429E+00
          2   -1    0    0  502    0  0.00000000000E+00  0.00000000000E+00  0.17027467191E+03  0.17027467191E+03  0.00000000000E+00 0. -1.
          1   -1    0    0  501    0 -0.00000000000E+00 -0.00000000000E+00 -0.11060966378E+04  0.11060966378E+04  0.00000000000E+00 0. -1.
         25    2    1    2    0    0 -0.12630981251E+03 -0.59567035084E+02 -0.61240235169E+03  0.64044195893E+03  0.12500744774E+03 0.  0.
          2    1    1    2  501    0  0.15053527764E+02 -0.16121366436E+02 -0.45038465960E+03  0.45092443796E+03  0.00000000000E+00 0. -1.
          1    1    1    2  502    0  0.11125628475E+03  0.75688401520E+02  0.12696504539E+03  0.18500491283E+03  0.00000000000E+00 0. -1.
         22    1    3    3    0    0 -0.48219043806E+02 -0.67505504643E+02 -0.14988471764E+03  0.17131111442E+03  0.00000000000E+00 0. -1.
         22    1    3    3    0    0 -0.78090768707E+02  0.79384695592E+01 -0.46251763406E+03  0.46913084451E+03  0.00000000000E+00 0. -1.
</event>
<event>
 7    1  0.5553952E-006  0.1155238E+03  0.7818608E-02  0.1429746E+00
          2   -1    0    0  502    0  0.00000000000E+00  0.00000000000E+00  0.10154340217E+04  0.10154340217E+04  0.00000000000E+00 0. -1.
          1   -1    0    0  501    0 -0.00000000000E+00 -0.00000000000E+00 -0.40373124467E+03  0.40373124467E+03  0.00000000000E+00 0. -1.
         25    2    1    2    0    0 -0.51639941564E+02  0.98762989093E+02  0.19717382667E+03  0.25869450934E+03  0.12499807863E+03 0.  0.
          2    1    1    2  501    0  0.30954888273E+02 -0.11156372166E+03 -0.36379123971E+03  0.38177052687E+03  0.00000000000E+00 0. -1.
          1    1    1    2  502    0  0.20685053291E+02  0.12800732570E+02  0.77832019009E+03  0.77870023018E+03  0.00000000000E+00 0. -1.
         22    1    3    3    0    0 -0.39079056828E+02 -0.20272521080E+02  0.79307134849E+02  0.90707052821E+02  0.00000000000E+00 0.  1.
         22    1    3    3    0    0 -0.12560884736E+02  0.11903551017E+03  0.11786669182E+03  0.16798745652E+03  0.00000000000E+00 0.  1.
</event>
<event>
 7    1  0.5553952E-006  0.2036256E+03  0.7818608E-02  0.1279498E+00
          2   -1    0    0  502    0  0.00000000000E+00  0.00000000000E+00  0.10515348384E+04  0.10515348384E+04  0.00000000000E+00 0. -1.
          1   -1    0    0  501    0 -0.00000000000E+00 -0.00000000000E+00 -0.47315448314E+03  0.47315448314E+03  0.00000000000E+00 0. -1.
         25    2    1    2    0    0  0.16218946409E+03 -0.81447246713E+02 -0.30585526645E+03  0.37697553095E+03  0.12499612257E+03 0.  0.
          2    1    1    2  501    0 -0.49761094829E+01 -0.49233059957E+02 -0.11636134663E+03  0.12644611045E+03  0.00000000000E+00 0. -1.
          1    1    1    2  502    0 -0.15721335461E+03  0.13068030667E+03  0.10005969683E+04  0.10212676801E+04  0.00000000000E+00 0. -1.
         22    1    3    3    0    0  0.16529269819E+03 -0.29868774898E+02 -0.22035504436E+03  0.27707429574E+03  0.00000000000E+00 0.  1.
         22    1    3    3    0    0 -0.31032341000E+01 -0.51578471815E+02 -0.85500222099E+02  0.99901235206E+02  0.00000000000E+00 0.  1.
</event>
<event>
 7    1  0.5553952E-006  0.2976860E+02  0.7818608E-02  0.1602698E+00
          2   -1    0    0  502    0  0.00000000000E+00  0.00000000000E+00  0.14631724322E+04  0.14631724322E+04  0.00000000000E+00 0. -1.
          1   -1    0    0  501    0 -0.00000000000E+00 -0.00000000000E+00 -0.59604628293E+02  0.59604628293E+02  0.00000000000E+00 0. -1.
         25    2    1    2    0    0  0.46730264433E+01 -0.11748888475E+02  0.77762747388E+03  0.78771147989E+03  0.12500005542E+03 0.  0.
          2    1    1    2  501    0 -0.28585124280E+02 -0.83102494557E+01 -0.50115277963E+02  0.58289884727E+02  0.00000000000E+00 0. -1.
          1    1    1    2  502    0  0.23912097837E+02  0.20059137931E+02  0.67605560802E+03  0.67677569591E+03  0.00000000000E+00 0. -1.
         22    1    3    3    0    0 -0.26035479102E+02 -0.69956827631E+01  0.33796932772E+02  0.43232145612E+02  0.00000000000E+00 0.  1.
         22    1    3    3    0    0  0.30708505545E+02 -0.47532057119E+01  0.74383054111E+03  0.74447933428E+03  0.00000000000E+00 0.  1.
</event>
<event>
 7    1  0.5553952E-006  0.5853187E+02  0.7818608E-02  0.1523767E+00
          2   -1    0    0  502    0  0.00000000000E+00  0.00000000000E+00  0.23928334403E+04  0.23928334403E+04  0.00000000000E+00 0. -1.
          1   -1    0    0  501    0 -0.00000000000E+00 -0.00000000000E+00 -0.46180944250E+03  0.46180944250E+03  0.00000000000E+00 0. -1.
         25    2    1    2    0    0 -0.56393219705E+02 -0.35852800171E+02  0.85944645667E+03  0.87105581862E+03  0.12499763503E+03 0.  0.
          2    1    1    2  501    0  0.22013861885E+02 -0.11026867400E+02 -0.45511878991E+03  0.45578428544E+03  0.00000000000E+00 0. -1.
          1    1    1    2  502    0  0.34379357820E+02  0.46879667571E+02  0.15266963311E+04  0.15278027788E+04  0.00000000000E+00 0. -1.
         22    1    3    3    0    0 -0.31612919216E+02 -0.31099157693E+02  0.83414569570E+03  0.83532363544E+03  0.00000000000E+00 0. -1.
         22    1    3    3    0    0 -0.24780300489E+02 -0.47536424782E+01  0.25300760964E+02  0.35732183176E+02  0.00000000000E+00 0. -1.
</event>
<event>
 7    1  0.5553952E-006  0.5542375E+02  0.7818608E-02  0.1508469E+00
          2   -1    0    0  502    0  0.00000000000E+00  0.00000000000E+00  0.42941281847E+02  0.42941281847E+02  0.00000000000E+00 0. -1.
          1   -1    0    0  501    0 -0.00000000000E+00 -0.00000000000E+00 -0.11221779671E+04  0.11221779671E+04  0.00000000000E+00 0. -1.
         25    2    1    2    0    0  0.54888755832E+02 -0.10563970727E+02 -0.97907649195E+03  0.98860536798E+03  0.12500169406E+03 0.  0.
          2    1    1    2  501    0 -0.45342422011E+02  0.37754955466E+02 -0.12515533140E+03  0.13836628518E+03  0.00000000000E+00 0. -1.
          1    1    1    2  502    0 -0.95463338212E+01 -0.27190984739E+02  0.24995138061E+02  0.38147595824E+02  0.00000000000E+00 0. -1.
         22    1    3    3    0    0  0.86672768012E+02 -0.97919464138E+01 -0.88528807265E+03  0.88957463010E+03  0.00000000000E+00 0.  1.
         22    1    3    3    0    0 -0.31784012180E+02 -0.77202431335E+00 -0.93788419297E+02  0.99030737885E+02  0.00000000000E+00 0.  1.
</event>
<event>
 7    1  0.5553952E-006  0.1477874E+03  0.7818608E-02  0.1317519E+00
          2   -1    0    0  502    0  0.00000000000E+00  0.00000000000E+00  0.11760824478E+04  0.11760824478E+04  0.00000000000E+00 0. -1.
          1   -1    0    0  501    0 -0.00000000000E+00 -0.00000000000E+00 -0.23709843584E+04  0.23709843584E+04  0.00000000000E+00 0. -1.
         25    2    1    2    0    0 -0.31595408147E+02  0.16366937998E+03 -0.46485922849E+02  0.21347642025E+03  0.12500122086E+03 0.  0.
          2    1    1    2  501    0 -0.13328214909E+02 -0.14681888213E+03 -0.22380501764E+04  0.22429003584E+04  0.00000000000E+00 0. -1.
          1    1    1    2  502    0  0.44923623056E+02 -0.16850497856E+02  0.10896341886E+04  0.10906900276E+04  0.00000000000E+00 0. -1.
         22    1    3    3    0    0 -0.20008188483E+02  0.16060030397E+03 -0.78074681155E+02  0.17968984690E+03  0.00000000000E+00 0.  1.
         22    1    3    3    0    0 -0.11587219664E+02  0.30690760138E+01  0.31588758306E+02  0.33786573345E+02  0.00000000000E+00 0.  1.
</event>
<event>
 7    1  0.5553952E-006  0.1492470E+03  0.7818608E-02  0.1272365E+00
          2   -1    0    0  502    0  0.00000000000E+00  0.00000000000E+00  0.21781293257E+04  0.21781293257E+04  0.00000000000E+00 0. -1.
          1   -1    0    0  501    0 -0.00000000000E+00 -0.00000000000E+00 -0.45920721574E+03  0.45920721574E+03  0.00000000000E+00 0. -1.
         25    2    1    2    0    0 -0.28012466011E+02 -0.13205324584E+03  0.18794249331E+03  0.26300387734E+03  0.12500360281E+03 0.  0.
          2    1    1    2  501    0  0.71057911334E+02 -0.13274404817E+02 -0.41561075371E+03  0.42185037061E+03  0.00000000000E+00 0. -1.
          1    1    1    2  502    0 -0.43045445323E+02  0.14532765065E+03  0.19465903704E+04  0.19524822935E+04  0.00000000000E+00 0. -1.
         22    1    3    3    0    0  0.26528245803E+02 -0.47306819169E+02  0.14246083795E+03  0.15243612864E+03  0.00000000000E+00 0. -1.
         22    1    3    3    0    0 -0.54540711814E+02 -0.84746426668E+02  0.45481655366E+02  0.11056774870E+03  0.00000000000E+00 0. -1.
</event>
<event>
 7    1  0.5553952E-006  0.6382241E+02  0.7818608E-02  0.1469702E+00
          2   -1    0    0  502    0  0.00000000000E+00  0.00000000000E+00  0.20424481983E+04  0.20424481983E+04  0.00000000000E+00 0. -1.
          1   -1    0    0  501    0 -0.00000000000E+00 -0.00000000000E+00 -0.78918898424E+03  0.78918898424E+03  0.00000000000E+00 0. -1.
         25    2    1    2    0    0  0.27425960159E+02  0.92119696702E+02  0.35663315406E+02  0.16166239493E+03  0.12499854423E+03 0.  0.
          2    1    1    2  501    0 -0.16637771314E+02 -0.61147087876E+02 -0.72466824857E+03  0.72743374425E+03  0.00000000000E+00 0. -1.
          1    1    1    2  502    0 -0.10788188845E+02 -0.30972608826E+02  0.19422641472E+04  0.19425410433E+04  0.00000000000E+00 0. -1.
         22    1    3    3    0    0  0.66699963753E+02  0.56733833779E+02 -0.14533686498E+02  0.88762836272E+02  0.00000000000E+00 0.  1.
         22    1    3    3    0    0 -0.39274003593E+02  0.35385862924E+02  0.50197001904E+02  0.72899558663E+02  0.00000000000E+00 0.  1.
</event>
<event>
 7    1  0.5553952E-006  0.1294077E+03  0.7818608E-02  0.1252523E+00
          2   -1    0    0  502    0  0.00000000000E+00  0.00000000000E+00  0.12490292121E+04  0.12490292121E+04  0.00000000000E+00 0. -1.
          1   -1    0    0  501    0 -0.00000000000E+00 -0.00000000000E+00 -0.12179885960E+03  0.12179885960E+03  0.00000000000E+00 0. -1.
         25    2    1    2    0    0 -0.14325211043E+03  0.95780998399E+02  0.24314138686E+03  0.32316872900E+03  0.12500050639E+03 0.  0.
          2    1    1    2  501    0  0.44552022008E+02 -0.11832800524E+03 -0.28386280249E+02  0.12958464568E+03  0.00000000000E+00 0. -1.
          1    1    1    2  502    0  0.98700088427E+02  0.22547006844E+02  0.91247524587E+03  0.91807469702E+03  0.00000000000E+00 0. -1.
         22    1    3    3    0    0 -0.32175303084E+02 -0.30757086635E+02  0.50829284488E+02  0.67563782224E+02  0.00000000000E+00 0. -1.
         22    1    3    3    0    0 -0.11107680735E+03  0.12653808503E+03  0.19231210237E+03  0.25560494677E+03  0.00000000000E+00 0. -1.
</event>
<event>
 7    1  0.5553952E-006  0.5805023E+02  0.7818608E-02  0.1415916E+00
          2   -1    0    0  502    0  0.00000000000E+00  0.00000000000E+00  0.14649741815E+04  0.14649741815E+04  0.00000000000E+00 0. -1.
          1   -1    0    0  501    0 -0.00000000000E+00 -0.00000000000E+00 -0.26788495228E+02  0.26788495228E+02  0.00000000000E+00 0. -1.
         25    2    1    2    0    0  0.47629590491E+02  0.89898654477E+02  0.58861815728E+03  0.61028393613E+03  0.12499920660E+03 0.  0.
          2    1    1    2  501    0 -0.67438920464E+01 -0.53394404112E+02  0.33119348444E+02  0.63192829592E+02  0.00000000000E+00 0. -1.
          1    1    1    2  502    0 -0.40885698444E+02 -0.36504250365E+02  0.81644818054E+03  0.81828591100E+03  0.00000000000E+00 0. -1.
         22    1    3    3    0    0 -0.16589823418E+02  0.45396568868E+02  0.43750861112E+03  0.44017025741E+03  0.00000000000E+00 0. -1.
         22    1    3    3    0    0  0.64219413909E+02  0.44502085609E+02  0.15110954616E+03  0.17011367872E+03  0.00000000000E+00 0. -1.
</event>
<event>
 7    1  0.5553952E-006  0.1131835E+03  0.7818608E-02  0.1298298E+00
          2   -1    0    0  502    0  0.00000000000E+00  0.00000000000E+00  0.17220172624E+04  0.17220172624E+04  0.00000000000E+00 0. -1.
          1   -1    0    0  501    0 -0.00000000000E+00 -0.00000000000E+00 -0.32933331648E+04  0.32933331648E+04  0.00000000000E+00 0. -1.
         25    2    1    2    0    0  0.92855218111E+01  0.61976792580E+02 -0.23104995696E+04  0.23147270505E+04  0.12500285411E+03 0.  0.
          2    1    1    2  501    0  0.72917064733E+02  0.15900564137E+02 -0.97743201188E+03  0.98027703437E+03  0.00000000000E+00 0. -1.
          1    1    1    2  502    0 -0.82202586544E+02 -0.77877356717E+02  0.17166156791E+04  0.17203463424E+04  0.00000000000E+00 0. -1.
         22    1    3    3    0    0 -0.27843558681E+02  0.33201550020E+02 -0.25247196632E+03  0.25616342530E+03  0.00000000000E+00 0.  1.
         22    1    3    3    0    0  0.37129080492E+02  0.28775242560E+02 -0.20580276033E+04  0.20585636252E+04  0.00000000000E+00 0.  1.
</event>
<event>
 7    1  0.5553952E-006  0.1752999E+03  0.7818608E-02  0.1331991E+00
          2   -1    0    0  502    0  0.00000000000E+00  0.00000000000E+00  0.59340832685E+03  0.59340832685E+03  0.00000000000E+00 0. -1.
          1   -1    0    0  501    0 -0.00000000000E+00 -0.00000000000E+00 -0.19109987237E+04  0.19109987237E+04  0.00000000000E+00 0. -1.
         25    2    1    2    0    0  0.77244849922E+02  0.13775665321E+03 -0.75570337980E+03  0.78208502799E+03  0.12500292164E+03 0.  0.
          2    1    1    2  501    0 -0.69159991731E+02 -0.17240336080E+03 -0.11339951187E+04  0.11491087644E+04  0.00000000000E+00 0. -1.
          1    1    1    2  502    0 -0.80848581913E+01  0.34646707589E+02  0.57210810167E+03  0.57321325811E+03  0.00000000000E+00 0. -1.
         22    1    3    3    0    0  0.80202599235E+02  0.25582486267E+02 -0.24065310566E+03  0.25495261872E+03  0.00000000000E+00 0. -1.
         22    1    3    3    0    0 -0.29577493132E+01  0.11217416695E+03 -0.51505027414E+03  0.52713240927E+03  0.00000000000E+00 0. -1.
</event>
<event>
 7    1  0.5553952E-006  0.2531455E+03  0.7818608E-02  0.1271151E+00
          2   -1    0    0  502    0  0.00000000000E+00  0.00000000000E+00  0.31807691282E+03  0.31807691282E+03  0.00000000000E+00 0. -1.
          1   -1    0    0  501    0 -0.00000000000E+00 -0.00000000000E+00 -0.70690892041E+03  0.70690892041E+03  0.00000000000E+00 0. -1.
         25    2    1    2    0    0  0.21529477449E+03 -0.93884564879E+00 -0.47591398339E+03  0.53709603291E+03  0.12500123047E+03 0.  0.
          2    1    1    2  501    0  0.42086798480E+02  0.93840588901E+01 -0.13879868824E+03  0.14534247495E+03  0.00000000000E+00 0. -1.
          1    1    1    2  502    0 -0.25738157297E+03 -0.84452132413E+01  0.22588066404E+03  0.34254732537E+03  0.00000000000E+00 0. -1.
         22    1    3    3    0    0 -0.55982916034E+01 -0.10975451551E+02 -0.10163148675E+03  0.10237558549E+03  0.00000000000E+00 0. -1.
         22    1    3    3    0    0  0.22089306610E+03  0.10036605902E+02 -0.37428249664E+03  0.43472044741E+03  0.00000000000E+00 0. -1.
</event>
<event>
 7    1  0.5553952E-006  0.1220824E+03  0.7818608E-02  0.1240362E+00
          2   -1    0    0  502    0  0.00000000000E+00  0.00000000000E+00  0.12200071213E+04  0.12200071213E+04  0.00000000000E+00 0. -1.
          1   -1    0    0  501    0 -0.00000000000E+00 -0.00000000000E+00 -0.32200530118E+03  0.32200530118E+03  0.00000000000E+00 0. -1.
         25    2    1    2    0    0  0.34561137401E+02  0.26449659576E+02  0.28372357641E+03  0.31307777651E+03  0.12499827848E+03 0.  0.
          2    1    1    2  501    0  0.47605758889E+02 -0.11674204953E+03 -0.29012202648E+03  0.31633179520E+03  0.00000000000E+00 0. -1.
          1    1    1    2  502    0 -0.82166896290E+02  0.90292389956E+02  0.90440027019E+03  0.91260285078E+03  0.00000000000E+00 0. -1.
         22    1    3    3    0    0  0.49741630499E+02  0.56802693406E+02  0.95113145532E+02  0.12143840511E+03  0.00000000000E+00 0. -1.
         22    1    3    3    0    0 -0.15180493098E+02 -0.30353033830E+02  0.18861043088E+03  0.19163937140E+03  0.00000000000E+00 0. -1.
</event>
<event>
 7    1  0.5553952E-006  0.1002562E+03  0.7818608E-02  0.1461124E+00
          2   -1    0    0  502    0  0.00000000000E+00  0.00000000000E+00  0.10680653543E+04  0.10680653543E+04  0.00000000000E+00 0. -1.
          1   -1    0    0  501    0 -0.00000000000E+00 -0.00000000000E+00 -0.15598983460E+03  0.15598983460E+03  0.00000000000E+00 0. -1.
         25    2    1    2    0    0  0.61224308372E+02 -0.61418969643E+02  0.30604322815E+03  0.34177298192E+03  0.12500243161E+03 0.  0.
          2    1    1    2  501    0 -0.83102609456E+02  0.57590724345E+02 -0.11942950782E+03  0.15648048622E+03  0.00000000000E+00 0. -1.
          1    1    1    2  502    0  0.21878301084E+02  0.38282452982E+01  0.72546179934E+03  0.72580172074E+03  0.00000000000E+00 0. -1.
         22    1    3    3    0    0  0.42515814327E+02  0.16595270323E+02  0.21772385041E+03  0.22245600127E+03  0.00000000000E+00 0. -1.
         22    1    3    3    0    0  0.18708494044E+02 -0.78014239966E+02  0.88319377745E+02  0.11931698065E+03  0.00000000000E+00 0. -1.
</event>
<event>
 7    1  0.5553952E-006  0.4078483E+02  0.7818608E-02  0.1549807E+00
          2   -1    0    0  502    0  0.00000000000E+00  0.00000000000E+00  0.13045513148E+04  0.13045513148E+04  0.00000000000E+00 0. -1.
          1   -1    0    0  501    0 -0.00000000000E+00 -0.00000000000E+00 -0.41225540279E+02  0.41225540279E+02  0.00000000000E+00 0. -1.
         25    2    1    2    0    0  0.62255501079E+02 -0.28142627650E+02  0.12011067850E+03  0.18629464207E+03  0.12494544277E+03 0.  0.
          2    1    1    2  501    0 -0.29484201174E+02  0.43521461503E+01  0.20817257053E+02  0.36354057356E+02  0.00000000000E+00 0. -1.
          1    1    1    2  502    0 -0.32771299905E+02  0.23790481500E+02  0.11223978390E+04  0.11231281557E+04  0.00000000000E+00 0. -1.
         22    1    3    3    0    0  0.32638813643E+02 -0.14114257630E+02  0.14232756357E+03  0.14670255546E+03  0.00000000000E+00 0.  1.
         22    1    3    3    0    0  0.29616687435E+02 -0.14028370021E+02 -0.22216885072E+02  0.39592086613E+02  0.00000000000E+00 0.  1.
</event>
<event>
 7    1  0.5553952E-006  0.4932775E+02  0.7818608E-02  0.1501328E+00
          2   -1    0    0  502    0  0.00000000000E+00  0.00000000000E+00  0.44188130424E+03  0.44188130424E+03  0.00000000000E+00 0. -1.
          1   -1    0    0  501    0 -0.00000000000E+00 -0.00000000000E+00 -0.11669423153E+03  0.11669423153E+03  0.00000000000E+00 0. -1.
         25    2    1    2    0    0 -0.44208711879E+01  0.55719132914E+02  0.11214346821E+03  0.17698513626E+03  0.12499366032E+03 0.  0.
          2    1    1    2  501    0  0.31033893428E+02 -0.13880760094E+02 -0.78665306403E+02  0.85697190581E+02  0.00000000000E+00 0. -1.
          1    1    1    2  502    0 -0.26613022240E+02 -0.41838372821E+02  0.29170891090E+03  0.29589320893E+03  0.00000000000E+00 0. -1.
         22    1    3    3    0    0  0.18922214166E+02  0.39477145528E+02 -0.15325279913E+02  0.46382749081E+02  0.00000000000E+00 0.  1.
         22    1    3    3    0    0 -0.23343085354E+02  0.16241987387E+02  0.12746874812E+03  0.13060238718E+03  0.00000000000E+00 0.  1.
</event>
<event>
 7    1  0.5553952E-006  0.2005354E+03  0.7818608E-02  0.1290062E+00
          2   -1    0    0  502    0  0.00000000000E+00  0.00000000000E+00  0.74724551521E+03  0.74724551521E+03  0.00000000000E+00 0. -1.
          1   -1    0    0  501    0 -0.00000000000E+00 -0.00000000000E+00 -0.16072660152E+04  0.16072660152E+04  0.00000000000E+00 0. -1.
         25    2    1    2    0    0 -0.15064613160E+03 -0.10981648938E+03 -0.25642293150E+03  0.34078145698E+03  0.12500145326E+03 0.  0.
          2    1    1    2  501    0  0.17995700031E+02 -0.41763960185E+02 -0.12938700432E+04  0.12946689779E+04  0.00000000000E+00 0. -1.
          1    1    1    2  502    0  0.13265043157E+03  0.15158044956E+03  0.69027247474E+03  0.71906109551E+03  0.00000000000E+00 0. -1.
         22    1    3    3    0    0 -0.32282951479E+02 -0.82941424421E+02 -0.52111546958E+02  0.10313623111E+03  0.00000000000E+00 0. -1.
         22    1    3    3    0    0 -0.11836318013E+03 -0.26875064955E+02 -0.20431138455E+03  0.23764522588E+03  0.00000000000E+00 0. -1.
</event>
<event>
 7    1  0.5553952E-006  0.9181049E+02  0.7818608E-02  0.1478202E+00
          2   -1    0    0  502    0  0.00000000000E+00  0.00000000000E+00  0.51135024901E+02  0.51135024901E+02  0.00000000000E+00 0. -1.
          1   -1    0    0  501    0 -0.00000000000E+00 -0.00000000000E+00 -0.22028049031E+04  0.22028049031E+04  0.00000000000E+00 0. -1.
         25    2    1    2    0    0 -0.27530725235E+01  0.79553348476E+02 -0.58906831157E+03  0.60742340109E+03  0.12500159135E+03 0.  0.
          2    1    1    2  501    0  0.17631146677E+02  0.12234063018E+02 -0.15528755725E+04  0.15530238483E+04  0.00000000000E+00 0. -1.
          1    1    1    2  502    0 -0.14878074154E+02 -0.91787411494E+02 -0.97259941443E+01  0.93492678651E+02  0.00000000000E+00 0. -1.
         22    1    3    3    0    0  0.19848055164E+01  0.10383715734E+03 -0.55860984308E+03  0.56818223440E+03  0.00000000000E+00 0.  1.
         22    1    3    3    0    0 -0.47378780400E+01 -0.24283808860E+02 -0.30458468486E+02  0.39241166695E+02  0.00000000000E+00 0.  1.
</event>
<event>
 7    1  0.5553952E-006  0.7529121E+02  0.7818608E-02  0.1386484E+00
          2   -1    0    0  502    0  0.00000000000E+00  0.00000000000E+00  0.13548460673E+04  0.13548460673E+04  0.00000000000E+00 0. -1.
          1   -1    0    0  501    0 -0.00000000000E+00 -0.00000000000E+00 -0.23868651203E+03  0.23868651203E+03  0.00000000000E+00 0. -1.
         25    2    1    2    0    0 -0.50234431349E+02 -0.12859634482E+02  0.10769401415E+04  0.10854091962E+04  0.12499674539E+03 0.  0.
          2    1    1    2  501    0  0.36602236276E+01  0.75202189888E+02 -0.22259768287E+03  0.23498615921E+03  0.00000000000E+00 0. -1.
          1    1    1    2  502    0  0.46574207722E+02 -0.62342555406E+02  0.26181709662E+03  0.27313722398E+03  0.00000000000E+00 0. -1.
         22    1    3    3    0    0  0.13896812741E+02  0.11468057961E+02  0.22894037001E+02  0.29133737968E+02  0.00000000000E+00 0. -1.
         22    1    3    3    0    0 -0.64131244091E+02 -0.24327692442E+02  0.10540461045E+04  0.10562754582E+04  0.00000000000E+00 0. -1.
</event>
<event>
 7    1  0.5553952E-006  0.7978656E+02  0.7818608E-02  0.1372665E+00
          2   -1    0    0  502    0  0.00000000000E+00  0.00000000000E+00  0.14529414766E+04  0.14529414766E+04  0.00000000000E+00 0. -1.
          1   -1    0    0  501    0 -0.00000000000E+00 -0.00000000000E+00 -0.28826094927E+03  0.28826094927E+03  0.00000000000E+00 0. -1.
         25    2    1    2    0    0 -0.58311022431E+01 -0.11829115063E+03  0.15703122416E+03  0.23305741883E+03  0.12502062646E+03 0.  0.
          2    1    1    2  501    0  0.33081242132E+02  0.44329343589E+02 -0.24593842425E+03  0.25208166892E+03  0.00000000000E+00 0. -1.
          1    1    1    2  502    0 -0.27250139889E+02  0.73961807037E+02  0.12535877275E+04  0.12560633382E+04  0.00000000000E+00 0. -1.
         22    1    3    3    0    0 -0.33277784645E+02 -0.79515854095E+02  0.16377574940E+03  0.18507479055E+03  0.00000000000E+00 0. -1.
         22    1    3    3    0    0  0.27446682402E+02 -0.38775296531E+02 -0.67445252444E+01  0.47982628280E+02  0.00000000000E+00 0. -1.
</event>
<event>
 7    1  0.5553952E-006  0.6694760E+02  0.7818608E-02  0.1504748E+00
          2   -1    0    0  502    0  0.00000000000E+00  0.00000000000E+00  0.34279287727E+02  0.34279287727E+02  0.00000000000E+00 0. -1.
          1   -1    0    0  501    0 -0.00000000000E+00 -0.00000000000E+00 -0.19809354564E+04  0.19809354564E+04  0.00000000000E+00 0. -1.
         25    2    1    2    0    0 -0.48250496485E+02 -0.15213724564E+02 -0.22359629868E+03  0.26110901200E+03  0.12499217391E+03 0.  0.
          2    1    1    2  501    0  0.67602181030E+02  0.23763662835E+00 -0.17278495923E+04  0.17291715719E+04  0.00000000000E+00 0. -1.
          1    1    1    2  502    0 -0.19351684545E+02  0.14976087935E+02  0.47897223627E+01  0.24934160200E+02  0.00000000000E+00 0. -1.
         22    1    3    3    0    0 -0.16400131273E+02 -0.47024084290E+02 -0.20735812637E+03  0.21325482734E+03  0.00000000000E+00 0. -1.
         22    1    3    3    0    0 -0.31850365212E+02  0.31810359726E+02 -0.16238172306E+02  0.47854184664E+02  0.00000000000E+00 0. -1.
</event>
<event>
 7    1  0.5553952E-006  0.1430671E+03  0.7818608E-02  0.1395827E+00
          2   -1    0    0  502    0  0.00000000000E+00  0.00000000000E+00  0.95114872943E+02  0.95114872943E+02  0.00000000000E+00 0. -1.
          1   -1    0    0  501    0 -0.00000000000E+00 -0.00000000000E+00 -0.10879523437E+04  0.10879523437E+04  0.00000000000E+00 0. -1.
         25    2    1    2    0    0  0.11611313834E+03 -0.10767126572E+03 -0.61131545808E+02  0.21077776550E+03  0.12495934611E+03 0.  0.
          2    1    1    2  501    0 -0.11593374231E+03  0.82104465410E+02 -0.93569041950E+03  0.94641340702E+03  0.00000000000E+00 0. -1.
          1    1    1    2  502    0 -0.17939603430E+00  0.25566800312E+02  0.39844945713E+01  0.25876044097E+02  0.00000000000E+00 0. -1.
         22    1    3    3    0    0  0.48017965374E+02  0.16863045940E+02  0.10232276229E+02  0.51911335890E+02  0.00000000000E+00 0.  1.
         22    1    3    3    0    0  0.68095172968E+02 -0.12453431166E+03 -0.71363822037E+02  0.15886642961E+03  0.00000000000E+00 0.  1.
</event>
<event>
 7    1  0.5553952E-006  0.8334962E+02  0.7818608E-02  0.1404360E+00
          2   -1    0    0  502    0  0.00000000000E+00  0.00000000000E+00  0.78932623195E+03  0.78932623195E+03  0.00000000000E+00 0. -1.
          1   -1    0    0  501    0 -0.00000000000E+00 -0.00000000000E+00 -0.47841886568E+03  0.47841886568E+03  0.00000000000E+00 0. -1.
         25    2    1    2    0    0 -0.55056122730E+02  0.20649290446E+01 -0.12844704845E+03  0.18751675659E+03  0.12501379590E+03 0.  0.
          2    1    1    2  501    0 -0.22277965740E+02 -0.34442104838E+02 -0.31679790447E+03  0.31944244962E+03  0.00000000000E+00 0. -1.
          1    1    1    2  502    0  0.77334088471E+02  0.32377175793E+02  0.75615231919E+03  0.76078589141E+03  0.00000000000E+00 0. -1.
         22    1    3    3    0    0 -0.39000181547E+02 -0.17106996240E+02 -0.14911309888E+03  0.15507540017E+03  0.00000000000E+00 0. -1.
         22    1    3    3    0    0 -0.16055941183E+02  0.19171925285E+02  0.20666050424E+02  0.32441356422E+02  0.00000000000E+00 0. -1.
</event>
<event>
 7    1  0.5553952E-006  0.1163568E+03  0.7818608E-02  0.1287445E+00
          2   -1    0    0  502    0  0.00000000000E+00  0.00000000000E+00  0.29854245196E+03  0.29854245196E+03  0.00000000000E+00 0. -1.
          1   -1    0    0  501    0 -0.00000000000E+00 -0.00000000000E+00 -0.43601299452E+03  0.43601299452E+03  0.00000000000E+00 0. -1.
         25    2    1    2    0    0  0.19254181305E+02 -0.34950249898E+02  0.15570221823E+03  0.20362011866E+03  0.12500291396E+03 0.  0.
          2    1    1    2  501    0 -0.57560697873E+02  0.10555205463E+03 -0.38826796561E+03  0.40645600414E+03  0.00000000000E+00 0. -1.
          1    1    1    2  502    0  0.38306516569E+02 -0.70601804731E+02  0.95095204829E+02  0.12447932368E+03  0.00000000000E+00 0. -1.
         22    1    3    3    0    0 -0.43337521855E+02  0.30566876971E+01  0.10751288522E+03  0.11595906445E+03  0.00000000000E+00 0.  1.
         22    1    3    3    0    0  0.62591703160E+02 -0.38006937595E+02  0.48189333011E+02  0.87661054214E+02  0.00000000000E+00 0.  1.
</event>
<event>
 7    1  0.5553952E-006  0.3479789E+02  0.7818608E-02  0.1610330E+00
          2   -1    0    0  502    0  0.00000000000E+00  0.00000000000E+00  0.19216875041E+03  0.19216875041E+03  0.00000000000E+00 0. -1.
          1   -1    0    0  501    0 -0.00000000000E+00 -0.00000000000E+00 -0.15941728520E+03  0.15941728520E+03  0.00000000000E+00 0. -1.
         25    2    1    2    0    0 -0.41282661878E+02 -0.39971481176E+02  0.10021411889E+03  0.17020475142E+03  0.12499924120E+03 0.  0.
          2    1    1    2  501    0  0.20788931562E+02  0.27410493948E+02 -0.11934332351E+03  0.12420283298E+03  0.00000000000E+00 0. -1.
          1    1    1    2  502    0  0.20493730316E+02  0.12560987228E+02  0.51880669823E+02  0.57178451218E+02  0.00000000000E+00 0. -1.
         22    1    3    3    0    0 -0.51893449074E+02  0.19310957574E+02  0.25053528638E+01  0.55426707752E+02  0.00000000000E+00 0. -1.
         22    1    3    3    0    0  0.10610787196E+02 -0.59282438750E+02  0.97708766030E+02  0.11477804367E+03  0.00000000000E+00 0. -1.
</event>
<event>
 7    1  0.5553952E-006  0.4345097E+02  0.7818608E-02  0.1576486E+00
          2   -1    0    0  502    0  0.00000000000E+00  0.00000000000E+00  0.25949152556E+04  0.25949152556E+04  0.00000000000E+00 0. -1.
          1   -1    0    0  501    0 -0.00000000000E+00 -0.00000000000E+00 -0.19129515371E+02  0.19129515371E+02  0.00000000000E+00 0. -1.
         25    2    1    2    0    0 -0.54873555591E+02 -0.27747728414E+02  0.32672539792E+03  0.35518896903E+03  0.12501469731E+03 0.  0.
          2    1    1    2  501    0  0.23551022080E+02 -0.20361407296E+01  0.25113197031E+02  0.34488681843E+02  0.00000000000E+00 0. -1.
          1    1    1    2  502    0  0.31322533510E+02  0.29783869143E+02  0.22239471453E+04  0.22243671201E+04  0.00000000000E+00 0. -1.
         22    1    3    3    0    0 -0.55229434049E+02 -0.17650233680E+02  0.33630453375E+03  0.34126611398E+03  0.00000000000E+00 0. -1.
         22    1    3    3    0    0  0.35587845824E+00 -0.10097494734E+02 -0.95791358314E+01  0.13922855047E+02  0.00000000000E+00 0. -1.
</event>
<event>
 7    1  0.5553952E-006  0.6627354E+02  0.7818608E-02  0.1475484E+00
          2   -1    0    0  502    0  0.00000000000E+00  0.00000000000E+00  0.13419006413E+04  0.13419006413E+04  0.00000000000E+00 0. -1.
          1   -1    0    0  501    0 -0.00000000000E+00 -0.00000000000E+00 -0.19345964692E+04  0.19345964692E+04  0.00000000000E+00 0. -1.
         25    2    1    2    0    0 -0.31094442315E+00 -0.87852321433E+02  0.14502394283E+02  0.15347226803E+03  0.12500116218E+03 0.  0.
          2    1    1    2  501    0  0.18160420305E+02  0.24264591464E+02 -0.18641213521E+04  0.18643677177E+04  0.00000000000E+00 0. -1.
          1    1    1    2  502    0 -0.17849475881E+02  0.63587729969E+02  0.12569231300E+04  0.12586571248E+04  0.00000000000E+00 0. -1.
         22    1    3    3    0    0  0.35066408243E+02 -0.10081505588E+03  0.32692161253E+02  0.11163380261E+03  0.00000000000E+00 0. -1.
         22    1    3    3    0    0 -0.35377352666E+02  0.12962734442E+02 -0.18189766970E+02  0.41838465415E+02  0.00000000000E+00 0. -1.
</event>
<event>
 7    1  0.5553952E-006  0.3664421E+02  0.7818608E-02  0.1536882E+00
          2   -1    0    0  502    0  0.00000000000E+00  0.00000000000E+00  0.17941157275E+04  0.17941157275E+04  0.00000000000E+00 0. -1.
          1   -1    0    0  501    0 -0.00000000000E+00 -0.00000000000E+00 -0.69295210981E+03  0.69295210981E+03  0.00000000000E+00 0. -1.
         25    2    1    2    0    0 -0.47112005312E+02  0.13367170759E+02 -0.18740480490E+03  0.23052898694E+03  0.12499932249E+03 0.  0.
          2    1    1    2  501    0  0.16680043111E+02 -0.32729151575E+02 -0.48310434982E+03  0.48449895151E+03  0.00000000000E+00 0. -1.
          1    1    1    2  502    0  0.30431962201E+02  0.19361980817E+02  0.17716727725E+04  0.17720398989E+04  0.00000000000E+00 0. -1.
         22    1    3    3    0    0 -0.87903334443E+01 -0.24946207285E+02 -0.17223844375E+03  0.17425746677E+03  0.00000000000E+00 0.  1.
         22    1    3    3    0    0 -0.38321671868E+02  0.38313378043E+02 -0.15166361152E+02  0.56271520172E+02  0.00000000000E+00 0.  1.
</event>
<event>
 7    1  0.5553952E-006  0.3794557E+02  0.7818608E-02  0.1540534E+00
          2   -1    0    0  502    0  0.00000000000E+00  0.00000000000E+00  0.53885857990E+02  0.53885857990E+02  0.00000000000E+00 0. -1.
          1   -1    0    0  501    0 -0.00000000000E+00 -0.00000000000E+00 -0.13745725125E+04  0.13745725125E+04  0.00000000000E+00 0. -1.
         25    2    1    2    0    0  0.49443487554E+02 -0.42891952907E+02 -0.27401343645E+03  0.30820897348E+03  0.12500011958E+03 0.  0.
          2    1    1    2  501    0 -0.32591480893E+02  0.97291395964E+01 -0.10737190716E+04  0.10742576532E+04  0.00000000000E+00 0. -1.
          1    1    1    2  502    0 -0.16852006660E+02  0.33162813311E+02  0.27045853455E+02  0.45991743871E+02  0.00000000000E+00 0. -1.
         22    1    3    3    0    0  0.86987570182E+02 -0.40750567719E+01 -0.17129824689E+03  0.19216277694E+03  0.00000000000E+00 0.  1.
         22    1    3    3    0    0 -0.37544082628E+02 -0.38816896135E+02 -0.10271518956E+03  0.11604619655E+03  0.00000000000E+00 0.  1.
</event>
<event>
 7    1  0.5553952E-006  0.4790515E+03  0.7818608E-02  0.1211381E+00
          2   -1    0    0  502    0  0.00000000000E+00  0.00000000000E+00  0.15063151203E+04  0.15063151203E+04  0.00000000000E+00 0. -1.
          1   -1    0    0  501    0 -0.00000000000E+00 -0.00000000000E+00 -0.11695549907E+04  0.11695549907E+04  0.00000000000E+00 0. -1.
         25    2    1    2    0    0 -0.15687675719E+03  0.44252199524E+03  0.82214627358E+03  0.95497921036E+03  0.12499905537E+03 0.  0.
          2    1    1    2  501    0  0.12114626583E+03 -0.46415784468E+03 -0.10501798232E+04  0.11545547123E+04  0.00000000000E+00 0. -1.
          1    1    1    2  502    0  0.35730491356E+02  0.21635849442E+02  0.56479367928E+03  0.56633618827E+03  0.00000000000E+00 0. -1.
         22    1    3    3    0    0 -0.18455580904E+02  0.74197304169E+02  0.59759330317E+02  0.97041362173E+02  0.00000000000E+00 0.  1.
         22    1    3    3    0    0 -0.13842117628E+03  0.36832469107E+03  0.76238694326E+03  0.85793784819E+03  0.00000000000E+00 0.  1.
</event>
<event>
 7    1  0.5553952E-006  0.7048861E+02  0.7818608E-02  0.1439648E+00
          2   -1    0    0  502    0  0.00000000000E+00  0.00000000000E+00  0.60126587562E+03  0.60126587562E+03  0.00000000000E+00 0. -1.
          1   -1    0    0  501    0 -0.00000000000E+00 -0.00000000000E+00 -0.10448435983E+04  0.10448435983E+04  0.00000000000E+00 0. -1.
         25    2    1    2    0    0  0.11335360474E+01 -0.35294177044E+02  0.76462246005E+02  0.15072669890E+03  0.12500039544E+03 0.  0.
          2    1    1    2  501    0 -0.16589868123E+02  0.68914139092E+02 -0.10057603103E+04  0.10082550193E+04  0.00000000000E+00 0. -1.
          1    1    1    2  502    0  0.15456332076E+02 -0.33619962048E+02  0.48572034163E+03  0.48712775565E+03  0.00000000000E+00 0. -1.
         22    1    3    3    0    0  0.59477289967E+02 -0.36363624752E+02  0.54072242788E+02  0.88225102250E+02  0.00000000000E+00 0.  1.
         22    1    3    3    0    0 -0.58343753919E+02  0.10694477080E+01  0.22390003217E+02  0.62501596650E+02  0.00000000000E+00 0.  1.
</event>
<event>
 7    1  0.1137731E-005  0.7598036E+02  0.7818608E-02  0.1343315E+00
          2   -1    0    0  502    0  0.00000000000E+00  0.00000000000E+00  0.11486815833E+04  0.11486815833E+04  0.00000000000E+00 0. -1.
          1   -1    0    0  501    0 -0.00000000000E+00 -0.00000000000E+00 -0.10678386914E+04  0.10678386914E+04  0.00000000000E+00 0. -1.
         25    2    1    2    0    0  0.13391540451E+03 -0.67045154325E+02 -0.60272452439E+03  0.63350677159E+03  0.12500235626E+03 0.  0.
          2    1    1    2  501    0 -0.68930368448E+02  0.27967650507E+02 -0.44536629571E+03  0.45153595928E+03  0.00000000000E+00 0. -1.
          1    1    1    2  502    0 -0.64985036061E+02  0.39077503817E+02  0.11289337120E+04  0.11314775438E+04  0.00000000000E+00 0. -1.
         22    1    3    3    0    0  0.15658369507E+03 -0.48623875368E+02 -0.47556632876E+03  0.50303684544E+03  0.00000000000E+00 0. -1.
         22    1    3    3    0    0 -0.22668290562E+02 -0.18421278956E+02 -0.12715819563E+03  0.13046992615E+03  0.00000000000E+00 0. -1.
</event>
<event>
 7    1  0.5553952E-006  0.7445433E+02  0.7818608E-02  0.1370410E+00
          2   -1    0    0  502    0  0.00000000000E+00  0.00000000000E+00  0.98101387915E+03  0.98101387915E+03  0.00000000000E+00 0. -1.
          1   -1    0    0  501    0 -0.00000000000E+00 -0.00000000000E+00 -0.22136704151E+03  0.22136704151E+03  0.00000000000E+00 0. -1.
         25    2    1    2    0    0  0.39730063659E+02 -0.67437104710E+02  0.67600202174E+02  0.16223859991E+03  0.12500133966E+03 0.  0.
          2    1    1    2  501    0  0.20399952853E+02  0.73013485987E+02 -0.16467920182E+03  0.18129083464E+03  0.00000000000E+00 0. -1.
          1    1    1    2  502    0 -0.60130016511E+02 -0.55763812779E+01  0.85672583729E+03  0.85885148611E+03  0.00000000000E+00 0. -1.
         22    1    3    3    0    0  0.72428200609E+02 -0.26029125296E+02  0.61017155238E+00  0.76965784064E+02  0.00000000000E+00 0.  1.
         22    1    3    3    0    0 -0.32698136951E+02 -0.41407979413E+02  0.66990030622E+02  0.85272815843E+02  0.00000000000E+00 0.  1.
</event>
<event>
 7    1  0.5553952E-006  0.6817667E+02  0.7818608E-02  0.1515441E+00
          2   -1    0    0  502    0  0.00000000000E+00  0.00000000000E+00  0.30783214178E+04  0.30783214178E+04  0.00000000000E+00 0. -1.
          1   -1    0    0  501    0 -0.00000000000E+00 -0.00000000000E+00 -0.23339427363E+03  0.23339427363E+03  0.00000000000E+00 0. -1.
         25    2    1    2    0    0 -0.58188860622E+02 -0.66175792440E+01  0.56401813912E+02  0.14911793802E+03  0.12500103588E+03 0.  0.
          2    1    1    2  501    0 -0.37966112848E+01 -0.22024061505E+02 -0.18597536951E+03  0.18731340477E+03  0.00000000000E+00 0. -1.
          1    1    1    2  502    0  0.61985471907E+02  0.28641640749E+02  0.29745006998E+04  0.29752843486E+04  0.00000000000E+00 0. -1.
         22    1    3    3    0    0 -0.69148895247E+02 -0.21425825724E+02 -0.16227290127E+02  0.74188682875E+02  0.00000000000E+00 0. -1.
         22    1    3    3    0    0  0.10960034625E+02  0.14808246480E+02  0.72629104039E+02  0.74929255143E+02  0.00000000000E+00 0. -1.
</event>
<event>
 7    1  0.5553952E-006  0.1739074E+03  0.7818608E-02  0.1363819E+00
          2   -1    0    0  502    0  0.00000000000E+00  0.00000000000E+00  0.10761004233E+04  0.10761004233E+04  0.00000000000E+00 0. -1.
          1   -1    0    0  501    0 -0.00000000000E+00 -0.00000000000E+00 -0.23228166938E+03  0.23228166938E+03  0.00000000000E+00 0. -1.
         25    2    1    2    0    0  0.15998072986E+03 -0.53949762807E+02  0.24356731176E+03  0.32163073859E+03  0.12496753902E+03 0.  0.
          2    1    1    2  501    0  0.13020097810E+02  0.24006545881E+02 -0.18250953813E+03  0.18454150943E+03  0.00000000000E+00 0. -1.
          1    1    1    2  502    0 -0.17300082767E+03  0.29943216926E+02  0.78276098026E+03  0.80220984464E+03  0.00000000000E+00 0. -1.
         22    1    3    3    0    0  0.48060386130E+02 -0.51680667292E+02  0.22905580547E+02  0.74198097731E+02  0.00000000000E+00 0.  1.
         22    1    3    3    0    0  0.11192034373E+03 -0.22690955146E+01  0.22066173122E+03  0.24743264085E+03  0.00000000000E+00 0.  1.
</event>
<event>
 7    1  0.5553952E-006  0.6979619E+02  0.7818608E-02  0.1465030E+00
          2   -1    0    0  502    0  0.00000000000E+00  0.00000000000E+00  0.42005330161E+03  0.42005330161E+03  0.00000000000E+00 0. -1.
          1   -1    0    0  501    0 -0.00000000000E+00 -0.00000000000E+00 -0.85535436630E+03  0.85535436630E+03  0.00000000000E+00 0. -1.
         25    2    1    2    0    0 -0.41162028788E+02 -0.12309367106E+02 -0.37710404209E+03  0.39959752325E+03  0.12499955555E+03 0.  0.
          2    1    1    2  501    0 -0.17859263541E+02 -0.25357073054E+02 -0.46348357883E+03  0.46452014197E+03  0.00000000000E+00 0. -1.
          1    1    1    2  502    0  0.59021292328E+02  0.37666440159E+02  0.40528655623E+03  0.41129000270E+03  0.00000000000E+00 0. -1.
         22    1    3    3    0    0 -0.78314791683E+02 -0.17740033429E+02 -0.15730812309E+03  0.17661755568E+03  0.00000000000E+00 0. -1.
         22    1    3    3    0    0  0.37152762895E+02  0.54306663231E+01 -0.21979591900E+03  0.22297996757E+03  0.00000000000E+00 0. -1.
</event>
<event>
 7    1  0.5553952E-006  0.1473226E+03  0.7818608E-02  0.1382251E+00
          2   -1    0    0  502    0  0.00000000000E+00  0.00000000000E+00  0.10509527134E+04  0.10509527134E+04  0.00000000000E+00 0. -1.
          1   -1    0    0  501    0 -0.00000000000E+00 -0.00000000000E+00 -0.19858329040E+04  0.19858329040E+04  0.00000000000E+00 0. -1.
         25    2    1    2    0    0  0.26624667300E+02 -0.11850581281E+03  0.12479201658E+03  0.21436084708E+03  0.12500009912E+03 0.  0.
          2    1    1    2  501    0 -0.22971717230E+02  0.14595903580E+03 -0.19380180632E+04  0.19436423933E+04  0.00000000000E+00 0. -1.
          1    1    1    2  502    0 -0.36529500698E+01 -0.27453222994E+02  0.87834585598E+03  0.87878237705E+03  0.00000000000E+00 0. -1.
         22    1    3    3    0    0  0.56826442871E+02 -0.77107946943E+02  0.13149212580E+03  0.16268085086E+03  0.00000000000E+00 0.  1.
         22    1    3    3    0    0 -0.30201775572E+02 -0.41397865864E+02 -0.67001092111E+01  0.51679996219E+02  0.00000000000E+00 0.  1.
</event>
<event>
 7    1  0.5553952E-006  0.8676462E+02  0.7818608E-02  0.1377707E+00
          2   -1    0    0  502    0  0.00000000000E+00  0.00000000000E+00  0.28001631083E+02  0.28001631083E+02  0.00000000000E+00 0. -1.
          1   -1    0    0  501    0 -0.00000000000E+00 -0.00000000000E+00 -0.26669097988E+04  0.26669097988E+04  0.00000000000E+00 0. -1.
         25    2    1    2    0    0  0.63757831336E+02 -0.61558276835E+02 -0.16216118237E+04  0.16288351649E+04  0.12499842116E+03 0.  0.
          2    1    1    2  501    0 -0.22549428896E+02  0.87699426694E+02 -0.10130526005E+04  0.10170915581E+04  0.00000000000E+00 0. -1.
          1    1    1    2  502    0 -0.41208402440E+02 -0.26141149860E+02 -0.42437435505E+01  0.48984706868E+02  0.00000000000E+00 0. -1.
         22    1    3    3    0    0  0.74087873674E+02  0.14629156810E+02 -0.88805871363E+03  0.89126388018E+03  0.00000000000E+00 0.  1.
         22    1    3    3    0    0 -0.10330042338E+02 -0.76187433645E+02 -0.73355311003E+03  0.73757128473E+03  0.00000000000E+00 0.  1.
</event>
<event>
 7    1  0.5553952E-006  0.9490575E+02  0.7818608E-02  0.1352102E+00
          2   -1    0    0  502    0  0.00000000000E+00  0.00000000000E+00  0.40735775589E+03  0.40735775589E+03  0.00000000000E+00 0. -1.
          1   -1    0    0  501    0 -0.00000000000E+00 -0.00000000000E+00 -0.63334214411E+03  0.63334214411E+03  0.00000000000E+00 0. -1.
         25    2    1    2    0    0 -0.10008325151E+03  0.59226481676E+02  0.44408072629E+02  0.17640766066E+03  0.12499260962E+03 0.  0.
          2    1    1    2  501    0  0.63401281757E+01 -0.54873195139E+02 -0.55853142726E+03  0.56125628728E+03  0.00000000000E+00 0. -1.
          1    1    1    2  502    0  0.93743123337E+02 -0.43532865370E+01  0.28813896641E+03  0.30303595206E+03  0.00000000000E+00 0. -1.
         22    1    3    3    0    0 -0.94228223205E+02  0.62855160162E+02  0.80950411911E+02  0.13922175978E+03  0.00000000000E+00 0. -1.
         22    1    3    3    0    0 -0.58550283074E+01 -0.36286784856E+01 -0.36542339282E+02  0.37185900880E+02  0.00000000000E+00 0. -1.
</event>
<event>
 7    1  0.5553952E-006  0.1182750E+03  0.7818608E-02  0.1318269E+00
          2   -1    0    0  502    0  0.00000000000E+00  0.00000000000E+00  0.21715168165E+04  0.21715168165E+04  0.00000000000E+00 0. -1.
          1   -1    0    0  501    0 -0.00000000000E+00 -0.00000000000E+00 -0.24009898829E+03  0.24009898829E+03  0.00000000000E+00 0. -1.
         25    2    1    2    0    0  0.67382571160E+02 -0.10450315127E+03  0.12826278957E+03  0.21803367378E+03  0.12500408070E+03 0.  0.
          2    1    1    2  501    0 -0.95392629201E+01  0.11866106820E+03 -0.17657545559E+03  0.21295618836E+03  0.00000000000E+00 0. -1.
          1    1    1    2  502    0 -0.57843308240E+02 -0.14157916926E+02  0.19797304942E+04  0.19806259426E+04  0.00000000000E+00 0. -1.
         22    1    3    3    0    0 -0.66465335459E+00  0.19347722380E+02  0.56130463924E+02  0.59375121943E+02  0.00000000000E+00 0.  1.
         22    1    3    3    0    0  0.68047224515E+02 -0.12385087365E+03  0.72132325647E+02  0.15865855184E+03  0.00000000000E+00 0.  1.
</event>
<event>
 7    1  0.5553952E-006  0.1022916E+03  0.7818608E-02  0.1313247E+00
          2   -1    0    0  502    0  0.00000000000E+00  0.00000000000E+00  0.51892977399E+03  0.51892977399E+03  0.00000000000E+00 0. -1.
          1   -1    0    0  501    0 -0.00000000000E+00 -0.00000000000E+00 -0.20778568162E+03  0.20778568162E+03  0.00000000000E+00 0. -1.
         25    2    1    2    0    0  0.29224126896E+02  0.10541069308E+03  0.30540198349E+03  0.34765086680E+03  0.12500115942E+03 0.  0.
          2    1    1    2  501    0 -0.71728584016E+02 -0.66559283418E+01 -0.16343983425E+03  0.17861094750E+03  0.00000000000E+00 0. -1.
          1    1    1    2  502    0  0.42504457120E+02 -0.98754764741E+02  0.16918194313E+03  0.20045364131E+03  0.00000000000E+00 0. -1.
         22    1    3    3    0    0  0.65192506147E+02  0.10389711163E+03  0.27270059252E+03  0.29901552773E+03  0.00000000000E+00 0. -1.
         22    1    3    3    0    0 -0.35968379251E+02  0.15135814527E+01  0.32701390967E+02  0.48635339065E+02  0.00000000000E+00 0. -1.
</event>
<event>
 7    1  0.5553952E-006  0.6510169E+02  0.7818608E-02  0.1378564E+00
          2   -1    0    0  502    0  0.00000000000E+00  0.00000000000E+00  0.11728227742E+03  0.11728227742E+03  0.00000000000E+00 0. -1.
          1   -1    0    0  501    0 -0.00000000000E+00 -0.00000000000E+00 -0.23314034400E+03  0.23314034400E+03  0.00000000000E+00 0. -1.
         25    2    1    2    0    0  0.14538096350E+02  0.14448567002E+02 -0.27009971265E+02  0.12951495708E+03  0.12499787288E+03 0.  0.
          2    1    1    2  501    0  0.14167875500E+02  0.63011753795E+02 -0.11699337905E+03  0.13363629954E+03  0.00000000000E+00 0. -1.
          1    1    1    2  502    0 -0.28705971850E+02 -0.77460320797E+02  0.28145283739E+02  0.87271364803E+02  0.00000000000E+00 0. -1.
         22    1    3    3    0    0  0.50442244999E+02  0.10342760245E+02  0.31777741049E+02  0.60507996135E+02  0.00000000000E+00 0.  1.
         22    1    3    3    0    0 -0.35904148649E+02  0.41058067566E+01 -0.58787712314E+02  0.69006960942E+02  0.00000000000E+00 0.  1.
</event>
<event>
 7    1  0.5553952E-006  0.1352029E+03  0.7818608E-02  0.1256986E+00
          2   -1    0    0  502    0  0.00000000000E+00  0.00000000000E+00  0.90442906086E+03  0.90442906086E+03  0.00000000000E+00 0. -1.
          1   -1    0    0  501    0 -0.00000000000E+00 -0.00000000000E+00 -0.60971266707E+03  0.60971266707E+03  0.00000000000E+00 0. -1.
         25    2    1    2    0    0 -0.13775356796E+03 -0.17712657251E+03 -0.52351054103E+02  0.26211861143E+03  0.12496265610E+03 0.  0.
          2    1    1    2  501    0  0.62110497182E+02  0.68829394632E+02 -0.44218127420E+03  0.45179583739E+03  0.00000000000E+00 0. -1.
          1    1    1    2  502    0  0.75643070778E+02  0.10829717787E+03  0.78924872210E+03  0.80022727911E+03  0.00000000000E+00 0. -1.
         22    1    3    3    0    0 -0.15530388951E+03 -0.16017809488E+03 -0.23508983744E+02  0.22434124118E+03  0.00000000000E+00 0.  1.
         22    1    3    3    0    0  0.17550321555E+02 -0.16948477628E+02 -0.28842070359E+02  0.37777370253E+02  0.00000000000E+00 0.  1.
</event>
<event>
 7    1  0.5553952E-006  0.8853504E+02  0.7818608E-02  0.1368976E+00
          2   -1    0    0  502    0  0.00000000000E+00  0.00000000000E+00  0.45467912830E+03  0.45467912830E+03  0.00000000000E+00 0. -1.
          1   -1    0    0  501    0 -0.00000000000E+00 -0.00000000000E+00 -0.10021156450E+04  0.10021156450E+04  0.00000000000E+00 0. -1.
         25    2    1    2    0    0 -0.17601766198E+02 -0.36750022928E+02 -0.15213123000E+03  0.20106854009E+03  0.12499704121E+03 0.  0.
          2    1    1    2  501    0 -0.40171429262E+02 -0.32050806313E+02 -0.82001227441E+03  0.82162103679E+03  0.00000000000E+00 0. -1.
          1    1    1    2  502    0  0.57773195460E+02  0.68800829241E+02  0.42470698767E+03  0.43410519646E+03  0.00000000000E+00 0. -1.
         22    1    3    3    0    0  0.29593769317E+02 -0.52290088883E+02 -0.25934103939E+02  0.65441747569E+02  0.00000000000E+00 0.  1.
         22    1    3    3    0    0 -0.47195535515E+02  0.15540065955E+02 -0.12619712606E+03  0.13562679252E+03  0.00000000000E+00 0.  1.
</event>
<event>
 7    1  0.5553952E-006  0.9495180E+02  0.7818608E-02  0.1368071E+00
          2   -1    0    0  502    0  0.00000000000E+00  0.00000000000E+00  0.10167295628E+04  0.10167295628E+04  0.00000000000E+00 0. -1.
          1   -1    0    0  501    0 -0.00000000000E+00 -0.00000000000E+00 -0.69646759749E+03  0.69646759749E+03  0.00000000000E+00 0. -1.
         25    2    1    2    0    0  0.10760213957E+03 -0.88059890702E+02  0.61046180947E+03  0.63845267522E+03  0.12500173151E+03 0.  0.
          2    1    1    2  501    0 -0.82269685153E+02  0.46961112211E+02 -0.67767969285E+03  0.68426852424E+03  0.00000000000E+00 0. -1.
          1    1    1    2  502    0 -0.25332454419E+02  0.41098778492E+02  0.38747984869E+03  0.39047596083E+03  0.00000000000E+00 0. -1.
         22    1    3    3    0    0  0.30132816395E+02  0.30307658862E+02  0.99970117188E+02  0.10872242244E+03  0.00000000000E+00 0.  1.
         22    1    3    3    0    0  0.77469323177E+02 -0.11836754956E+03  0.51049169229E+03  0.52973025279E+03  0.00000000000E+00 0.  1.
</event>
<event>
 7    1  0.5553952E-006  0.1504717E+03  0.7818608E-02  0.1400767E+00
          2   -1    0    0  502    0  0.00000000000E+00  0.00000000000E+00  0.14068289338E+04  0.14068289338E+04  0.00000000000E+00 0. -1.
          1   -1    0    0  501    0 -0.00000000000E+00 -0.00000000000E+00 -0.25621301028E+03  0.25621301028E+03  0.00000000000E+00 0. -1.
         25    2    1    2    0    0  0.11302885780E+03 -0.62715521491E+02  0.34523977849E+01  0.17984930255E+03  0.12500037298E+03 0.  0.
          2    1    1    2  501    0  0.23032893398E+02 -0.39816927268E+01 -0.16281243335E+03  0.16448178169E+03  0.00000000000E+00 0. -1.
          1    1    1    2  502    0 -0.13606175120E+03  0.66697214218E+02  0.13099759591E+04  0.13187108598E+04  0.00000000000E+00 0. -1.
         22    1    3    3    0    0  0.95888742930E+02 -0.36107868916E+02  0.57294984287E+02  0.11739311923E+03  0.00000000000E+00 0. -1.
         22    1    3    3    0    0  0.17140114869E+02 -0.26607652575E+02 -0.53842586502E+02  0.62456183317E+02  0.00000000000E+00 0. -1.
</event>
<event>
 7    1  0.5553952E-006  0.5306109E+02  0.7818608E-02  0.1480157E+00
          2   -1    0    0  502    0  0.00000000000E+00  0.00000000000E+00  0.13975687037E+04  0.13975687037E+04  0.00000000000E+00 0. -1.
          1   -1    0    0  501    0 -0.00000000000E+00 -0.00000000000E+00 -0.27714393640E+02  0.27714393640E+02  0.00000000000E+00 0. -1.
         25    2    1    2    0    0  0.79222721532E+02 -0.13039223605E+02  0.73983251080E+03  0.75460173146E+03  0.12500147250E+03 0.  0.
          2    1    1    2  501    0 -0.45013039052E+02  0.26110765620E+02  0.14430524461E+02  0.54001720363E+02  0.00000000000E+00 0. -1.
          1    1    1    2  502    0 -0.34209682480E+02 -0.13071542015E+02  0.61559127476E+03  0.61667964548E+03  0.00000000000E+00 0. -1.
         22    1    3    3    0    0 -0.84300407229E+01 -0.46308774272E+01  0.71540234152E-01  0.96185097776E+01  0.00000000000E+00 0.  1.
         22    1    3    3    0    0  0.87652762255E+02 -0.84083461779E+01  0.73976097057E+03  0.74498322169E+03  0.00000000000E+00 0.  1.
</event>
<event>
 7    1  0.5553952E-006  0.4511472E+02  0.7818608E-02  0.1551513E+00
          2   -1    0    0  502    0  0.00000000000E+00  0.00000000000E+00  0.34267818515E+03  0.34267818515E+03  0.00000000000E+00 0. -1.
          1   -1    0    0  501    0 -0.00000000000E+00 -0.00000000000E+00 -0.16047327088E+04  0.16047327088E+04  0.00000000000E+00 0. -1.
         25    2    1    2    0    0  0.48328985256E+02  0.39212021366E+01 -0.10368000003E+03  0.16948841674E+03  0.12500285741E+03 0.  0.
          2    1    1    2  501    0 -0.35846691362E+02 -0.27467066485E+02 -0.14672272704E+04  0.14679220988E+04  0.00000000000E+00 0. -1.
          1    1    1    2  502    0 -0.12482293894E+02  0.23545864349E+02  0.30885274683E+03  0.31000037840E+03  0.00000000000E+00 0. -1.
         22    1    3    3    0    0 -0.15165975902E+02  0.27629533471E+02 -0.96281431347E+02  0.10130899253E+03  0.00000000000E+00 0.  1.
         22    1    3    3    0    0  0.63494961158E+02 -0.23708331334E+02 -0.73985686801E+01  0.68179424210E+02  0.00000000000E+00 0.  1.
</event>
<event>
 7    1  0.5553952E-006  0.9619289E+02  0.7818608E-02  0.1349165E+00
          2   -1    0    0  502    0  0.00000000000E+00  0.00000000000E+00  0.66053014232E+03  0.66053014232E+03  0.00000000000E+00 0. -1.
          1   -1    0    0  501    0 -0.00000000000E+00 -0.00000000000E+00 -0.59504787333E+02  0.59504787333E+02  0.00000000000E+00 0. -1.
         25    2    1    2    0    0 -0.82533776595E+01  0.66538182202E+02  0.11341140247E+03  0.18161228751E+03  0.12500171531E+03 0.  0.
          2    1    1    2  501    0  0.48711479629E+02  0.27382566965E+02  0.19371133207E+02  0.59142658234E+02  0.00000000000E+00 0. -1.
          1    1    1    2  502    0 -0.40458101969E+02 -0.93920749167E+02  0.46824281931E+03  0.47927998391E+03  0.00000000000E+00 0. -1.
         22    1    3    3    0    0 -0.25138441976E+02 -0.23729957372E+02  0.74004485777E+02  0.81680573314E+02  0.00000000000E+00 0.  1.
         22    1    3    3    0    0  0.16885064317E+02  0.90268139574E+02  0.39406916695E+02  0.99931714198E+02  0.00000000000E+00 0.  1.
</event>
<event>
 7    1  0.5553952E-006  0.9796270E+02  0.7818608E-02  0.1377533E+00
          2   -1    0    0  502    0  0.00000000000E+00  0.00000000000E+00  0.62221209798E+03  0.62221209798E+03  0.00000000000E+00 0. -1.
          1   -1    0    0  501    0 -0.00000000000E+00 -0.00000000000E+00 -0.12224965615E+04  0.12224965615E+04  0.00000000000E+00 0. -1.
         25    2    1    2    0    0  0.44668207566E+02  0.66971219904E+02 -0.31452771091E+03  0.34789799623E+03  0.12499976715E+03 0.  0.
          2    1    1    2  501    0 -0.86184061632E+02 -0.54726902001E+02 -0.88758038950E+03  0.89343252354E+03  0.00000000000E+00 0. -1.
          1    1    1    2  502    0  0.41515854066E+02 -0.12244317903E+02  0.60182363694E+03  0.60337813968E+03  0.00000000000E+00 0. -1.
         22    1    3    3    0    0  0.24974386964E+02  0.10113199424E+03 -0.26397679318E+03  0.28378715193E+03  0.00000000000E+00 0.  1.
         22    1    3    3    0    0  0.19693820602E+02 -0.34160774337E+02 -0.50550917727E+02  0.64110844295E+02  0.00000000000E+00 0.  1.
</event>
<event>
 7    1  0.5553952E-006  0.3014571E+02  0.7818608E-02  0.1666771E+00
          2   -1    0    0  502    0  0.00000000000E+00  0.00000000000E+00  0.75786178602E+03  0.75786178602E+03  0.00000000000E+00 0. -1.
          1   -1    0    0  501    0 -0.00000000000E+00 -0.00000000000E+00 -0.27984776244E+02  0.27984776244E+02  0.00000000000E+00 0. -1.
         25    2    1    2    0    0 -0.25383306238E+01  0.36353409259E+02  0.23314844523E+03  0.26703952188E+03  0.12499558090E+03 0.  0.
          2    1    1    2  501    0  0.17348333058E+02 -0.10110095664E+02 -0.10599605224E+01  0.20107267605E+02  0.00000000000E+00 0. -1.
          1    1    1    2  502    0 -0.14810002435E+02 -0.26243313596E+02  0.49778852507E+03  0.49869977278E+03  0.00000000000E+00 0. -1.
         22    1    3    3    0    0  0.36941753780E+02  0.53338645251E+02  0.20653860602E+03  0.21648995364E+03  0.00000000000E+00 0.  1.
         22    1    3    3    0    0 -0.39480084404E+02 -0.16985235991E+02  0.26609839202E+02  0.50549568233E+02  0.00000000000E+00 0.  1.
</event>
<event>
 7    1  0.5553952E-006  0.3557876E+02  0.7818608E-02  0.1551892E+00
          2   -1    0    0  502    0  0.00000000000E+00  0.00000000000E+00  0.24019054219E+03  0.24019054219E+03  0.00000000000E+00 0. -1.
          1   -1    0    0  501    0 -0.00000000000E+00 -0.00000000000E+00 -0.87078169745E+03  0.87078169745E+03  0.00000000000E+00 0. -1.
         25    2    1    2    0    0 -0.15951845397E+02  0.16174965917E+02  0.64344195686E+02  0.14241123566E+03  0.12499877451E+03 0.  0.
          2    1    1    2  501    0  0.27781874678E+02  0.19093953380E+02 -0.82887048975E+03  0.82955572471E+03  0.00000000000E+00 0. -1.
          1    1    1    2  502    0 -0.11830029281E+02 -0.35268919297E+02  0.13393513880E+03  0.13900527928E+03  0.00000000000E+00 0. -1.
         22    1    3    3    0    0 -0.59497388866E+02  0.24832677562E+02  0.72769084091E+02  0.97221092136E+02  0.00000000000E+00 0.  1.
         22    1    3    3    0    0  0.43545543468E+02 -0.86577116455E+01 -0.84248884045E+01  0.45190143522E+02  0.00000000000E+00 0.  1.
</event>
<event>
 7    1  0.5553952E-006  0.1271469E+03  0.7818608E-02  0.1424677E+00
          2   -1    0    0  502    0  0.00000000000E+00  0.00000000000E+00  0.74171023007E+03  0.74171023007E+03  0.00000000000E+00 0. -1.
          1   -1    0    0  501    0 -0.00000000000E+00 -0.00000000000E+00 -0.10661002197E+03  0.10661002197E+03  0.00000000000E+00 0. -1.
         25    2    1    2    0    0  0.10962031509E+02  0.12944481838E+03  0.43780651250E+03  0.47347392470E+03  0.12500755117E+03 0.  0.
          2    1    1    2  501    0 -0.22599706405E+02 -0.41138384779E+01 -0.73082292570E+02  0.76607387920E+02  0.00000000000E+00 0. -1.
          1    1    1    2  502    0  0.11637674897E+02 -0.12533097990E+03  0.27037598817E+03  0.29823893941E+03  0.00000000000E+00 0. -1.
         22    1    3    3    0    0  0.49916480748E+02  0.35746003665E+02  0.27391639190E+03  0.28071270292E+03  0.00000000000E+00 0.  1.
         22    1    3    3    0    0 -0.38954449240E+02  0.93698814716E+02  0.16389012060E+03  0.19276122179E+03  0.00000000000E+00 0.  1.
</event>
<event>
 7    1  0.5553952E-006  0.5228019E+02  0.7818608E-02  0.1549814E+00
          2   -1    0    0  502    0  0.00000000000E+00  0.00000000000E+00  0.29106290856E+03  0.29106290856E+03  0.00000000000E+00 0. -1.
          1   -1    0    0  501    0 -0.00000000000E+00 -0.00000000000E+00 -0.51793864296E+03  0.51793864296E+03  0.00000000000E+00 0. -1.
         25    2    1    2    0    0  0.57229936802E+01 -0.37368569317E+02  0.12392474489E+03  0.18004937163E+03  0.12502508229E+03 0.  0.
          2    1    1    2  501    0  0.20037503725E+02 -0.11791012159E+02 -0.48404916077E+03  0.48460718068E+03  0.00000000000E+00 0. -1.
          1    1    1    2  502    0 -0.25760497405E+02  0.49159581475E+02  0.13324868149E+03  0.14434499920E+03  0.00000000000E+00 0. -1.
         22    1    3    3    0    0  0.20210528180E+02  0.17065127138E+02  0.12076959264E+03  0.12363243312E+03  0.00000000000E+00 0. -1.
         22    1    3    3    0    0 -0.14487534500E+02 -0.54433696455E+02  0.31551522520E+01  0.56416938514E+02  0.00000000000E+00 0. -1.
</event>
<event>
 7    1  0.5553952E-006  0.1084656E+03  0.7818608E-02  0.1331177E+00
          2   -1    0    0  502    0  0.00000000000E+00  0.00000000000E+00  0.12246057848E+03  0.12246057848E+03  0.00000000000E+00 0. -1.
          1   -1    0    0  501    0 -0.00000000000E+00 -0.00000000000E+00 -0.12422026712E+04  0.12422026712E+04  0.00000000000E+00 0. -1.
         25    2    1    2    0    0 -0.14738553266E+02 -0.62807673091E+02 -0.25834157148E+03  0.29414728182E+03  0.12498090691E+03 0.  0.
          2    1    1    2  501    0  0.55696949624E+02  0.10374923203E+03 -0.95403184368E+03  0.96127145599E+03  0.00000000000E+00 0. -1.
          1    1    1    2  502    0 -0.40958396358E+02 -0.40941558941E+02  0.92631322431E+02  0.10924451188E+03  0.00000000000E+00 0. -1.
         22    1    3    3    0    0 -0.44864053765E+01 -0.91483312801E+02 -0.11206274252E+03  0.14473210637E+03  0.00000000000E+00 0.  1.
         22    1    3    3    0    0 -0.10252147889E+02  0.28675639710E+02 -0.14627882897E+03  0.14941517544E+03  0.00000000000E+00 0.  1.
</event>
<event>
 7    1  0.5553952E-006  0.1224874E+03  0.7818608E-02  0.1394083E+00
          2   -1    0    0  502    0  0.00000000000E+00  0.00000000000E+00  0.16850135455E+04  0.16850135455E+04  0.00000000000E+00 0. -1.
          1   -1    0    0  501    0 -0.00000000000E+00 -0.00000000000E+00 -0.79498991661E+03  0.79498991661E+03  0.00000000000E+00 0. -1.
         25    2    1    2    0    0  0.98410934636E+02 -0.22263427671E+02  0.57258275415E+03  0.59469060561E+03  0.12500213514E+03 0.  0.
          2    1    1    2  501    0  0.26076462618E+02 -0.15394653445E+02 -0.77980153164E+03  0.78038926569E+03  0.00000000000E+00 0. -1.
          1    1    1    2  502    0 -0.12448739725E+03  0.37658081115E+02  0.10972424064E+04  0.11049235908E+04  0.00000000000E+00 0. -1.
         22    1    3    3    0    0  0.52179470519E+02 -0.74003706686E+02  0.29622798210E+03  0.30975839477E+03  0.00000000000E+00 0.  1.
         22    1    3    3    0    0  0.46231464117E+02  0.51740279015E+02  0.27635477204E+03  0.28493221085E+03  0.00000000000E+00 0.  1.
</event>
<event>
 7    1  0.5553952E-006  0.8996873E+02  0.7818608E-02  0.1334411E+00
          2   -1    0    0  502    0  0.00000000000E+00  0.00000000000E+00  0.24046933302E+04  0.24046933302E+04  0.00000000000E+00 0. -1.
          1   -1    0    0  501    0 -0.00000000000E+00 -0.00000000000E+00 -0.42269489213E+02  0.42269489213E+02  0.00000000000E+00 0. -1.
         25    2    1    2    0    0  0.12028593899E+03  0.65547830026E+02  0.41717792569E+03  0.45653733471E+03  0.12499476454E+03 0.  0.
          2    1    1    2  501    0 -0.32334200081E+02 -0.59671249733E+02  0.31798330212E+02  0.74948598011E+02  0.00000000000E+00 0. -1.
          1    1    1    2  502    0 -0.87951738907E+02 -0.58765802929E+01  0.19134475851E+04  0.19154768867E+04  0.00000000000E+00 0. -1.
         22    1    3    3    0    0  0.36525382050E+02 -0.72145581510E+01  0.16396535645E+02  0.40681688318E+02  0.00000000000E+00 0. -1.
         22    1    3    3    0    0  0.83760556937E+02  0.72762388177E+02  0.40078139004E+03  0.41585564639E+03  0.00000000000E+00 0. -1.
</event>
<event>
 7    1  0.5553952E-006  0.3496513E+02  0.7818608E-02  0.1630169E+00
          2   -1    0    0  502    0  0.00000000000E+00  0.00000000000E+00  0.15176750460E+04  0.15176750460E+04  0.00000000000E+00 0. -1.
          1   -1    0    0  501    0 -0.00000000000E+00 -0.00000000000E+00 -0.13961044785E+04  0.13961044785E+04  0.00000000000E+00 0. -1.
         25    2    1    2    0    0 -0.44757314354E+01 -0.54183074770E+02  0.59623315182E+03  0.61161195107E+03  0.12497747637E+03 0.  0.
          2    1    1    2  501    0  0.70473957445E+01  0.20095305133E+02 -0.13880136533E+04  0.13881770020E+04  0.00000000000E+00 0. -1.
          1    1    1    2  502    0 -0.25716643091E+01  0.34087769637E+02  0.91335106895E+03  0.91399057142E+03  0.00000000000E+00 0. -1.
         22    1    3    3    0    0  0.45527138691E+02 -0.14338841091E+02  0.94996194623E+02  0.10631368545E+03  0.00000000000E+00 0. -1.
         22    1    3    3    0    0 -0.50002870127E+02 -0.39844233678E+02  0.50123695720E+03  0.50529826562E+03  0.00000000000E+00 0. -1.
</event>
<event>
 7    1  0.5553952E-006  0.9564905E+02  0.7818608E-02  0.1438597E+00
          2   -1    0    0  502    0  0.00000000000E+00  0.00000000000E+00  0.52947417760E+03  0.52947417760E+03  0.00000000000E+00 0. -1.
          1   -1    0    0  501    0 -0.00000000000E+00 -0.00000000000E+00 -0.68955719547E+03  0.68955719547E+03  0.00000000000E+00 0. -1.
         25    2    1    2    0    0 -0.60406802052E+02 -0.84928223011E+02 -0.50982130028E+03  0.53516892375E+03  0.12500493564E+03 0.  0.
          2    1    1    2  501    0  0.33022560907E+02  0.82582645299E+02 -0.15482402649E+03  0.17855212688E+03  0.00000000000E+00 0. -1.
          1    1    1    2  502    0  0.27384241145E+02  0.23455777123E+01  0.50456230891E+03  0.50531032244E+03  0.00000000000E+00 0. -1.
         22    1    3    3    0    0  0.97752666604E+01 -0.67341092315E+02 -0.38438661054E+03  0.39036322178E+03  0.00000000000E+00 0.  1.
         22    1    3    3    0    0 -0.70182068713E+02 -0.17587130696E+02 -0.12543468974E+03  0.14480570197E+03  0.00000000000E+00 0.  1.
</event>
<event>
 7    1  0.6498808E-006  0.5061016E+02  0.7818608E-02  0.1443664E+00
          2   -1    0    0  502    0  0.00000000000E+00  0.00000000000E+00  0.14961804082E+04  0.14961804082E+04  0.00000000000E+00 0. -1.
          1   -1    0    0  501    0 -0.00000000000E+00 -0.00000000000E+00 -0.38708104655E+03  0.38708104655E+03  0.00000000000E+00 0. -1.
         25    2    1    2    0    0  0.64602273156E+00 -0.19209391648E+02 -0.52377327687E+02  0.13688468646E+03  0.12499845943E+03 0.  0.
          2    1    1    2  501    0 -0.50870731020E+02  0.12975054485E+02 -0.28964922347E+03  0.29436857164E+03  0.00000000000E+00 0. -1.
          1    1    1    2  502    0  0.50224708289E+02  0.62343371629E+01  0.14511259128E+04  0.14520081966E+04  0.00000000000E+00 0. -1.
         22    1    3    3    0    0  0.17921026496E+02 -0.48277806216E+02 -0.78687443864E+02  0.94040542244E+02  0.00000000000E+00 0.  1.
         22    1    3    3    0    0 -0.17275003765E+02  0.29068414568E+02  0.26310116178E+02  0.42844144219E+02  0.00000000000E+00 0.  1.
</event>
<event>
 7    1  0.7081346E-006  0.7861093E+02  0.7818608E-02  0.1510083E+00
          2   -1    0    0  502    0  0.00000000000E+00  0.00000000000E+00  0.94271512702E+03  0.94271512702E+03  0.00000000000E+00 0. -1.
          1   -1    0    0  501    0 -0.00000000000E+00 -0.00000000000E+00 -0.10196196724E+04  0.10196196724E+04  0.00000000000E+00 0. -1.
         25    2    1    2    0    0  0.59735687752E+02  0.82048270507E+01 -0.44141177913E+03  0.46271459842E+03  0.12499907702E+03 0.  0.
          2    1    1    2  501    0  0.18930526227E+02 -0.67457210721E+01 -0.56571731626E+03  0.56607415724E+03  0.00000000000E+00 0. -1.
          1    1    1    2  502    0 -0.78666213980E+02 -0.14591059786E+01  0.93022455006E+03  0.93354604372E+03  0.00000000000E+00 0. -1.
         22    1    3    3    0    0 -0.25753604148E+02  0.37417345823E+02 -0.10543677940E+03  0.11480514076E+03  0.00000000000E+00 0. -1.
         22    1    3    3    0    0  0.85489291900E+02 -0.29212518772E+02 -0.33597499973E+03  0.34790945766E+03  0.00000000000E+00 0. -1.
</event>
<event>
 7    1  0.5553952E-006  0.9014000E+02  0.7818608E-02  0.1357795E+00
          2   -1    0    0  502    0  0.00000000000E+00  0.00000000000E+00  0.12564663984E+04  0.12564663984E+04  0.00000000000E+00 0. -1.
          1   -1    0    0  501    0 -0.00000000000E+00 -0.00000000000E+00 -0.28302244957E+03  0.28302244957E+03  0.00000000000E+00 0. -1.
         25    2    1    2    0    0 -0.11199728858E+02  0.13920680375E+03  0.17870813088E+03  0.25897139978E+03  0.12500248687E+03 0.  0.
          2    1    1    2  501    0 -0.96827109872E+01 -0.87870123881E+02 -0.23407655382E+03  0.25021340214E+03  0.00000000000E+00 0. -1.
          1    1    1    2  502    0  0.20882439845E+02 -0.51336679872E+02  0.10288123718E+04  0.10303040461E+04  0.00000000000E+00 0. -1.
         22    1    3    3    0    0 -0.12477200397E+02  0.77725482277E+01  0.10938869685E+03  0.11037200748E+03  0.00000000000E+00 0.  1.
         22    1    3    3    0    0  0.12774715390E+01  0.13143425553E+03  0.69319434028E+02  0.14859939230E+03  0.00000000000E+00 0.  1.
</event>
<event>
 7    1  0.5553952E-006  0.6319665E+02  0.7818608E-02  0.1414397E+00
          2   -1    0    0  502    0  0.00000000000E+00  0.00000000000E+00  0.38254501289E+03  0.38254501289E+03  0.00000000000E+00 0. -1.
          1   -1    0    0  501    0 -0.00000000000E+00 -0.00000000000E+00 -0.27554460821E+03  0.27554460821E+03  0.00000000000E+00 0. -1.
         25    2    1    2    0    0 -0.46541070659E+02  0.94516158905E+02 -0.97196045131E+02  0.19018355245E+03  0.12499334735E+03 0.  0.
          2    1    1    2  501    0  0.37866334291E+02 -0.32683646683E+02 -0.12405978457E+03  0.13376438308E+03  0.00000000000E+00 0. -1.
          1    1    1    2  502    0  0.86747363680E+01 -0.61832512222E+02  0.32825623439E+03  0.33414168557E+03  0.00000000000E+00 0. -1.
         22    1    3    3    0    0 -0.24416009428E+02  0.39620260378E+02  0.26142399135E+02  0.53379130579E+02  0.00000000000E+00 0. -1.
         22    1    3    3    0    0 -0.22125061231E+02  0.54895898527E+02 -0.12333844427E+03  0.13680442187E+03  0.00000000000E+00 0. -1.
</event>
<event>
 7    1  0.5553952E-006  0.9842293E+02  0.7818608E-02  0.1384007E+00
          2   -1    0    0  502    0  0.00000000000E+00  0.00000000000E+00  0.25457396830E+03  0.25457396830E+03  0.00000000000E+00 0. -1.
          1   -1    0    0  501    0 -0.00000000000E+00 -0.00000000000E+00 -0.90641048425E+03  0.90641048425E+03  0.00000000000E+00 0. -1.
         25    2    1    2    0    0 -0.12694831925E+03  0.36154584008E+02 -0.39977990178E+03  0.43917144016E+03  0.12499821710E+03 0.  0.
          2    1    1    2  501    0  0.87632167486E+02 -0.24998736917E+02 -0.48084458867E+03  0.48940356770E+03  0.00000000000E+00 0. -1.
          1    1    1    2  502    0  0.39316151764E+02 -0.11155847091E+02  0.22878797449E+03  0.23240944470E+03  0.00000000000E+00 0. -1.
         22    1    3    3    0    0 -0.14145390897E+03  0.58542832884E+02 -0.36082159291E+03  0.39195496369E+03  0.00000000000E+00 0.  1.
         22    1    3    3    0    0  0.14505589718E+02 -0.22388248876E+02 -0.38958308863E+02  0.47216476471E+02  0.00000000000E+00 0.  1.
</event>
<event>
 7    1  0.5553952E-006  0.9813403E+02  0.7818608E-02  0.1380260E+00
          2   -1    0    0  502    0  0.00000000000E+00  0.00000000000E+00  0.58591909269E+03  0.58591909269E+03  0.00000000000E+00 0. -1.
          1   -1    0    0  501    0 -0.00000000000E+00 -0.00000000000E+00 -0.77224187102E+03  0.77224187102E+03  0.00000000000E+00 0. -1.
         25    2    1    2    0    0  0.32039369776E+02 -0.93516171613E+02 -0.21237955016E+03  0.26552121471E+03  0.12499858627E+03 0.  0.
          2    1    1    2  501    0  0.35818641731E+02  0.22419376016E+02 -0.52812377025E+03  0.52981158936E+03  0.00000000000E+00 0. -1.
          1    1    1    2  502    0 -0.67858011507E+02  0.71096795597E+02  0.55418054208E+03  0.56282815964E+03  0.00000000000E+00 0. -1.
         22    1    3    3    0    0 -0.30089910757E+02 -0.86223833072E+02 -0.90739986121E+02  0.12873887214E+03  0.00000000000E+00 0. -1.
         22    1    3    3    0    0  0.62129280533E+02 -0.72923385410E+01 -0.12163956404E+03  0.13678234257E+03  0.00000000000E+00 0. -1.
</event>
<event>
 7    1  0.5553952E-006  0.1510595E+03  0.7818608E-02  0.1349415E+00
          2   -1    0    0  502    0  0.00000000000E+00  0.00000000000E+00  0.20552122067E+04  0.20552122067E+04  0.00000000000E+00 0. -1.
          1   -1    0    0  501    0 -0.00000000000E+00 -0.00000000000E+00 -0.34148083330E+02  0.34148083330E+02  0.00000000000E+00 0. -1.
         25    2    1    2    0    0 -0.17720636157E+03  0.20958340137E+02  0.85793704345E+03  0.88516803108E+03  0.12500050450E+03 0.  0.
          2    1    1    2  501    0  0.14244454218E+03 -0.13716096728E+02  0.23333307452E+03  0.27372048256E+03  0.00000000000E+00 0. -1.
          1    1    1    2  502    0  0.34761819387E+02 -0.72422434084E+01  0.92979400540E+03  0.93047177639E+03  0.00000000000E+00 0. -1.
         22    1    3    3    0    0 -0.12084540794E+03  0.79017974077E+01  0.77281850801E+03  0.78224963876E+03  0.00000000000E+00 0.  1.
         22    1    3    3    0    0 -0.56360953633E+02  0.13056542729E+02  0.85118535445E+02  0.10291839232E+03  0.00000000000E+00 0.  1.
</event>
<event>
 7    1  0.5553952E-006  0.9526327E+02  0.7818608E-02  0.1420552E+00
          2   -1    0    0  502    0  0.00000000000E+00  0.00000000000E+00  0.20269378484E+03  0.20269378484E+03  0.00000000000E+00 0. -1.
          1   -1    0    0  501    0 -0.00000000000E+00 -0.00000000000E+00 -0.69397937805E+03  0.69397937805E+03  0.00000000000E+00 0. -1.
         25    2    1    2    0    0  0.19940660577E+02 -0.11665962382E+03 -0.33611104744E+03  0.37762804330E+03  0.12500082041E+03 0.  0.
          2    1    1    2  501    0 -0.24692997726E+02  0.85374745334E+02 -0.32980552696E+03  0.34157031032E+03  0.00000000000E+00 0. -1.
          1    1    1    2  502    0  0.47523371493E+01  0.31284878490E+02  0.17463098120E+03  0.17747480927E+03  0.00000000000E+00 0. -1.
         22    1    3    3    0    0 -0.12686436744E+02  0.68218854953E+01 -0.15691523773E+03  0.15757498415E+03  0.00000000000E+00 0.  1.
         22    1    3    3    0    0  0.32627097321E+02 -0.12348150932E+03 -0.17919580971E+03  0.22005305915E+03  0.00000000000E+00 0.  1.
</event>
<event>
 7    1  0.5553952E-006  0.3409034E+02  0.7818608E-02  0.1606366E+00
          2   -1    0    0  502    0  0.00000000000E+00  0.00000000000E+00  0.35316277563E+03  0.35316277563E+03  0.00000000000E+00 0. -1.
          1   -1    0    0  501    0 -0.00000000000E+00 -0.00000000000E+00 -0.12215734846E+03  0.12215734846E+03  0.00000000000E+00 0. -1.
         25    2    1    2    0    0  0.50699951703E+02 -0.10658109228E+02  0.12230997387E+03  0.18239610072E+03  0.12499810980E+03 0.  0.
          2    1    1    2  501    0 -0.27340744116E+02  0.19901446456E+02 -0.88185320984E+02  0.94446994113E+02  0.00000000000E+00 0. -1.
          1    1    1    2  502    0 -0.23359207587E+02 -0.92433372283E+01  0.19688077428E+03  0.19847702926E+03  0.00000000000E+00 0. -1.
         22    1    3    3    0    0  0.71885914975E+02 -0.47262108305E+02  0.10727357160E+03  0.13750967536E+03  0.00000000000E+00 0.  1.
         22    1    3    3    0    0 -0.21185963273E+02  0.36603999078E+02  0.15036402272E+02  0.44886425360E+02  0.00000000000E+00 0.  1.
</event>
<event>
 7    1  0.5553952E-006  0.1155887E+03  0.7818608E-02  0.1319716E+00
          2   -1    0    0  502    0  0.00000000000E+00  0.00000000000E+00  0.18983974499E+03  0.18983974499E+03  0.00000000000E+00 0. -1.
          1   -1    0    0  501    0 -0.00000000000E+00 -0.00000000000E+00 -0.16211677321E+04  0.16211677321E+04  0.00000000000E+00 0. -1.
         25    2    1    2    0    0 -0.34341525161E+02 -0.14438105799E+03  0.35444287738E+02  0.19724961418E+03  0.12500352997E+03 0.  0.
          2    1    1    2  501    0 -0.19737329771E+02  0.56820080163E+02 -0.15033374926E+04  0.15045403618E+04  0.00000000000E+00 0. -1.
          1    1    1    2  502    0  0.54078854931E+02  0.87560977831E+02  0.36565217771E+02  0.10921750107E+03  0.00000000000E+00 0. -1.
         22    1    3    3    0    0 -0.81457836543E+02 -0.84011954944E+02  0.14907708176E+02  0.11796451785E+03  0.00000000000E+00 0.  1.
         22    1    3    3    0    0  0.47116311382E+02 -0.60369103050E+02  0.20536579562E+02  0.79285096338E+02  0.00000000000E+00 0.  1.
</event>
<event>
 7    1  0.5553952E-006  0.7052840E+02  0.7818608E-02  0.1392640E+00
          2   -1    0    0  502    0  0.00000000000E+00  0.00000000000E+00  0.12923082453E+04  0.12923082453E+04  0.00000000000E+00 0. -1.
          1   -1    0    0  501    0 -0.00000000000E+00 -0.00000000000E+00 -0.18697735437E+03  0.18697735437E+03  0.00000000000E+00 0. -1.
         25    2    1    2    0    0 -0.47364991910E+02 -0.10889523381E+03  0.46781938362E+02  0.17864638684E+03  0.12499746945E+03 0.  0.
          2    1    1    2  501    0  0.33755837934E+02  0.57464896650E+02 -0.11122092838E+03  0.12966019378E+03  0.00000000000E+00 0. -1.
          1    1    1    2  502    0  0.13609153976E+02  0.51430337158E+02  0.11697698809E+04  0.11709790190E+04  0.00000000000E+00 0. -1.
         22    1    3    3    0    0  0.40107745171E+02 -0.59981495633E+02  0.21406445538E+02  0.75263848903E+02  0.00000000000E+00 0. -1.
         22    1    3    3    0    0 -0.87472737081E+02 -0.48913738176E+02  0.25375492824E+02  0.10338253794E+03  0.00000000000E+00 0. -1.
</event>
<event>
 7    1  0.5553952E-006  0.7684134E+02  0.7818608E-02  0.1401863E+00
          2   -1    0    0  502    0  0.00000000000E+00  0.00000000000E+00  0.80289380089E+03  0.80289380089E+03  0.00000000000E+00 0. -1.
          1   -1    0    0  501    0 -0.00000000000E+00 -0.00000000000E+00 -0.51230825591E+03  0.51230825591E+03  0.00000000000E+00 0. -1.
         25    2    1    2    0    0  0.10030353818E+03 -0.66861645174E+02  0.11697954191E+02  0.17404961923E+03  0.12500059383E+03 0.  0.
          2    1    1    2  501    0 -0.61130034306E+02  0.43958490015E+02 -0.42711105422E+03  0.43369699397E+03  0.00000000000E+00 0. -1.
          1    1    1    2  502    0 -0.39173503871E+02  0.22903155159E+02  0.70599864501E+03  0.70745544360E+03  0.00000000000E+00 0. -1.
         22    1    3    3    0    0  0.95006916151E+02  0.10976044626E+00  0.37423550585E+02  0.10211194006E+03  0.00000000000E+00 0. -1.
         22    1    3    3    0    0  0.52966220259E+01 -0.66971405620E+02 -0.25725596394E+02  0.71937679177E+02  0.00000000000E+00 0. -1.
</event>
<event>
 7    1  0.9093407E-006  0.8052044E+02  0.7818608E-02  0.1341036E+00
          2   -1    0    0  502    0  0.00000000000E+00  0.00000000000E+00  0.14304857388E+04  0.14304857388E+04  0.00000000000E+00 0. -1.
          1   -1    0    0  501    0 -0.00000000000E+00 -0.00000000000E+00 -0.11084770453E+04  0.11084770453E+04  0.00000000000E+00 0. -1.
         25    2    1    2    0    0 -0.70214881974E+02  0.10368490108E+03 -0.51609566943E+03  0.54558100812E+03  0.12499283200E+03 0.  0.
          2    1    1    2  501    0  0.45224536335E+01 -0.75235413012E+02 -0.57426964757E+03  0.57919465474E+03  0.00000000000E+00 0. -1.
          1    1    1    2  502    0  0.65692428340E+02 -0.28449488067E+02  0.14123740105E+04  0.14141871213E+04  0.00000000000E+00 0. -1.
         22    1    3    3    0    0 -0.32928221667E+02  0.29606909526E+01 -0.21451721775E+02  0.39410783299E+02  0.00000000000E+00 0. -1.
         22    1    3    3    0    0 -0.37286660307E+02  0.10072421013E+03 -0.49464394766E+03  0.50617022482E+03  0.00000000000E+00 0. -1.
</event>
<event>
 7    1  0.5553952E-006  0.5991519E+02  0.7818608E-02  0.1474016E+00
          2   -1    0    0  502    0  0.00000000000E+00  0.00000000000E+00  0.81462553399E+02  0.81462553399E+02  0.00000000000E+00 0. -1.
          1   -1    0    0  501    0 -0.00000000000E+00 -0.00000000000E+00 -0.13574260423E+04  0.13574260423E+04  0.00000000000E+00 0. -1.
         25    2    1    2    0    0  0.26551224382E+02 -0.10918740377E+02 -0.95825480247E+01  0.12861273488E+03  0.12500089576E+03 0.  0.
          2    1    1    2  501    0 -0.60029768828E+02  0.57432991833E+01 -0.12741041156E+04  0.12755304215E+04  0.00000000000E+00 0. -1.
          1    1    1    2  502    0  0.33478544447E+02  0.51754411933E+01  0.77231747215E+01  0.34745439378E+02  0.00000000000E+00 0. -1.
         22    1    3    3    0    0 -0.41837636034E+02  0.27139321996E+02 -0.10097714634E+01  0.49879356709E+02  0.00000000000E+00 0. -1.
         22    1    3    3    0    0  0.68388860416E+02 -0.38058062373E+02 -0.85727765613E+01  0.78733378173E+02  0.00000000000E+00 0. -1.
</event>
<event>
 7    1  0.5553952E-006  0.7773421E+02  0.7818608E-02  0.1494287E+00
          2   -1    0    0  502    0  0.00000000000E+00  0.00000000000E+00  0.40450073602E+03  0.40450073602E+03  0.00000000000E+00 0. -1.
          1   -1    0    0  501    0 -0.00000000000E+00 -0.00000000000E+00 -0.18013225090E+04  0.18013225090E+04  0.00000000000E+00 0. -1.
         25    2    1    2    0    0 -0.22355848223E+01  0.85292078965E+02  0.37913048539E+02  0.15602189608E+03  0.12500278490E+03 0.  0.
          2    1    1    2  501    0  0.22130302552E+02 -0.74473793227E+02 -0.17409836794E+04  0.17427163476E+04  0.00000000000E+00 0. -1.
          1    1    1    2  502    0 -0.19894717730E+02 -0.10818285738E+02  0.30624885789E+03  0.30708500135E+03  0.00000000000E+00 0. -1.
         22    1    3    3    0    0 -0.22838252273E+02  0.59618608644E+01 -0.37719497565E+02  0.44495955417E+02  0.00000000000E+00 0.  1.
         22    1    3    3    0    0  0.20602667451E+02  0.79330218101E+02  0.75632546104E+02  0.11152594066E+03  0.00000000000E+00 0.  1.
</event>
<event>
 7    1  0.5553952E-006  0.6214698E+02  0.7818608E-02  0.1390121E+00
          2   -1    0    0  502    0  0.00000000000E+00  0.00000000000E+00  0.20947302937E+04  0.20947302937E+04  0.00000000000E+00 0. -1.
          1   -1    0    0  501    0 -0.00000000000E+00 -0.00000000000E+00 -0.34584065472E+02  0.34584065472E+02  0.00000000000E+00 0. -1.
         25    2    1    2    0    0  0.99645531799E+01 -0.26092694324E+02  0.77298627227E+03  0.78352386018E+03  0.12498696467E+03 0.  0.
          2    1    1    2  501    0 -0.54137787119E+02 -0.29404144196E+02  0.51529683331E+01  0.61822785223E+02  0.00000000000E+00 0. -1.
          1    1    1    2  502    0  0.44173233939E+02  0.55496838520E+02  0.12820069877E+04  0.12839677138E+04  0.00000000000E+00 0. -1.
         22    1    3    3    0    0 -0.49044646067E+02 -0.41903162442E+02  0.32004214341E+03  0.32647852286E+03  0.00000000000E+00 0.  1.
         22    1    3    3    0    0  0.59009199247E+02  0.15810468118E+02  0.45294412886E+03  0.45704533732E+03  0.00000000000E+00 0.  1.
</event>
<event>
 7    1  0.5553952E-006  0.2413105E+03  0.7818608E-02  0.1274820E+00
          2   -1    0    0  502    0  0.00000000000E+00  0.00000000000E+00  0.11440426792E+04  0.11440426792E+04  0.00000000000E+00 0. -1.
          1   -1    0    0  501    0 -0.00000000000E+00 -0.00000000000E+00 -0.34057299163E+03  0.34057299163E+03  0.00000000000E+00 0. -1.
         25    2    1    2    0    0 -0.20525073766E+03 -0.70574815867E+02  0.15267370478E+03  0.29333139136E+03  0.12500150031E+03 0.  0.
          2    1    1    2  501    0 -0.15750565972E+02 -0.40726118668E+02 -0.25171080579E+03  0.25547020730E+03  0.00000000000E+00 0. -1.
          1    1    1    2  502    0  0.22100130363E+03  0.11130093453E+03  0.90250678855E+03  0.93581407214E+03  0.00000000000E+00 0. -1.
         22    1    3    3    0    0 -0.28042929810E+02 -0.43182283198E+02 -0.85529401821E+01  0.52194523471E+02  0.00000000000E+00 0.  1.
         22    1    3    3    0    0 -0.17720780785E+03 -0.27392532668E+02  0.16122664496E+03  0.24113686789E+03  0.00000000000E+00 0.  1.
</event>
<event>
 7    1  0.5553952E-006  0.5909197E+02  0.7818608E-02  0.1424613E+00
          2   -1    0    0  502    0  0.00000000000E+00  0.00000000000E+00  0.11916932987E+04  0.11916932987E+04  0.00000000000E+00 0. -1.
          1   -1    0    0  501    0 -0.00000000000E+00 -0.00000000000E+00 -0.66722810285E+03  0.66722810285E+03  0.00000000000E+00 0. -1.
         25    2    1    2    0    0 -0.60849931641E+02  0.50407376056E+02  0.82529513854E+03  0.83843946007E+03  0.12500017901E+03 0.  0.
          2    1    1    2  501    0  0.49219145161E+02  0.47781697565E+01 -0.65751185888E+03  0.65936878886E+03  0.00000000000E+00 0. -1.
          1    1    1    2  502    0  0.11630786480E+02 -0.55185545813E+02  0.35668191614E+03  0.36111315258E+03  0.00000000000E+00 0. -1.
         22    1    3    3    0    0  0.68959111056E+01 -0.29924778208E+02  0.36554692979E+03  0.36683457282E+03  0.00000000000E+00 0. -1.
         22    1    3    3    0    0 -0.67745842747E+02  0.80332154264E+02  0.45974820875E+03  0.47160488724E+03  0.00000000000E+00 0. -1.
</event>
<event>
 7    1  0.5553952E-006  0.9269711E+02  0.7818608E-02  0.1472500E+00
          2   -1    0    0  502    0  0.00000000000E+00  0.00000000000E+00  0.35106893841E+04  0.35106893841E+04  0.00000000000E+00 0. -1.
          1   -1    0    0  501    0 -0.00000000000E+00 -0.00000000000E+00 -0.81322290679E+01  0.81322290679E+01  0.00000000000E+00 0. -1.
         25    2    1    2    0    0 -0.74557625535E+02  0.18614183792E+02  0.21927296662E+04  0.21976335189E+04  0.12499746800E+03 0.  0.
          2    1    1    2  501    0  0.89032331141E+02 -0.35359307087E+02  0.40824756942E+03  0.41933651704E+03  0.00000000000E+00 0. -1.
          1    1    1    2  502    0 -0.14474705606E+02  0.16745123295E+02  0.90157991937E+03  0.90185157718E+03  0.00000000000E+00 0. -1.
         22    1    3    3    0    0 -0.81365567387E+02  0.62280085145E+02  0.15629617520E+04  0.15663168909E+04  0.00000000000E+00 0.  1.
         22    1    3    3    0    0  0.68079418522E+01 -0.43665901353E+02  0.62976791421E+03  0.63131662800E+03  0.00000000000E+00 0.  1.
</event>
<event>
 7    1  0.5553952E-006  0.9646118E+02  0.7818608E-02  0.1371415E+00
          2   -1    0    0  502    0  0.00000000000E+00  0.00000000000E+00  0.32638115265E+03  0.32638115265E+03  0.00000000000E+00 0. -1.
          1   -1    0    0  501    0 -0.00000000000E+00 -0.00000000000E+00 -0.71201842126E+03  0.71201842126E+03  0.00000000000E+00 0. -1.
         25    2    1    2    0    0  0.11446027180E+03 -0.50186289362E+02  0.50649895288E+02  0.18387668512E+03  0.12500162391E+03 0.  0.
          2    1    1    2  501    0 -0.70589652724E+02  0.64751716825E+02 -0.63923755216E+03  0.64637476126E+03  0.00000000000E+00 0. -1.
          1    1    1    2  502    0 -0.43870619075E+02 -0.14565427464E+02  0.20295038826E+03  0.20814812752E+03  0.00000000000E+00 0. -1.
         22    1    3    3    0    0  0.10893276750E+03  0.10256967499E+02  0.80236808606E+01  0.10970839837E+03  0.00000000000E+00 0.  1.
         22    1    3    3    0    0  0.55275042953E+01 -0.60443256861E+02  0.42626214427E+02  0.74168286754E+02  0.00000000000E+00 0.  1.
</event>
<event>
 7    1  0.5553952E-006  0.3346674E+02  0.7818608E-02  0.1644432E+00
          2   -1    0    0  502    0  0.00000000000E+00  0.00000000000E+00  0.91528902692E+03  0.91528902692E+03  0.00000000000E+00 0. -1.
          1   -1    0    0  501    0 -0.00000000000E+00 -0.00000000000E+00 -0.18474108223E+03  0.18474108223E+03  0.00000000000E+00 0. -1.
         25    2    1    2    0    0 -0.10794491748E+02  0.52665061239E+02  0.14549973789E+03  0.19919193164E+03  0.12496848473E+03 0.  0.
          2    1    1    2  501    0  0.68286836794E+01 -0.32551772325E+02 -0.15600009775E+03  0.15950636132E+03  0.00000000000E+00 0. -1.
          1    1    1    2  502    0  0.39658080686E+01 -0.20113288914E+02  0.74104830455E+03  0.74133181619E+03  0.00000000000E+00 0. -1.
         22    1    3    3    0    0 -0.52551048370E+02 -0.16630699430E+02  0.60518670026E+02  0.81857817403E+02  0.00000000000E+00 0. -1.
         22    1    3    3    0    0  0.41756556622E+02  0.69295760669E+02  0.84981067866E+02  0.11733411423E+03  0.00000000000E+00 0. -1.
</event>
<event>
 7    1  0.5553952E-006  0.5881493E+02  0.7818608E-02  0.1531490E+00
          2   -1    0    0  502    0  0.00000000000E+00  0.00000000000E+00  0.24657494798E+02  0.24657494798E+02  0.00000000000E+00 0. -1.
          1   -1    0    0  501    0 -0.00000000000E+00 -0.00000000000E+00 -0.15784244774E+04  0.15784244774E+04  0.00000000000E+00 0. -1.
         25    2    1    2    0    0 -0.35498656954E+02  0.72596815243E+02 -0.42450896931E+03  0.44984882961E+03  0.12500260895E+03 0.  0.
          2    1    1    2  501    0  0.25867768457E+02 -0.51400403075E+02 -0.11284719440E+04  0.11299380829E+04  0.00000000000E+00 0. -1.
          1    1    1    2  502    0  0.96308884973E+01 -0.21196412168E+02 -0.78606935045E+00  0.23295059713E+02  0.00000000000E+00 0. -1.
         22    1    3    3    0    0 -0.75464066971E+02  0.57228771029E+02 -0.36126502085E+03  0.37347338985E+03  0.00000000000E+00 0.  1.
         22    1    3    3    0    0  0.39965410017E+02  0.15368044214E+02 -0.63243948464E+02  0.76375439757E+02  0.00000000000E+00 0.  1.
</event>
<event>
 7    1  0.5553952E-006  0.5176163E+02  0.7818608E-02  0.1491538E+00
          2   -1    0    0  502    0  0.00000000000E+00  0.00000000000E+00  0.37964047793E+03  0.37964047793E+03  0.00000000000E+00 0. -1.
          1   -1    0    0  501    0 -0.00000000000E+00 -0.00000000000E+00 -0.13668206632E+04  0.13668206632E+04  0.00000000000E+00 0. -1.
         25    2    1    2    0    0  0.35221656405E+02  0.63709319901E+02 -0.36181637050E+03  0.38966006856E+03  0.12499776215E+03 0.  0.
          2    1    1    2  501    0 -0.32488438938E+02 -0.12086988932E+02 -0.98895049383E+03  0.98955781701E+03  0.00000000000E+00 0. -1.
          1    1    1    2  502    0 -0.27332174670E+01 -0.51622330969E+02  0.36358667908E+03  0.36724325554E+03  0.00000000000E+00 0. -1.
         22    1    3    3    0    0 -0.19418532977E+02 -0.26918685283E+02 -0.47042425676E+02  0.57573299834E+02  0.00000000000E+00 0. -1.
         22    1    3    3    0    0  0.54640189382E+02  0.90628005184E+02 -0.31477394483E+03  0.33208676872E+03  0.00000000000E+00 0. -1.
</event>
<event>
 7    1  0.5553952E-006  0.5903379E+02  0.7818608E-02  0.1492728E+00
          2   -1    0    0  502    0  0.00000000000E+00  0.00000000000E+00  0.22569177835E+04  0.22569177835E+04  0.00000000000E+00 0. -1.
          1   -1    0    0  501    0 -0.00000000000E+00 -0.00000000000E+00 -0.34532175062E+03  0.34532175062E+03  0.00000000000E+00 0. -1.
         25    2    1    2    0    0 -0.10554069839E+02 -0.42254771403E+02  0.88089087821E+03  0.89078048226E+03  0.12499709665E+03 0.  0.
          2    1    1    2  501    0 -0.29794325240E+02 -0.45762381939E+01 -0.33901112116E+03  0.34034862133E+03  0.00000000000E+00 0. -1.
          1    1    1    2  502    0  0.40348395080E+02  0.46831009596E+02  0.13697162758E+04  0.13711104305E+04  0.00000000000E+00 0. -1.
         22    1    3    3    0    0 -0.50152911967E+02 -0.67834871196E+02  0.61221957691E+03  0.61800460733E+03  0.00000000000E+00 0. -1.
         22    1    3    3    0    0  0.39598842128E+02  0.25580099794E+02  0.26867130130E+03  0.27277587493E+03  0.00000000000E+00 0. -1.
</event>
<event>
 7    1  0.5553952E-006  0.5055028E+02  0.7818608E-02  0.1548808E+00
          2   -1    0    0  502    0  0.00000000000E+00  0.00000000000E+00  0.26996182677E+03  0.26996182677E+03  0.00000000000E+00 0. -1.
          1   -1    0    0  501    0 -0.00000000000E+00 -0.00000000000E+00 -0.28886806635E+03  0.28886806635E+03  0.00000000000E+00 0. -1.
         25    2    1    2    0    0 -0.31293857673E+02  0.16570156121E+02 -0.44104245259E+02  0.13720798041E+03  0.12500787910E+03 0.  0.
          2    1    1    2  501    0  0.40907491958E+00  0.24197541040E+02 -0.19452505653E+03  0.19602470750E+03  0.00000000000E+00 0. -1.
          1    1    1    2  502    0  0.30884782753E+02 -0.40767697161E+02  0.21972306221E+03  0.22559720522E+03  0.00000000000E+00 0. -1.
         22    1    3    3    0    0 -0.37964047625E+02 -0.28096291012E+02  0.25926382965E+02  0.53878082875E+02  0.00000000000E+00 0. -1.
         22    1    3    3    0    0  0.66701899519E+01  0.44666447132E+02 -0.70030628224E+02  0.83329897533E+02  0.00000000000E+00 0. -1.
</event>
<event>
 7    1  0.5553952E-006  0.1248792E+03  0.7818608E-02  0.1279092E+00
          2   -1    0    0  502    0  0.00000000000E+00  0.00000000000E+00  0.23894503145E+04  0.23894503145E+04  0.00000000000E+00 0. -1.
          1   -1    0    0  501    0 -0.00000000000E+00 -0.00000000000E+00 -0.49879044123E+03  0.49879044123E+03  0.00000000000E+00 0. -1.
         25    2    1    2    0    0  0.48078160108E+02 -0.13589507102E+01  0.74620954015E+03  0.75813390619E+03  0.12499994271E+03 0.  0.
          2    1    1    2  501    0 -0.12115296268E+03 -0.33585666182E+02 -0.48378705683E+03  0.49985593294E+03  0.00000000000E+00 0. -1.
          1    1    1    2  502    0  0.73074802573E+02  0.34944616892E+02  0.16282373900E+04  0.16302509166E+04  0.00000000000E+00 0. -1.
         22    1    3    3    0    0  0.35079812710E+01  0.54807674088E+02  0.20634240836E+03  0.21352605593E+03  0.00000000000E+00 0. -1.
         22    1    3    3    0    0  0.44570178837E+02 -0.56166624798E+02  0.53986713179E+03  0.54460785026E+03  0.00000000000E+00 0. -1.
</event>
<event>
 7    1  0.5553952E-006  0.8073257E+02  0.7818608E-02  0.1418797E+00
          2   -1    0    0  502    0  0.00000000000E+00  0.00000000000E+00  0.51643103908E+02  0.51643103908E+02  0.00000000000E+00 0. -1.
          1   -1    0    0  501    0 -0.00000000000E+00 -0.00000000000E+00 -0.56219550623E+03  0.56219550623E+03  0.00000000000E+00 0. -1.
         25    2    1    2    0    0 -0.56343961449E+02  0.29474668835E+02 -0.12927964549E+03  0.19073762072E+03  0.12499686046E+03 0.  0.
          2    1    1    2  501    0  0.50991407028E+02 -0.66940950121E+02 -0.37550366607E+03  0.38481712231E+03  0.00000000000E+00 0. -1.
          1    1    1    2  502    0  0.53525544212E+01  0.37466281286E+02 -0.57690907610E+01  0.38283867104E+02  0.00000000000E+00 0. -1.
         22    1    3    3    0    0  0.29168597074E+01  0.61002329225E+02 -0.10071957342E+03  0.11778889893E+03  0.00000000000E+00 0. -1.
         22    1    3    3    0    0 -0.59260821157E+02 -0.31527660390E+02 -0.28560072070E+02  0.72948721787E+02  0.00000000000E+00 0. -1.
</event>
<event>
 7    1  0.5594166E-006  0.6759107E+02  0.7818608E-02  0.1369363E+00
          2   -1    0    0  502    0  0.00000000000E+00  0.00000000000E+00  0.82559359524E+03  0.82559359524E+03  0.00000000000E+00 0. -1.
          1   -1    0    0  501    0 -0.00000000000E+00 -0.00000000000E+00 -0.98525127624E+03  0.98525127624E+03  0.00000000000E+00 0. -1.
         25    2    1    2    0    0 -0.10039439683E+02  0.40038122421E+02 -0.10875891854E+03  0.17075703997E+03  0.12500249094E+03 0.  0.
          2    1    1    2  501    0  0.69465481549E+02 -0.88804651643E+01 -0.84262160461E+03  0.84552674963E+03  0.00000000000E+00 0. -1.
          1    1    1    2  502    0 -0.59426041866E+02 -0.31157657257E+02  0.79172284214E+03  0.79456108188E+03  0.00000000000E+00 0. -1.
         22    1    3    3    0    0  0.36711150965E+02 -0.22762229922E+02 -0.93076036528E+01  0.44186640537E+02  0.00000000000E+00 0. -1.
         22    1    3    3    0    0 -0.46750590648E+02  0.62800352343E+02 -0.99451314883E+02  0.12657039943E+03  0.00000000000E+00 0. -1.
</event>
<event>
 7    1  0.5553952E-006  0.1254017E+03  0.7818608E-02  0.1419520E+00
          2   -1    0    0  502    0  0.00000000000E+00  0.00000000000E+00  0.10800864558E+04  0.10800864558E+04  0.00000000000E+00 0. -1.
          1   -1    0    0  501    0 -0.00000000000E+00 -0.00000000000E+00 -0.18304800078E+04  0.18304800078E+04  0.00000000000E+00 0. -1.
         25    2    1    2    0    0 -0.13680659551E+03  0.25853227550E+02 -0.87251608110E+02  0.20645216422E+03  0.12500087617E+03 0.  0.
          2    1    1    2  501    0  0.18719715344E+02  0.15384037432E+02 -0.16797076796E+04  0.16798824320E+04  0.00000000000E+00 0. -1.
          1    1    1    2  502    0  0.11808688017E+03 -0.41237264983E+02  0.10165657357E+04  0.10242318674E+04  0.00000000000E+00 0. -1.
         22    1    3    3    0    0 -0.12185390274E+03  0.21736978855E+01 -0.11461258603E+03  0.16729956202E+03  0.00000000000E+00 0.  1.
         22    1    3    3    0    0 -0.14952692774E+02  0.23679529665E+02  0.27360977922E+02  0.39152602202E+02  0.00000000000E+00 0.  1.
</event>
<event>
 7    1  0.5553952E-006  0.5347846E+02  0.7818608E-02  0.1438881E+00
          2   -1    0    0  502    0  0.00000000000E+00  0.00000000000E+00  0.21838259595E+04  0.21838259595E+04  0.00000000000E+00 0. -1.
          1   -1    0    0  501    0 -0.00000000000E+00 -0.00000000000E+00 -0.48418454299E+02  0.48418454299E+02  0.00000000000E+00 0. -1.
         25    2    1    2    0    0 -0.83565880530E+01 -0.25628370152E+02  0.15799751664E+03  0.20326098953E+03  0.12500067473E+03 0.  0.
          2    1    1    2  501    0  0.55701591993E+02  0.76079144334E+00  0.50903254604E+01  0.55938873491E+02  0.00000000000E+00 0. -1.
          1    1    1    2  502    0 -0.47345003940E+02  0.24867578708E+02  0.19723196632E+04  0.19730445508E+04  0.00000000000E+00 0. -1.
         22    1    3    3    0    0 -0.18023444465E+02 -0.12264422946E+02  0.17686331325E+03  0.17820182994E+03  0.00000000000E+00 0. -1.
         22    1    3    3    0    0  0.96668564125E+01 -0.13363947206E+02 -0.18865796612E+02  0.25059159595E+02  0.00000000000E+00 0. -1.
</event>
<event>
 7    1  0.5553952E-006  0.9616934E+02  0.7818608E-02  0.1403328E+00
          2   -1    0    0  502    0  0.00000000000E+00  0.00000000000E+00  0.14202541667E+04  0.14202541667E+04  0.00000000000E+00 0. -1.
          1   -1    0    0  501    0 -0.00000000000E+00 -0.00000000000E+00 -0.35795178876E+02  0.35795178876E+02  0.00000000000E+00 0. -1.
         25    2    1    2    0    0  0.24042702625E+02 -0.11909620867E+03  0.54426749728E+03  0.57150196455E+03  0.12500171368E+03 0.  0.
          2    1    1    2  501    0 -0.35253356030E+02  0.85053559644E+02  0.75641170060E+02  0.11915743253E+03  0.00000000000E+00 0. -1.
          1    1    1    2  502    0  0.11210653405E+02  0.34042649023E+02  0.76455032045E+03  0.76538994846E+03  0.00000000000E+00 0. -1.
         22    1    3    3    0    0 -0.16302885036E+02 -0.77978016779E+02  0.47396060173E+03  0.48060899612E+03  0.00000000000E+00 0. -1.
         22    1    3    3    0    0  0.40345587661E+02 -0.41118191888E+02  0.70306895546E+02  0.90892968426E+02  0.00000000000E+00 0. -1.
</event>
<event>
 7    1  0.5553952E-006  0.1053758E+03  0.7818608E-02  0.1416469E+00
          2   -1    0    0  502    0  0.00000000000E+00  0.00000000000E+00  0.11321464280E+04  0.11321464280E+04  0.00000000000E+00 0. -1.
          1   -1    0    0  501    0 -0.00000000000E+00 -0.00000000000E+00 -0.11667495649E+04  0.11667495649E+04  0.00000000000E+00 0. -1.
         25    2    1    2    0    0  0.11689237324E+03 -0.58372238261E+02  0.94966131445E+02  0.20426095860E+03  0.12503130794E+03 0.  0.
          2    1    1    2  501    0 -0.87371413682E+02  0.58186473734E+02 -0.11094021794E+04  0.11143574944E+04  0.00000000000E+00 0. -1.
          1    1    1    2  502    0 -0.29520959554E+02  0.18576452696E+00  0.97983291113E+03  0.98027753993E+03  0.00000000000E+00 0. -1.
         22    1    3    3    0    0  0.24590549123E+02  0.21490889395E+02 -0.18565277372E+02  0.37566247578E+02  0.00000000000E+00 0.  1.
         22    1    3    3    0    0  0.92301824113E+02 -0.79863127656E+02  0.11353140882E+03  0.16669471102E+03  0.00000000000E+00 0.  1.
</event>
<event>
 7    1  0.5553952E-006  0.6326991E+02  0.7818608E-02  0.1436277E+00
          2   -1    0    0  502    0  0.00000000000E+00  0.00000000000E+00  0.58707996715E+03  0.58707996715E+03  0.00000000000E+00 0. -1.
          1   -1    0    0  501    0 -0.00000000000E+00 -0.00000000000E+00 -0.38161331532E+03  0.38161331532E+03  0.00000000000E+00 0. -1.
         25    2    1    2    0    0  0.47673770969E+02  0.25131036984E+02  0.33554074142E+03  0.36208626137E+03  0.12495804921E+03 0.  0.
          2    1    1    2  501    0 -0.61710049567E+02  0.14750160503E+02 -0.36369666129E+03  0.36918959748E+03  0.00000000000E+00 0. -1.
          1    1    1    2  502    0  0.14036278598E+02 -0.39881197487E+02  0.23362257170E+03  0.23741742362E+03  0.00000000000E+00 0. -1.
         22    1    3    3    0    0 -0.38968333666E+02  0.19199187786E+02  0.16609177555E+03  0.17167882148E+03  0.00000000000E+00 0.  1.
         22    1    3    3    0    0  0.86642104634E+02  0.59318491978E+01  0.16944896587E+03  0.19040743989E+03  0.00000000000E+00 0.  1.
</event>
<event>
 7    1  0.5553952E-006  0.1007059E+03  0.7818608E-02  0.1351807E+00
          2   -1    0    0  502    0  0.00000000000E+00  0.00000000000E+00  0.18785248522E+04  0.18785248522E+04  0.00000000000E+00 0. -1.
          1   -1    0    0  501    0 -0.00000000000E+00 -0.00000000000E+00 -0.11199168053E+04  0.11199168053E+04  0.00000000000E+00 0. -1.
         25    2    1    2    0    0  0.45482454670E+02 -0.19807249521E+02  0.11372983907E+03  0.17612842087E+03  0.12500305407E+03 0.  0.
          2    1    1    2  501    0 -0.95782371027E+02  0.33715400445E+02 -0.10859556738E+04  0.10906927690E+04  0.00000000000E+00 0. -1.
          1    1    1    2  502    0  0.50299916356E+02 -0.13908150924E+02  0.17308338817E+04  0.17316204677E+04  0.00000000000E+00 0. -1.
         22    1    3    3    0    0 -0.23541959741E+02 -0.75407922759E+01  0.10211789657E+03  0.10506736989E+03  0.00000000000E+00 0. -1.
         22    1    3    3    0    0  0.69024414411E+02 -0.12266457245E+02  0.11611942507E+02  0.71061050984E+02  0.00000000000E+00 0. -1.
</event>
<event>
 7    1  0.5553952E-006  0.5309827E+02  0.7818608E-02  0.1430350E+00
          2   -1    0    0  502    0  0.00000000000E+00  0.00000000000E+00  0.12016146961E+04  0.12016146961E+04  0.00000000000E+00 0. -1.
          1   -1    0    0  501    0 -0.00000000000E+00 -0.00000000000E+00 -0.11189626255E+04  0.11189626255E+04  0.00000000000E+00 0. -1.
         25    2    1    2    0    0 -0.34408647908E+02  0.18050277887E+02 -0.16412828735E+02  0.13191671136E+03  0.12499148053E+03 0.  0.
          2    1    1    2  501    0  0.39241354442E+02  0.35149803442E+02 -0.10435093210E+04  0.10448383108E+04  0.00000000000E+00 0. -1.
          1    1    1    2  502    0 -0.48327065337E+01 -0.53200081328E+02  0.11425742204E+04  0.11438222995E+04  0.00000000000E+00 0. -1.
         22    1    3    3    0    0 -0.15977088627E+02  0.35118794091E+02 -0.65931333031E+02  0.76390691413E+02  0.00000000000E+00 0.  1.
         22    1    3    3    0    0 -0.18431559281E+02 -0.17068516204E+02  0.49518504295E+02  0.55526019942E+02  0.00000000000E+00 0.  1.
</event>
<event>
 7    1  0.5553952E-006  0.1065525E+03  0.7818608E-02  0.1282893E+00
          2   -1    0    0  502    0  0.00000000000E+00  0.00000000000E+00  0.12707152460E+03  0.12707152460E+03  0.00000000000E+00 0. -1.
          1   -1    0    0  501    0 -0.00000000000E+00 -0.00000000000E+00 -0.15247066810E+04  0.15247066810E+04  0.00000000000E+00 0. -1.
         25    2    1    2    0    0  0.68442591772E+02 -0.15017288488E+03 -0.65401492274E+03  0.68599988159E+03  0.12499613856E+03 0.  0.
          2    1    1    2  501    0  0.71357117465E+01  0.98480291646E+02 -0.83240249807E+03  0.83823815531E+03  0.00000000000E+00 0. -1.
          1    1    1    2  502    0 -0.75578303519E+02  0.51692593237E+02  0.88782264413E+02  0.12754016870E+03  0.00000000000E+00 0. -1.
         22    1    3    3    0    0  0.99676934519E+02 -0.13770959055E+03 -0.49229129634E+03  0.52081680374E+03  0.00000000000E+00 0.  1.
         22    1    3    3    0    0 -0.31234342747E+02 -0.12463294329E+02 -0.16172362640E+03  0.16518307785E+03  0.00000000000E+00 0.  1.
</event>
<event>
 7    1  0.5553952E-006  0.2331444E+03  0.7818608E-02  0.1254581E+00
          2   -1    0    0  502    0  0.00000000000E+00  0.00000000000E+00  0.15514053706E+04  0.15514053706E+04  0.00000000000E+00 0. -1.
          1   -1    0    0  501    0 -0.00000000000E+00 -0.00000000000E+00 -0.13236414360E+03  0.13236414360E+03  0.00000000000E+00 0. -1.
         25    2    1    2    0    0 -0.18308186123E+03  0.29623844261E+02  0.80574006053E+03  0.83620407067E+03  0.12499465031E+03 0.  0.
          2    1    1    2  501    0  0.23795735427E+03 -0.34106108987E+02  0.87875412535E+01  0.24054968302E+03  0.00000000000E+00 0. -1.
          1    1    1    2  502    0 -0.54875493042E+02  0.44822647259E+01  0.60451362526E+03  0.60701576056E+03  0.00000000000E+00 0. -1.
         22    1    3    3    0    0 -0.11791904883E+03  0.73249174149E+02  0.60428450160E+03  0.62002427571E+03  0.00000000000E+00 0.  1.
         22    1    3    3    0    0 -0.65162812401E+02 -0.43625329888E+02  0.20145555893E+03  0.21617979496E+03  0.00000000000E+00 0.  1.
</event>
<event>
 7    1  0.5553952E-006  0.5896261E+02  0.7818608E-02  0.1404381E+00
          2   -1    0    0  502    0  0.00000000000E+00  0.00000000000E+00  0.35223270709E+03  0.35223270709E+03  0.00000000000E+00 0. -1.
          1   -1    0    0  501    0 -0.00000000000E+00 -0.00000000000E+00 -0.37529760596E+03  0.37529760596E+03  0.00000000000E+00 0. -1.
         25    2    1    2    0    0 -0.11266301425E+01 -0.82167512782E+01 -0.65495321679E+02  0.14136420260E+03  0.12500166526E+03 0.  0.
          2    1    1    2  501    0 -0.57608484211E+02 -0.65113946048E+01 -0.26579731614E+03  0.27204659340E+03  0.00000000000E+00 0. -1.
          1    1    1    2  502    0  0.58735114354E+02  0.14728145883E+02  0.30822773895E+03  0.31411951706E+03  0.00000000000E+00 0. -1.
         22    1    3    3    0    0 -0.50170270252E+02  0.99719969235E+01 -0.72353349482E+02  0.88608712444E+02  0.00000000000E+00 0.  1.
         22    1    3    3    0    0  0.49043640109E+02 -0.18188748202E+02  0.68580278029E+01  0.52755490157E+02  0.00000000000E+00 0.  1.
</event>
<event>
 7    1  0.5553952E-006  0.5810470E+02  0.7818608E-02  0.1406440E+00
          2   -1    0    0  502    0  0.00000000000E+00  0.00000000000E+00  0.86715474109E+03  0.86715474109E+03  0.00000000000E+00 0. -1.
          1   -1    0    0  501    0 -0.00000000000E+00 -0.00000000000E+00 -0.43929841923E+03  0.43929841923E+03  0.00000000000E+00 0. -1.
         25    2    1    2    0    0  0.94399042058E+02 -0.60002736913E+01 -0.88976776308E+02  0.18025600277E+03  0.12501270891E+03 0.  0.
          2    1    1    2  501    0 -0.49277776189E+02 -0.30374426410E+02 -0.30089757742E+03  0.30641517114E+03  0.00000000000E+00 0. -1.
          1    1    1    2  502    0 -0.45121265869E+02  0.36374700102E+02  0.81773067558E+03  0.81978198640E+03  0.00000000000E+00 0. -1.
         22    1    3    3    0    0  0.19963709751E+02  0.24387498424E+02 -0.94549405180E+02  0.99663884162E+02  0.00000000000E+00 0.  1.
         22    1    3    3    0    0  0.74435332307E+02 -0.30387772115E+02  0.55726288721E+01  0.80592118611E+02  0.00000000000E+00 0.  1.
</event>
<event>
 7    1  0.5553952E-006  0.4933550E+02  0.7818608E-02  0.1459092E+00
          2   -1    0    0  502    0  0.00000000000E+00  0.00000000000E+00  0.10200040044E+04  0.10200040044E+04  0.00000000000E+00 0. -1.
          1   -1    0    0  501    0 -0.00000000000E+00 -0.00000000000E+00 -0.12609712895E+03  0.12609712895E+03  0.00000000000E+00 0. -1.
         25    2    1    2    0    0  0.18184309274E+02 -0.13571612112E+02  0.92793004548E+02  0.15732230357E+03  0.12499963099E+03 0.  0.
          2    1    1    2  501    0  0.84429411583E+01  0.50843509350E+02 -0.86119443759E+02  0.10036385949E+03  0.00000000000E+00 0. -1.
          1    1    1    2  502    0 -0.26627250433E+02 -0.37271897238E+02  0.88723331464E+03  0.88841497027E+03  0.00000000000E+00 0. -1.
         22    1    3    3    0    0 -0.11217235310E+02  0.15886321949E+02  0.11042292468E+03  0.11212236123E+03  0.00000000000E+00 0.  1.
         22    1    3    3    0    0  0.29401544585E+02 -0.29457934061E+02 -0.17629920136E+02  0.45199942335E+02  0.00000000000E+00 0.  1.
</event>
<event>
 7    1  0.5553952E-006  0.1399306E+03  0.7818608E-02  0.1377753E+00
          2   -1    0    0  502    0  0.00000000000E+00  0.00000000000E+00  0.22075367528E+04  0.22075367528E+04  0.00000000000E+00 0. -1.
          1   -1    0    0  501    0 -0.00000000000E+00 -0.00000000000E+00 -0.28558820152E+03  0.28558820152E+03  0.00000000000E+00 0. -1.
         25    2    1    2    0    0 -0.10198711119E+03  0.46350052246E+02  0.17228244989E+02  0.16873556952E+03  0.12500072721E+03 0.  0.
          2    1    1    2  501    0 -0.21530325320E+02  0.21245359594E+02 -0.20638699029E+03  0.20859173036E+03  0.00000000000E+00 0. -1.
          1    1    1    2  502    0  0.12351743651E+03 -0.67595411840E+02  0.21111072966E+04  0.21157976545E+04  0.00000000000E+00 0. -1.
         22    1    3    3    0    0 -0.40862087783E+02  0.85783251499E+02  0.69511405515E+01  0.95272214264E+02  0.00000000000E+00 0. -1.
         22    1    3    3    0    0 -0.61125023408E+02 -0.39433199253E+02  0.10277104437E+02  0.73463355257E+02  0.00000000000E+00 0. -1.
</event>
<event>
 7    1  0.5553952E-006  0.5358189E+02  0.7818608E-02  0.1476846E+00
          2   -1    0    0  502    0  0.00000000000E+00  0.00000000000E+00  0.25791187269E+04  0.25791187269E+04  0.00000000000E+00 0. -1.
          1   -1    0    0  501    0 -0.00000000000E+00 -0.00000000000E+00 -0.56705513266E+03  0.56705513266E+03  0.00000000000E+00 0. -1.
         25    2    1    2    0    0 -0.24354451033E+02 -0.26800388093E+02 -0.14048663024E+03  0.19150279585E+03  0.12500170981E+03 0.  0.
          2    1    1    2  501    0  0.85064396336E+00  0.55539104583E+02 -0.39900150574E+03  0.40284924887E+03  0.00000000000E+00 0. -1.
          1    1    1    2  502    0  0.23503807070E+02 -0.28738716490E+02  0.25515517302E+04  0.25518218148E+04  0.00000000000E+00 0. -1.
         22    1    3    3    0    0  0.25451384330E+02  0.38325197716E+02 -0.67790898316E+02  0.81928014981E+02  0.00000000000E+00 0. -1.
         22    1    3    3    0    0 -0.49805835363E+02 -0.65125585809E+02 -0.72695731921E+02  0.10957478087E+03  0.00000000000E+00 0. -1.
</event>
<event>
 7    1  0.5553952E-006  0.1211012E+03  0.7818608E-02  0.1400120E+00
          2   -1    0    0  502    0  0.00000000000E+00  0.00000000000E+00  0.16688026204E+04  0.16688026204E+04  0.00000000000E+00 0. -1.
          1   -1    0    0  501    0 -0.00000000000E+00 -0.00000000000E+00 -0.99343524717E+02  0.99343524717E+02  0.00000000000E+00 0. -1.
         25    2    1    2    0    0 -0.86892284086E+02  0.35236580548E+02  0.62468480249E+03  0.64393100095E+03  0.12499658344E+03 0.  0.
          2    1    1    2  501    0  0.11453427030E+03 -0.44624729084E+02 -0.47303200902E+02  0.13170823184E+03  0.00000000000E+00 0. -1.
          1    1    1    2  502    0 -0.27641986218E+02  0.93881485357E+01  0.99207749411E+03  0.99250691235E+03  0.00000000000E+00 0. -1.
         22    1    3    3    0    0 -0.63090916045E+02  0.36819964548E+02  0.13359551042E+03  0.15226271337E+03  0.00000000000E+00 0. -1.
         22    1    3    3    0    0 -0.23801368041E+02 -0.15833839995E+01  0.49108929207E+03  0.49166828758E+03  0.00000000000E+00 0. -1.
</event>
<event>
 7    1  0.5553952E-006  0.9029102E+02  0.7818608E-02  0.1486448E+00
          2   -1    0    0  502    0  0.00000000000E+00  0.00000000000E+00  0.37223906246E+04  0.37223906246E+04  0.00000000000E+00 0. -1.
          1   -1    0    0  501    0 -0.00000000000E+00 -0.00000000000E+00 -0.17854180071E+04  0.17854180071E+04  0.00000000000E+00 0. -1.
         25    2    1    2    0    0  0.81036268044E+02 -0.38517204931E+02 -0.23774972801E+03  0.28319740518E+03  0.12500154127E+03 0.  0.
          2    1    1    2  501    0 -0.10420453809E+02 -0.17758771553E+02 -0.15243239338E+04  0.15244629924E+04  0.00000000000E+00 0. -1.
          1    1    1    2  502    0 -0.70615814235E+02  0.56275976485E+02  0.36990462793E+04  0.37001482342E+04  0.00000000000E+00 0. -1.
         22    1    3    3    0    0  0.11429271708E+02  0.34371453468E+02 -0.15960735535E+02  0.39582447424E+02  0.00000000000E+00 0. -1.
         22    1    3    3    0    0  0.69606996336E+02 -0.72888658399E+02 -0.22178899247E+03  0.24361495776E+03  0.00000000000E+00 0. -1.
</event>
<event>
 7    1  0.5553952E-006  0.1330991E+03  0.7818608E-02  0.1281082E+00
          2   -1    0    0  502    0  0.00000000000E+00  0.00000000000E+00  0.17480949394E+04  0.17480949394E+04  0.00000000000E+00 0. -1.
          1   -1    0    0  501    0 -0.00000000000E+00 -0.00000000000E+00 -0.18486246818E+04  0.18486246818E+04  0.00000000000E+00 0. -1.
         25    2    1    2    0    0  0.81983642527E+02 -0.11617226367E+03  0.26769556379E+03  0.32787627599E+03  0.12499849996E+03 0.  0.
          2    1    1    2  501    0 -0.93037603703E+01  0.13286646072E+03 -0.18151340374E+04  0.18200141841E+04  0.00000000000E+00 0. -1.
          1    1    1    2  502    0 -0.72679882156E+02 -0.16694197052E+02  0.14469087312E+04  0.14488291611E+04  0.00000000000E+00 0. -1.
         22    1    3    3    0    0  0.56509208499E+02 -0.84414008669E+02  0.63800626066E+02  0.11995638954E+03  0.00000000000E+00 0.  1.
         22    1    3    3    0    0  0.25474434027E+02 -0.31758255003E+02  0.20389493773E+03  0.20791988645E+03  0.00000000000E+00 0.  1.
</event>
<event>
 7    1  0.5553952E-006  0.3915889E+02  0.7818608E-02  0.1593937E+00
          2   -1    0    0  502    0  0.00000000000E+00  0.00000000000E+00  0.62761673343E+03  0.62761673343E+03  0.00000000000E+00 0. -1.
          1   -1    0    0  501    0 -0.00000000000E+00 -0.00000000000E+00 -0.34837870635E+02  0.34837870635E+02  0.00000000000E+00 0. -1.
         25    2    1    2    0    0  0.16051922010E+02 -0.43802671479E+01  0.17057437798E+03  0.21212772767E+03  0.12500281389E+03 0.  0.
          2    1    1    2  501    0  0.22305577419E+02 -0.76087371802E+01 -0.25230976270E+01  0.23702271771E+02  0.00000000000E+00 0. -1.
          1    1    1    2  502    0 -0.38357499430E+02  0.11989004328E+02  0.42472758244E+03  0.42662460463E+03  0.00000000000E+00 0. -1.
         22    1    3    3    0    0  0.20535129013E+01 -0.60790480815E+02  0.51792083568E+02  0.79888168043E+02  0.00000000000E+00 0.  1.
         22    1    3    3    0    0  0.13998409109E+02  0.56410213667E+02  0.11878229441E+03  0.13223955963E+03  0.00000000000E+00 0.  1.
</event>
<event>
 7    1  0.5553952E-006  0.7223906E+02  0.7818608E-02  0.1443100E+00
          2   -1    0    0  502    0  0.00000000000E+00  0.00000000000E+00  0.59513872272E+03  0.59513872272E+03  0.00000000000E+00 0. -1.
          1   -1    0    0  501    0 -0.00000000000E+00 -0.00000000000E+00 -0.25178677517E+03  0.25178677517E+03  0.00000000000E+00 0. -1.
         25    2    1    2    0    0 -0.46011597148E+02  0.21655767333E+02 -0.13391018738E+03  0.19011567971E+03  0.12500397616E+03 0.  0.
          2    1    1    2  501    0  0.80184417004E+00  0.35179153873E+02 -0.83893492136E+02  0.90974358168E+02  0.00000000000E+00 0. -1.
          1    1    1    2  502    0  0.45209752978E+02 -0.56834921206E+02  0.56115562706E+03  0.56583546002E+03  0.00000000000E+00 0. -1.
         22    1    3    3    0    0 -0.76480635020E+02 -0.21183765717E+02 -0.60343606183E+02  0.99696490761E+02  0.00000000000E+00 0. -1.
         22    1    3    3    0    0  0.30469037872E+02  0.42839533050E+02 -0.73566581197E+02  0.90419188947E+02  0.00000000000E+00 0. -1.
</event>
<event>
 7    1  0.5553952E-006  0.5545752E+02  0.7818608E-02  0.1507751E+00
          2   -1    0    0  502    0  0.00000000000E+00  0.00000000000E+00  0.94191171770E+03  0.94191171770E+03  0.00000000000E+00 0. -1.
          1   -1    0    0  501    0 -0.00000000000E+00 -0.00000000000E+00 -0.19652879520E+04  0.19652879520E+04  0.00000000000E+00 0. -1.
         25    2    1    2    0    0 -0.93681765809E+01 -0.60220518655E+02 -0.45556340642E+02  0.14633324791E+03  0.12499506259E+03 0.  0.
          2    1    1    2  501    0  0.27838565498E+02  0.79127506515E+01 -0.18683680585E+04  0.18685921972E+04  0.00000000000E+00 0. -1.
          1    1    1    2  502    0 -0.18470388917E+02  0.52307768003E+02  0.89054816488E+03  0.89227422457E+03  0.00000000000E+00 0. -1.
         22    1    3    3    0    0  0.55607187187E+02 -0.95593285025E+01 -0.14250321495E+02  0.58194601906E+02  0.00000000000E+00 0. -1.
         22    1    3    3    0    0 -0.64975363768E+02 -0.50661190152E+02 -0.31306019147E+02  0.88138646003E+02  0.00000000000E+00 0. -1.
</event>
<event>
 7    1  0.5553952E-006  0.5811650E+02  0.7818608E-02  0.1494805E+00
          2   -1    0    0  502    0  0.00000000000E+00  0.00000000000E+00  0.75697071041E+03  0.75697071041E+03  0.00000000000E+00 0. -1.
          1   -1    0    0  501    0 -0.00000000000E+00 -0.00000000000E+00 -0.36457629336E+03  0.36457629336E+03  0.00000000000E+00 0. -1.
         25    2    1    2    0    0 -0.72562537383E+02 -0.52660087895E+01  0.87618049422E+02  0.16909518133E+03  0.12499282013E+03 0.  0.
          2    1    1    2  501    0  0.51383459109E+02  0.26769347769E+02 -0.32087956173E+03  0.32606832258E+03  0.00000000000E+00 0. -1.
          1    1    1    2  502    0  0.21179078274E+02 -0.21503338979E+02  0.62565592936E+03  0.62638349986E+03  0.00000000000E+00 0. -1.
         22    1    3    3    0    0 -0.26348270444E+02 -0.53381233490E+02  0.71104900112E+00  0.59533965389E+02  0.00000000000E+00 0.  1.
         22    1    3    3    0    0 -0.46214266939E+02  0.48115224700E+02  0.86907000421E+02  0.10956121594E+03  0.00000000000E+00 0.  1.
</event>
<event>
 7    1  0.5553952E-006  0.8301056E+02  0.7818608E-02  0.1410468E+00
          2   -1    0    0  502    0  0.00000000000E+00  0.00000000000E+00  0.16835594564E+04  0.16835594564E+04  0.00000000000E+00 0. -1.
          1   -1    0    0  501    0 -0.00000000000E+00 -0.00000000000E+00 -0.22103403669E+03  0.22103403669E+03  0.00000000000E+00 0. -1.
         25    2    1    2    0    0 -0.11838950992E+03 -0.91265387156E+01  0.40215836887E+03  0.43755587593E+03  0.12499768453E+03 0.  0.
          2    1    1    2  501    0  0.37942968539E+02  0.10094352407E+02 -0.20014548942E+03  0.20396024550E+03  0.00000000000E+00 0. -1.
          1    1    1    2  502    0  0.80446541378E+02 -0.96781369164E+00  0.12605125402E+04  0.12630773717E+04  0.00000000000E+00 0. -1.
         22    1    3    3    0    0 -0.36874180134E+02  0.56343640217E+02  0.14127869939E+03  0.15650553298E+03  0.00000000000E+00 0.  1.
         22    1    3    3    0    0 -0.81515329783E+02 -0.65470178933E+02  0.26087966948E+03  0.28105034295E+03  0.00000000000E+00 0.  1.
</event>
<event>
 7    1  0.5553952E-006  0.7631870E+02  0.7818608E-02  0.1388174E+00
          2   -1    0    0  502    0  0.00000000000E+00  0.00000000000E+00  0.12403227593E+04  0.12403227593E+04  0.00000000000E+00 0. -1.
          1   -1    0    0  501    0 -0.00000000000E+00 -0.00000000000E+00 -0.68566127552E+02  0.68566127552E+02  0.00000000000E+00 0. -1.
         25    2    1    2    0    0  0.29636731960E+01 -0.94916725810E+02  0.21097584448E+03  0.26298057748E+03  0.12502003432E+03 0.  0.
          2    1    1    2  501    0  0.39692213190E+02  0.31959303356E+02 -0.25303602522E+02  0.56895879988E+02  0.00000000000E+00 0. -1.
          1    1    1    2  502    0 -0.42655886386E+02  0.62957422454E+02  0.98608438983E+03  0.98901242942E+03  0.00000000000E+00 0. -1.
         22    1    3    3    0    0  0.18089509654E+02 -0.22944132511E+02 -0.93715831523E+01  0.30683711428E+02  0.00000000000E+00 0.  1.
         22    1    3    3    0    0 -0.15125836458E+02 -0.71972593299E+02  0.22034742763E+03  0.23229686605E+03  0.00000000000E+00 0.  1.
</event>
<event>
 7    1  0.5553952E-006  0.1844995E+03  0.7818608E-02  0.1264282E+00
          2   -1    0    0  502    0  0.00000000000E+00  0.00000000000E+00  0.26707141514E+03  0.26707141514E+03  0.00000000000E+00 0. -1.
          1   -1    0    0  501    0 -0.00000000000E+00 -0.00000000000E+00 -0.10077961841E+04  0.10077961841E+04  0.00000000000E+00 0. -1.
         25    2    1    2    0    0 -0.12276934248E+03 -0.47962133043E+02 -0.81560081089E+02  0.19915848936E+03  0.12505750436E+03 0.  0.
          2    1    1    2  501    0  0.18485428830E+03  0.60006541494E+02 -0.85141951016E+03  0.87331957221E+03  0.00000000000E+00 0. -1.
          1    1    1    2  502    0 -0.62084945817E+02 -0.12044408451E+02  0.19225482228E+03  0.20238953768E+03  0.00000000000E+00 0. -1.
         22    1    3    3    0    0 -0.28991112647E+02 -0.24572521357E+02 -0.94301332639E+02  0.10167120908E+03  0.00000000000E+00 0. -1.
         22    1    3    3    0    0 -0.93778229831E+02 -0.23389611687E+02  0.12741251550E+02  0.97487280279E+02  0.00000000000E+00 0. -1.
</event>
<event>
 7    1  0.5553952E-006  0.7064546E+02  0.7818608E-02  0.1452773E+00
          2   -1    0    0  502    0  0.00000000000E+00  0.00000000000E+00  0.10902317911E+03  0.10902317911E+03  0.00000000000E+00 0. -1.
          1   -1    0    0  501    0 -0.00000000000E+00 -0.00000000000E+00 -0.17166117923E+03  0.17166117923E+03  0.00000000000E+00 0. -1.
         25    2    1    2    0    0 -0.38215451689E+02 -0.36268176955E+02 -0.21198359457E+02  0.13728709700E+03  0.12499030023E+03 0.  0.
          2    1    1    2  501    0  0.71048890199E+02  0.29618003587E+02 -0.66371045525E+02  0.10163801759E+03  0.00000000000E+00 0. -1.
          1    1    1    2  502    0 -0.32833438511E+02  0.66501733683E+01  0.24931404856E+02  0.41759243747E+02  0.00000000000E+00 0. -1.
         22    1    3    3    0    0  0.34074031369E+02 -0.51505172875E+02 -0.10327545102E+02  0.62613741579E+02  0.00000000000E+00 0.  1.
         22    1    3    3    0    0 -0.72289483057E+02  0.15236995920E+02 -0.10870814355E+02  0.74673355423E+02  0.00000000000E+00 0.  1.
</event>
<event>
 7    1  0.8491561E-006  0.4251450E+02  0.7818608E-02  0.1495433E+00
          2   -1    0    0  502    0  0.00000000000E+00  0.00000000000E+00  0.24703151949E+04  0.24703151949E+04  0.00000000000E+00 0. -1.
          1   -1    0    0  501    0 -0.00000000000E+00 -0.00000000000E+00 -0.34949173732E+03  0.34949173732E+03  0.00000000000E+00 0. -1.
         25    2    1    2    0    0  0.62546236584E+01  0.27325641313E+02 -0.16075338571E+03  0.20557893501E+03  0.12504093935E+03 0.  0.
          2    1    1    2  501    0 -0.44748959093E+02 -0.12984048477E+02 -0.16288635575E+03  0.16941965572E+03  0.00000000000E+00 0. -1.
          1    1    1    2  502    0  0.38494335434E+02 -0.14341592836E+02  0.24444631990E+04  0.24448083414E+04  0.00000000000E+00 0. -1.
         22    1    3    3    0    0 -0.41503066851E+02 -0.24030940277E+02 -0.10687331071E+03  0.11714049339E+03  0.00000000000E+00 0.  1.
         22    1    3    3    0    0  0.47757690509E+02  0.51356581590E+02 -0.53880074993E+02  0.88438441623E+02  0.00000000000E+00 0.  1.
</event>
<event>
 7    1  0.5553952E-006  0.7430340E+02  0.7818608E-02  0.1406097E+00
          2   -1    0    0  502    0  0.00000000000E+00  0.00000000000E+00  0.24344477306E+04  0.24344477306E+04  0.00000000000E+00 0. -1.
          1   -1    0    0  501    0 -0.00000000000E+00 -0.00000000000E+00 -0.48271683534E+03  0.48271683534E+03  0.00000000000E+00 0. -1.
         25    2    1    2    0    0  0.26294161605E+02  0.98808009219E+02  0.34677779098E+03  0.38253498979E+03  0.12499510582E+03 0.  0.
          2    1    1    2  501    0 -0.37174829545E+02 -0.26042544331E+02 -0.46307447923E+03  0.46529362276E+03  0.00000000000E+00 0. -1.
          1    1    1    2  502    0  0.10880667941E+02 -0.72765464888E+02  0.20680275835E+04  0.20693359534E+04  0.00000000000E+00 0. -1.
         22    1    3    3    0    0 -0.32496433475E+00  0.11574260428E+03  0.32275505831E+03  0.34288085936E+03  0.00000000000E+00 0. -1.
         22    1    3    3    0    0  0.26619125939E+02 -0.16934595062E+02  0.24022732667E+02  0.39654130434E+02  0.00000000000E+00 0. -1.
</event>
<event>
 7    1  0.5553952E-006  0.6267083E+02  0.7818608E-02  0.1415798E+00
          2   -1    0    0  502    0  0.00000000000E+00  0.00000000000E+00  0.21526628194E+03  0.21526628194E+03  0.00000000000E+00 0. -1.
          1   -1    0    0  501    0 -0.00000000000E+00 -0.00000000000E+00 -0.39705476330E+03  0.39705476330E+03  0.00000000000E+00 0. -1.
         25    2    1    2    0    0  0.18278450892E+02 -0.58692753581E+02 -0.42004809690E+02  0.14549630114E+03  0.12500331403E+03 0.  0.
          2    1    1    2  501    0 -0.49805796391E+02  0.30018135779E+01 -0.29486561670E+03  0.29905745293E+03  0.00000000000E+00 0. -1.
          1    1    1    2  502    0  0.31527345499E+02  0.55690940003E+02  0.15508194503E+03  0.16776729117E+03  0.00000000000E+00 0. -1.
         22    1    3    3    0    0 -0.45296585443E+02  0.81729272998E+01 -0.22322833592E+02  0.51155510877E+02  0.00000000000E+00 0. -1.
         22    1    3    3    0    0  0.63575036336E+02 -0.66865680881E+02 -0.19681976098E+02  0.94340790265E+02  0.00000000000E+00 0. -1.
</event>
<event>
 7    1  0.5553952E-006  0.7025704E+02  0.7818608E-02  0.1369207E+00
          2   -1    0    0  502    0  0.00000000000E+00  0.00000000000E+00  0.62965224131E+03  0.62965224131E+03  0.00000000000E+00 0. -1.
          1   -1    0    0  501    0 -0.00000000000E+00 -0.00000000000E+00 -0.41185520073E+03  0.41185520073E+03  0.00000000000E+00 0. -1.
         25    2    1    2    0    0  0.14049582195E+01  0.37025165517E+02 -0.18804335745E+03  0.22881573080E+03  0.12499399021E+03 0.  0.
          2    1    1    2  501    0 -0.57747294060E+02 -0.68701327710E+02 -0.19169853438E+03  0.21166707464E+03  0.00000000000E+00 0. -1.
          1    1    1    2  502    0  0.56342335840E+02  0.31676162193E+02  0.59753893241E+03  0.60102463661E+03  0.00000000000E+00 0. -1.
         22    1    3    3    0    0  0.42338390564E+02  0.45060751126E+02 -0.17422605292E+03  0.18487219402E+03  0.00000000000E+00 0.  1.
         22    1    3    3    0    0 -0.40933432344E+02 -0.80355856088E+01 -0.13817304534E+02  0.43943536773E+02  0.00000000000E+00 0.  1.
</event>
<event>
 7    1  0.5553952E-006  0.4737464E+02  0.7818608E-02  0.1538553E+00
          2   -1    0    0  502    0  0.00000000000E+00  0.00000000000E+00  0.36766192240E+03  0.36766192240E+03  0.00000000000E+00 0. -1.
          1   -1    0    0  501    0 -0.00000000000E+00 -0.00000000000E+00 -0.23522049598E+03  0.23522049598E+03  0.00000000000E+00 0. -1.
         25    2    1    2    0    0 -0.61006156100E+02  0.42228426083E+02 -0.78454490369E+02  0.16518192495E+03  0.12499988088E+03 0.  0.
          2    1    1    2  501    0  0.24607152460E+02 -0.12492920751E+02 -0.10998563357E+03  0.11339499377E+03  0.00000000000E+00 0. -1.
          1    1    1    2  502    0  0.36399003639E+02 -0.29735505332E+02  0.32088155036E+03  0.32430549965E+03  0.00000000000E+00 0. -1.
         22    1    3    3    0    0 -0.11157650181E+02 -0.40816360495E+02 -0.47238334201E+02  0.63418677531E+02  0.00000000000E+00 0. -1.
         22    1    3    3    0    0 -0.49848505919E+02  0.83044786578E+02 -0.31216156168E+02  0.10176324742E+03  0.00000000000E+00 0. -1.
</event>
<event>
 7    1  0.5553952E-006  0.8680113E+02  0.7818608E-02  0.1368865E+00
          2   -1    0    0  502    0  0.00000000000E+00  0.00000000000E+00  0.10069013644E+04  0.10069013644E+04  0.00000000000E+00 0. -1.
          1   -1    0    0  501    0 -0.00000000000E+00 -0.00000000000E+00 -0.80846460286E+03  0.80846460286E+03  0.00000000000E+00 0. -1.
         25    2    1    2    0    0 -0.13729335517E+03 -0.52914066200E+01 -0.36963594651E+02  0.18938733116E+03  0.12499515798E+03 0.  0.
          2    1    1    2  501    0  0.51499684170E+02  0.10019798971E+02 -0.69231126804E+03  0.69429641055E+03  0.00000000000E+00 0. -1.
          1    1    1    2  502    0  0.85793670997E+02 -0.47283923507E+01  0.92771162425E+03  0.93168222557E+03  0.00000000000E+00 0. -1.
         22    1    3    3    0    0 -0.70739113894E+02  0.50222730972E+02 -0.52406211211E+02  0.10135460480E+03  0.00000000000E+00 0.  1.
         22    1    3    3    0    0 -0.66554241273E+02 -0.55514137592E+02  0.15442616561E+02  0.88032726359E+02  0.00000000000E+00 0.  1.
</event>
<event>
 7    1  0.5553952E-006  0.6581493E+02  0.7818608E-02  0.1393348E+00
          2   -1    0    0  502    0  0.00000000000E+00  0.00000000000E+00  0.14836171622E+04  0.14836171622E+04  0.00000000000E+00 0. -1.
          1   -1    0    0  501    0 -0.00000000000E+00 -0.00000000000E+00 -0.19797975392E+04  0.19797975392E+04  0.00000000000E+00 0. -1.
         25    2    1    2    0    0 -0.56982263990E+02  0.61307323950E+02  0.84567545987E+03  0.85895122773E+03  0.12499864721E+03 0.  0.
          2    1    1    2  501    0  0.65605568495E+02 -0.52782754830E+01 -0.19713367224E+04  0.19724351508E+04  0.00000000000E+00 0. -1.
          1    1    1    2  502    0 -0.86233045045E+01 -0.56029048467E+02  0.62948088557E+03  0.63202832290E+03  0.00000000000E+00 0. -1.
         22    1    3    3    0    0 -0.65879900912E+02  0.92268879772E+02  0.55258326467E+03  0.56409393891E+03  0.00000000000E+00 0. -1.
         22    1    3    3    0    0  0.88976369215E+01 -0.30961555821E+02  0.29309219520E+03  0.29485728882E+03  0.00000000000E+00 0. -1.
</event>
<event>
 7    1  0.5553952E-006  0.8927882E+02  0.7818608E-02  0.1327353E+00
          2   -1    0    0  502    0  0.00000000000E+00  0.00000000000E+00  0.22734099450E+04  0.22734099450E+04  0.00000000000E+00 0. -1.
          1   -1    0    0  501    0 -0.00000000000E+00 -0.00000000000E+00 -0.56075116017E+02  0.56075116017E+02  0.00000000000E+00 0. -1.
         25    2    1    2    0    0  0.35444518211E+02  0.10787625189E+03  0.34396815730E+03  0.38318752406E+03  0.12499994308E+03 0.  0.
          2    1    1    2  501    0  0.40312988326E+02 -0.60580266431E+02  0.19937942593E+01  0.72794786380E+02  0.00000000000E+00 0. -1.
          1    1    1    2  502    0 -0.75757506537E+02 -0.47295985463E+02  0.18713728774E+04  0.18735027505E+04  0.00000000000E+00 0. -1.
         22    1    3    3    0    0  0.53786968156E+02  0.12839033267E+03  0.30715392102E+03  0.33722492000E+03  0.00000000000E+00 0. -1.
         22    1    3    3    0    0 -0.18342449945E+02 -0.20514080777E+02  0.36814236272E+02  0.45962604065E+02  0.00000000000E+00 0. -1.
</event>
<event>
 7    1  0.5553952E-006  0.6841925E+02  0.7818608E-02  0.1389460E+00
          2   -1    0    0  502    0  0.00000000000E+00  0.00000000000E+00  0.14479960125E+04  0.14479960125E+04  0.00000000000E+00 0. -1.
          1   -1    0    0  501    0 -0.00000000000E+00 -0.00000000000E+00 -0.11088157153E+03  0.11088157153E+03  0.00000000000E+00 0. -1.
         25    2    1    2    0    0 -0.54178137115E+02  0.58500434044E+02  0.17265510448E+03  0.22758142077E+03  0.12500378654E+03 0.  0.
          2    1    1    2  501    0 -0.10761471716E+01 -0.69079264648E+02 -0.68361379124E+02  0.97192494838E+02  0.00000000000E+00 0. -1.
          1    1    1    2  502    0  0.55254284286E+02  0.10578830605E+02  0.12328207156E+04  0.12341036684E+04  0.00000000000E+00 0. -1.
         22    1    3    3    0    0 -0.22469071231E+02 -0.24311247854E+02  0.11993135989E+03  0.12441634547E+03  0.00000000000E+00 0.  1.
         22    1    3    3    0    0 -0.31709065884E+02  0.82811681897E+02  0.52723744593E+02  0.10316507530E+03  0.00000000000E+00 0.  1.
</event>
<event>
 7    1  0.5553952E-006  0.1131304E+03  0.7818608E-02  0.1272844E+00
          2   -1    0    0  502    0  0.00000000000E+00  0.00000000000E+00  0.26733691202E+03  0.26733691202E+03  0.00000000000E+00 0. -1.
          1   -1    0    0  501    0 -0.00000000000E+00 -0.00000000000E+00 -0.86961336412E+03  0.86961336412E+03  0.00000000000E+00 0. -1.
         25    2    1    2    0    0 -0.80683967508E+01  0.91789070928E+01 -0.20273152311E+03  0.23848725138E+03  0.12500698880E+03 0.  0.
          2    1    1    2  501    0  0.17430693279E+02 -0.12192120346E+03 -0.62989981771E+03  0.64182738277E+03  0.00000000000E+00 0. -1.
          1    1    1    2  502    0 -0.93622965282E+01  0.11274229637E+03  0.23035488871E+03  0.25663564199E+03  0.00000000000E+00 0. -1.
         22    1    3    3    0    0  0.89809157369E+01 -0.56454940578E+02 -0.10466360144E+03  0.11925722884E+03  0.00000000000E+00 0.  1.
         22    1    3    3    0    0 -0.17049312488E+02  0.65633847671E+02 -0.98067921664E+02  0.11923002254E+03  0.00000000000E+00 0.  1.
</event>
<event>
 7    1  0.5553952E-006  0.1040277E+03  0.7818608E-02  0.1329118E+00
          2   -1    0    0  502    0  0.00000000000E+00  0.00000000000E+00  0.28834354342E+04  0.28834354342E+04  0.00000000000E+00 0. -1.
          1   -1    0    0  501    0 -0.00000000000E+00 -0.00000000000E+00 -0.34810600184E+03  0.34810600184E+03  0.00000000000E+00 0. -1.
         25    2    1    2    0    0  0.44069754202E+02 -0.45993975728E+02  0.11259505044E+04  0.11346572682E+04  0.12499995574E+03 0.  0.
          2    1    1    2  501    0 -0.19799591135E+02  0.10248707309E+03 -0.33527452673E+03  0.35114759323E+03  0.00000000000E+00 0. -1.
          1    1    1    2  502    0 -0.24270163067E+02 -0.56493097359E+02  0.17446534547E+04  0.17457365746E+04  0.00000000000E+00 0. -1.
         22    1    3    3    0    0  0.30518358186E+02 -0.29712001045E+02  0.11014314310E+04  0.11022546758E+04  0.00000000000E+00 0.  1.
         22    1    3    3    0    0  0.13551396016E+02 -0.16281974682E+02  0.24519073404E+02  0.32402592398E+02  0.00000000000E+00 0.  1.
</event>
<event>
 7    1  0.5553952E-006  0.5754634E+02  0.7818608E-02  0.1489899E+00
          2   -1    0    0  502    0  0.00000000000E+00  0.00000000000E+00  0.79557502939E+03  0.79557502939E+03  0.00000000000E+00 0. -1.
          1   -1    0    0  501    0 -0.00000000000E+00 -0.00000000000E+00 -0.21652969026E+03  0.21652969026E+03  0.00000000000E+00 0. -1.
         25    2    1    2    0    0 -0.31405153270E+00  0.39706077549E+02  0.20916268992E+03  0.24688192662E+03  0.12499993446E+03 0.  0.
          2    1    1    2  501    0  0.30314720982E+02 -0.49429481175E+02 -0.19296677932E+03  0.20149053039E+03  0.00000000000E+00 0. -1.
          1    1    1    2  502    0 -0.30000669449E+02  0.97234036259E+01  0.56284942853E+03  0.56373226264E+03  0.00000000000E+00 0. -1.
         22    1    3    3    0    0  0.12793161726E+02  0.68653936588E+00 -0.14565778929E+02  0.19398408158E+02  0.00000000000E+00 0.  1.
         22    1    3    3    0    0 -0.13107213259E+02  0.39019538183E+02  0.22372846885E+03  0.22748351846E+03  0.00000000000E+00 0.  1.
</event>
<event>
 7    1  0.6984568E-006  0.1265550E+03  0.7818608E-02  0.1280992E+00
          2   -1    0    0  502    0  0.00000000000E+00  0.00000000000E+00  0.13263747812E+04  0.13263747812E+04  0.00000000000E+00 0. -1.
          1   -1    0    0  501    0 -0.00000000000E+00 -0.00000000000E+00 -0.19958476586E+04  0.19958476586E+04  0.00000000000E+00 0. -1.
         25    2    1    2    0    0  0.53779427136E+02 -0.11497208076E+03 -0.89643826159E+03  0.91396807478E+03  0.12500111492E+03 0.  0.
          2    1    1    2  501    0  0.22851887300E+02  0.13197995218E+03 -0.10853548503E+04  0.10935886190E+04  0.00000000000E+00 0. -1.
          1    1    1    2  502    0 -0.76631314436E+02 -0.17007871422E+02  0.13123202344E+04  0.13146657460E+04  0.00000000000E+00 0. -1.
         22    1    3    3    0    0  0.43157563470E+01 -0.61169951913E+02 -0.12661224950E+03  0.14068066852E+03  0.00000000000E+00 0. -1.
         22    1    3    3    0    0  0.49463670789E+02 -0.53802128845E+02 -0.76982601208E+03  0.77328740626E+03  0.00000000000E+00 0. -1.
</event>
<event>
 7    1  0.5553952E-006  0.1222885E+03  0.7818608E-02  0.1317511E+00
          2   -1    0    0  502    0  0.00000000000E+00  0.00000000000E+00  0.43048767656E+04  0.43048767656E+04  0.00000000000E+00 0. -1.
          1   -1    0    0  501    0 -0.00000000000E+00 -0.00000000000E+00 -0.23679250672E+02  0.23679250672E+02  0.00000000000E+00 0. -1.
         25    2    1    2    0    0  0.59436168172E+02  0.42473406539E+02  0.28620076374E+04  0.28656673442E+04  0.12499984976E+03 0.  0.
          2    1    1    2  501    0 -0.80417221055E+02 -0.96533687128E+02  0.16515380583E+03  0.20751255811E+03  0.00000000000E+00 0. -1.
          1    1    1    2  502    0  0.20981052884E+02  0.54060280589E+02  0.12540360717E+04  0.12553761140E+04  0.00000000000E+00 0. -1.
         22    1    3    3    0    0  0.92351695622E+02  0.72648125774E+01  0.21744623771E+04  0.21764347550E+04  0.00000000000E+00 0. -1.
         22    1    3    3    0    0 -0.32915527450E+02  0.35208593962E+02  0.68754526026E+03  0.68923258914E+03  0.00000000000E+00 0. -1.
</event>
<event>
 7    1  0.5553952E-006  0.1722038E+03  0.7818608E-02  0.1238361E+00
          2   -1    0    0  502    0  0.00000000000E+00  0.00000000000E+00  0.18004117106E+04  0.18004117106E+04  0.00000000000E+00 0. -1.
          1   -1    0    0  501    0 -0.00000000000E+00 -0.00000000000E+00 -0.34225430392E+03  0.34225430392E+03  0.00000000000E+00 0. -1.
         25    2    1    2    0    0  0.12958622488E+03 -0.14387144416E+03  0.10337300819E+04  0.10591100963E+04  0.12499892759E+03 0.  0.
          2    1    1    2  501    0  0.24349210362E+02  0.84290416700E+02 -0.31445255959E+03  0.32646312292E+03  0.00000000000E+00 0. -1.
          1    1    1    2  502    0 -0.15393543524E+03  0.59581027463E+02  0.73887988439E+03  0.75709279524E+03  0.00000000000E+00 0. -1.
         22    1    3    3    0    0 -0.13377355453E+02 -0.58777650524E+02  0.36808905615E+03  0.37299238477E+03  0.00000000000E+00 0. -1.
         22    1    3    3    0    0  0.14296358033E+03 -0.85093793639E+02  0.66564102571E+03  0.68611771157E+03  0.00000000000E+00 0. -1.
</event>
<event>
 7    1  0.5553952E-006  0.4891085E+02  0.7818608E-02  0.1509448E+00
          2   -1    0    0  502    0  0.00000000000E+00  0.00000000000E+00  0.93957183824E+02  0.93957183824E+02  0.00000000000E+00 0. -1.
          1   -1    0    0  501    0 -0.00000000000E+00 -0.00000000000E+00 -0.19667939137E+04  0.19667939137E+04  0.00000000000E+00 0. -1.
         25    2    1    2    0    0 -0.10288921351E+02 -0.55717521654E+02 -0.65138594400E+02  0.15191605917E+03  0.12500059373E+03 0.  0.
          2    1    1    2  501    0  0.34765089817E+02  0.34428845357E+02 -0.18527078603E+04  0.18533538174E+04  0.00000000000E+00 0. -1.
          1    1    1    2  502    0 -0.24476168466E+02  0.21288676298E+02  0.45009724763E+02  0.55481221008E+02  0.00000000000E+00 0. -1.
         22    1    3    3    0    0 -0.12524568084E+02 -0.80886174466E+02  0.21231660526E+00  0.81850370211E+02  0.00000000000E+00 0.  1.
         22    1    3    3    0    0  0.22356467329E+01  0.25168652812E+02 -0.65350911005E+02  0.70065688963E+02  0.00000000000E+00 0.  1.
</event>
<event>
 7    1  0.5553952E-006  0.8709694E+02  0.7818608E-02  0.1451369E+00
          2   -1    0    0  502    0  0.00000000000E+00  0.00000000000E+00  0.48195177894E+03  0.48195177894E+03  0.00000000000E+00 0. -1.
          1   -1    0    0  501    0 -0.00000000000E+00 -0.00000000000E+00 -0.73193377229E+03  0.73193377229E+03  0.00000000000E+00 0. -1.
         25    2    1    2    0    0 -0.58229611364E+02  0.84035619927E+02 -0.43044603876E+03  0.45974062767E+03  0.12499991756E+03 0.  0.
          2    1    1    2  501    0 -0.70415915255E+01 -0.26535706371E+02 -0.28212033217E+03  0.28345301119E+03  0.00000000000E+00 0. -1.
          1    1    1    2  502    0  0.65271202889E+02 -0.57499913556E+02  0.46258437759E+03  0.47069191237E+03  0.00000000000E+00 0. -1.
         22    1    3    3    0    0  0.48842322788E+01 -0.11201583883E+01 -0.25298650714E+03  0.25303613037E+03  0.00000000000E+00 0. -1.
         22    1    3    3    0    0 -0.63113843643E+02  0.85155778315E+02 -0.17745953163E+03  0.20670449730E+03  0.00000000000E+00 0. -1.
</event>
<event>
 7    1  0.5553952E-006  0.4454312E+02  0.7818608E-02  0.1543433E+00
          2   -1    0    0  502    0  0.00000000000E+00  0.00000000000E+00  0.26041734843E+04  0.26041734843E+04  0.00000000000E+00 0. -1.
          1   -1    0    0  501    0 -0.00000000000E+00 -0.00000000000E+00 -0.14144195151E+04  0.14144195151E+04  0.00000000000E+00 0. -1.
         25    2    1    2    0    0 -0.54850274522E+02 -0.39625417933E+02  0.60571741113E+02  0.15451236394E+03  0.12500563358E+03 0.  0.
          2    1    1    2  501    0  0.28139567279E+02  0.40854921830E+01 -0.13671034326E+04  0.13673991084E+04  0.00000000000E+00 0. -1.
          1    1    1    2  502    0  0.26710707243E+02  0.35539925750E+02  0.24962856606E+04  0.24966815270E+04  0.00000000000E+00 0. -1.
         22    1    3    3    0    0 -0.62516486911E+02 -0.76955092127E+02  0.24705279007E+02  0.10217997921E+03  0.00000000000E+00 0. -1.
         22    1    3    3    0    0  0.76662123888E+01  0.37329674194E+02  0.35866462106E+02  0.52332384733E+02  0.00000000000E+00 0. -1.
</event>
<event>
 7    1  0.5553952E-006  0.3727636E+02  0.7818608E-02  0.1590837E+00
          2   -1    0    0  502    0  0.00000000000E+00  0.00000000000E+00  0.71613117965E+01  0.71613117965E+01  0.00000000000E+00 0. -1.
          1   -1    0    0  501    0 -0.00000000000E+00 -0.00000000000E+00 -0.16216977925E+04  0.16216977925E+04  0.00000000000E+00 0. -1.
         25    2    1    2    0    0  0.52406719928E+02  0.22681856365E+02 -0.89755446716E+03  0.90801426047E+03  0.12499977916E+03 0.  0.
          2    1    1    2  501    0 -0.25041413705E+02 -0.30674529837E+01 -0.54582452011E+03  0.54640725509E+03  0.00000000000E+00 0. -1.
          1    1    1    2  502    0 -0.27365306222E+02 -0.19614403381E+02 -0.17115749339E+03  0.17443758869E+03  0.00000000000E+00 0. -1.
         22    1    3    3    0    0  0.88762051356E+02  0.34078010603E+02 -0.73101710588E+03  0.73717434956E+03  0.00000000000E+00 0. -1.
         22    1    3    3    0    0 -0.36355331429E+02 -0.11396154238E+02 -0.16653736128E+03  0.17083991091E+03  0.00000000000E+00 0. -1.
</event>
<event>
 7    1  0.5553952E-006  0.1212663E+03  0.7818608E-02  0.1287434E+00
          2   -1    0    0  502    0  0.00000000000E+00  0.00000000000E+00  0.13878336519E+04  0.13878336519E+04  0.00000000000E+00 0. -1.
          1   -1    0    0  501    0 -0.00000000000E+00 -0.00000000000E+00 -0.22730439902E+03  0.22730439902E+03  0.00000000000E+00 0. -1.
         25    2    1    2    0    0  0.10286184943E+02  0.56150972892E+02  0.10955187503E+03  0.17574091383E+03  0.12499807245E+03 0.  0.
          2    1    1    2  501    0 -0.52481940605E+02 -0.12065614214E+03 -0.17056935795E+03  0.21542090103E+03  0.00000000000E+00 0. -1.
          1    1    1    2  502    0  0.42195755663E+02  0.64505169252E+02  0.12215467358E+04  0.12239762361E+04  0.00000000000E+00 0. -1.
         22    1    3    3    0    0  0.39380436634E+02  0.86682724105E+02  0.77697361995E+02  0.12288854100E+03  0.00000000000E+00 0. -1.
         22    1    3    3    0    0 -0.29094251691E+02 -0.30531751213E+02  0.31854513030E+02  0.52852372832E+02  0.00000000000E+00 0. -1.
</event>
<event>
 7    1  0.7163652E-006  0.1094073E+03  0.7818608E-02  0.1414886E+00
          2   -1    0    0  502    0  0.00000000000E+00  0.00000000000E+00  0.24364128196E+04  0.24364128196E+04  0.00000000000E+00 0. -1.
          1   -1    0    0  501    0 -0.00000000000E+00 -0.00000000000E+00 -0.28464086226E+04  0.28464086226E+04  0.00000000000E+00 0. -1.
         25    2    1    2    0    0  0.99307987687E+02 -0.79701445242E+02 -0.13060403716E+04  0.13181733479E+04  0.12500050478E+03 0.  0.
          2    1    1    2  501    0 -0.28542767716E+02 -0.37193514751E+01 -0.15329356147E+04  0.15332058316E+04  0.00000000000E+00 0. -1.
          1    1    1    2  502    0 -0.70765219970E+02  0.83420796717E+02  0.24289801833E+04  0.24314422626E+04  0.00000000000E+00 0. -1.
         22    1    3    3    0    0  0.70327376324E+02 -0.11307673199E+03 -0.91409906645E+03  0.92374747115E+03  0.00000000000E+00 0.  1.
         22    1    3    3    0    0  0.28980611363E+02  0.33375286752E+02 -0.39194130512E+03  0.39442587677E+03  0.00000000000E+00 0.  1.
</event>
<event>
 7    1  0.5553952E-006  0.6267879E+02  0.7818608E-02  0.1531821E+00
          2   -1    0    0  502    0  0.00000000000E+00  0.00000000000E+00  0.38178881808E+03  0.38178881808E+03  0.00000000000E+00 0. -1.
          1   -1    0    0  501    0 -0.00000000000E+00 -0.00000000000E+00 -0.30287870655E+04  0.30287870655E+04  0.00000000000E+00 0. -1.
         25    2    1    2    0    0 -0.16242993058E+02 -0.45100362030E+02 -0.19272529366E+04  0.19318970952E+04  0.12499850927E+03 0.  0.
          2    1    1    2  501    0  0.22199283060E+02  0.66069853881E+02 -0.10977928605E+04  0.11000032719E+04  0.00000000000E+00 0. -1.
          1    1    1    2  502    0 -0.59562900016E+01 -0.20969491851E+02  0.37804754964E+03  0.37867551647E+03  0.00000000000E+00 0. -1.
         22    1    3    3    0    0  0.46149344151E+00 -0.72302211563E+02 -0.61191702307E+03  0.61617389258E+03  0.00000000000E+00 0. -1.
         22    1    3    3    0    0 -0.16704486500E+02  0.27201849532E+02 -0.13153359135E+04  0.13157232026E+04  0.00000000000E+00 0. -1.
</event>
<event>
 7    1  0.5553952E-006  0.9823001E+02  0.7818608E-02  0.1368272E+00
          2   -1    0    0  502    0  0.00000000000E+00  0.00000000000E+00  0.12389538400E+04  0.12389538400E+04  0.00000000000E+00 0. -1.
          1   -1    0    0  501    0 -0.00000000000E+00 -0.00000000000E+00 -0.10009902901E+03  0.10009902901E+03  0.00000000000E+00 0. -1.
         25    2    1    2    0    0 -0.47273679550E+02 -0.81850016313E+02  0.18815293314E+03  0.24488035113E+03  0.12502253465E+03 0.  0.
          2    1    1    2  501    0  0.84602732884E+02  0.53972865560E+02 -0.35817813412E+02  0.10655331241E+03  0.00000000000E+00 0. -1.
          1    1    1    2  502    0 -0.37329053334E+02  0.27877150753E+02  0.98651969130E+03  0.98761920550E+03  0.00000000000E+00 0. -1.
         22    1    3    3    0    0 -0.45505541949E+01 -0.10461841167E+03  0.10273635994E+03  0.14669860006E+03  0.00000000000E+00 0.  1.
         22    1    3    3    0    0 -0.42723125355E+02  0.22768395357E+02  0.85416573193E+02  0.98181751071E+02  0.00000000000E+00 0.  1.
</event>
<event>
 7    1  0.5553952E-006  0.2250907E+02  0.7818608E-02  0.1714626E+00
          2   -1    0    0  502    0  0.00000000000E+00  0.00000000000E+00  0.38001472679E+03  0.38001472679E+03  0.00000000000E+00 0. -1.
          1   -1    0    0  501    0 -0.00000000000E+00 -0.00000000000E+00 -0.89178873816E+02  0.89178873816E+02  0.00000000000E+00 0. -1.
         25    2    1    2    0    0  0.28431400026E+02 -0.23192865301E+02  0.90251994707E+02  0.15848402658E+03  0.12500204248E+03 0.  0.
          2    1    1    2  501    0 -0.20679645614E+02  0.22026016531E+01 -0.52587993801E+02  0.56550829250E+02  0.00000000000E+00 0. -1.
          1    1    1    2  502    0 -0.77517544126E+01  0.20990263648E+02  0.25317185207E+03  0.25415874477E+03  0.00000000000E+00 0. -1.
         22    1    3    3    0    0  0.17022470724E+00 -0.72855662004E+02  0.55702536662E+02  0.91710136043E+02  0.00000000000E+00 0.  1.
         22    1    3    3    0    0  0.28261175319E+02  0.49662796702E+02  0.34549458044E+02  0.66773890540E+02  0.00000000000E+00 0.  1.
</event>
<event>
 7    1  0.5553952E-006  0.6237225E+02  0.7818608E-02  0.1439839E+00
          2   -1    0    0  502    0  0.00000000000E+00  0.00000000000E+00  0.29739244939E+03  0.29739244939E+03  0.00000000000E+00 0. -1.
          1   -1    0    0  501    0 -0.00000000000E+00 -0.00000000000E+00 -0.28792707314E+03  0.28792707314E+03  0.00000000000E+00 0. -1.
         25    2    1    2    0    0 -0.84467646719E+02  0.43734166605E+00 -0.75572607839E+02  0.16873711075E+03  0.12500407544E+03 0.  0.
          2    1    1    2  501    0  0.29667999757E+02 -0.29386367182E+02 -0.15920942670E+03  0.16459462426E+03  0.00000000000E+00 0. -1.
          1    1    1    2  502    0  0.54799646963E+02  0.28949025516E+02  0.24424741078E+03  0.25198778752E+03  0.00000000000E+00 0. -1.
         22    1    3    3    0    0 -0.41388526157E+02 -0.38441404829E+02  0.17430813520E+02  0.59115014697E+02  0.00000000000E+00 0. -1.
         22    1    3    3    0    0 -0.43079120563E+02  0.38878746495E+02 -0.93003421360E+02  0.10962209605E+03  0.00000000000E+00 0. -1.
</event>
<event>
 7    1  0.5553952E-006  0.7640903E+02  0.7818608E-02  0.1455772E+00
          2   -1    0    0  502    0  0.00000000000E+00  0.00000000000E+00  0.56544701462E+03  0.56544701462E+03  0.00000000000E+00 0. -1.
          1   -1    0    0  501    0 -0.00000000000E+00 -0.00000000000E+00 -0.83833685252E+02  0.83833685252E+02  0.00000000000E+00 0. -1.
         25    2    1    2    0    0  0.33675804479E+02 -0.72527563651E+02  0.13047020408E+03  0.19759082484E+03  0.12500141044E+03 0.  0.
          2    1    1    2  501    0 -0.36480384727E+01  0.76583642733E+02 -0.20060671221E+02  0.79251454554E+02  0.00000000000E+00 0. -1.
          1    1    1    2  502    0 -0.30027766006E+02 -0.40560790823E+01  0.37120379651E+03  0.37243842048E+03  0.00000000000E+00 0. -1.
         22    1    3    3    0    0  0.30814269281E+02 -0.74334497993E+02  0.14735080420E+02  0.81806230681E+02  0.00000000000E+00 0. -1.
         22    1    3    3    0    0  0.28615351973E+01  0.18069343415E+01  0.11573512366E+03  0.11578459416E+03  0.00000000000E+00 0. -1.
</event>
<event>
 7    1  0.5553952E-006  0.6710744E+02  0.7818608E-02  0.1398382E+00
          2   -1    0    0  502    0  0.00000000000E+00  0.00000000000E+00  0.28408824660E+03  0.28408824660E+03  0.00000000000E+00 0. -1.
          1   -1    0    0  501    0 -0.00000000000E+00 -0.00000000000E+00 -0.43640735043E+03  0.43640735043E+03  0.00000000000E+00 0. -1.
         25    2    1    2    0    0 -0.57925363791E+02 -0.95180727013E+02 -0.74155782146E+02  0.18313750606E+03  0.12500219012E+03 0.  0.
          2    1    1    2  501    0  0.15507006784E+02  0.62723639700E+02 -0.30118104940E+03  0.30803367796E+03  0.00000000000E+00 0. -1.
          1    1    1    2  502    0  0.42418357006E+02  0.32457087313E+02  0.22301772772E+03  0.22932441301E+03  0.00000000000E+00 0. -1.
         22    1    3    3    0    0 -0.83709502960E+02 -0.88993337324E+02 -0.21321976264E+02  0.12402306901E+03  0.00000000000E+00 0.  1.
         22    1    3    3    0    0  0.25784139170E+02 -0.61873896885E+01 -0.52833805882E+02  0.59114437051E+02  0.00000000000E+00 0.  1.
</event>
<event>
 7    1  0.5553952E-006  0.8246796E+02  0.7818608E-02  0.1413639E+00
          2   -1    0    0  502    0  0.00000000000E+00  0.00000000000E+00  0.62248208931E+03  0.62248208931E+03  0.00000000000E+00 0. -1.
          1   -1    0    0  501    0 -0.00000000000E+00 -0.00000000000E+00 -0.26003907409E+03  0.26003907409E+03  0.00000000000E+00 0. -1.
         25    2    1    2    0    0  0.10050428981E+03 -0.59319590705E+02  0.13972567720E+03  0.22083714339E+03  0.12500341162E+03 0.  0.
          2    1    1    2  501    0 -0.28195958849E+02  0.26300432797E+02 -0.21417547485E+03  0.21761860878E+03  0.00000000000E+00 0. -1.
          1    1    1    2  502    0 -0.72308330962E+02  0.33019157908E+02  0.43689281287E+03  0.44406541123E+03  0.00000000000E+00 0. -1.
         22    1    3    3    0    0  0.48153101347E+02  0.35641672648E+02  0.31712640214E+02  0.67784522922E+02  0.00000000000E+00 0.  1.
         22    1    3    3    0    0  0.52351188464E+02 -0.94961263353E+02  0.10801303699E+03  0.15305262047E+03  0.00000000000E+00 0.  1.
</event>
<event>
 7    1  0.5553952E-006  0.6214723E+02  0.7818608E-02  0.1468429E+00
          2   -1    0    0  502    0  0.00000000000E+00  0.00000000000E+00  0.11719965828E+04  0.11719965828E+04  0.00000000000E+00 0. -1.
          1   -1    0    0  501    0 -0.00000000000E+00 -0.00000000000E+00 -0.49298440566E+02  0.49298440566E+02  0.00000000000E+00 0. -1.
         25    2    1    2    0    0  0.48440845867E+02 -0.66607999354E+01  0.25399589440E+03  0.28728031996E+03  0.12500074424E+03 0.  0.
          2    1    1    2  501    0 -0.59208594872E+02 -0.25579317255E+02 -0.14990731681E+00  0.64497919735E+02  0.00000000000E+00 0. -1.
          1    1    1    2  502    0  0.10767749004E+02  0.32240117191E+02  0.86885215514E+03  0.86951678366E+03  0.00000000000E+00 0. -1.
         22    1    3    3    0    0  0.28276902423E+02 -0.56904302800E+02  0.20371149071E+03  0.21339178601E+03  0.00000000000E+00 0. -1.
         22    1    3    3    0    0  0.20163943445E+02  0.50243502864E+02  0.50284403688E+02  0.73888533952E+02  0.00000000000E+00 0. -1.
</event>
<event>
 7    1  0.5553952E-006  0.4714521E+02  0.7818608E-02  0.1551568E+00
          2   -1    0    0  502    0  0.00000000000E+00  0.00000000000E+00  0.53885070632E+03  0.53885070632E+03  0.00000000000E+00 0. -1.
          1   -1    0    0  501    0 -0.00000000000E+00 -0.00000000000E+00 -0.32397275474E+03  0.32397275474E+03  0.00000000000E+00 0. -1.
         25    2    1    2    0    0 -0.19045943322E+02 -0.31857090097E+02  0.10218456728E+03  0.16566144646E+03  0.12499762761E+03 0.  0.
          2    1    1    2  501    0 -0.11947021813E+01  0.47355777153E+02 -0.28990881927E+03  0.29375350284E+03  0.00000000000E+00 0. -1.
          1    1    1    2  502    0  0.20240645503E+02 -0.15498687056E+02  0.40260220357E+03  0.40340851175E+03  0.00000000000E+00 0. -1.
         22    1    3    3    0    0  0.21381996016E+02  0.25332991768E+02  0.88224538845E+02  0.94247119213E+02  0.00000000000E+00 0. -1.
         22    1    3    3    0    0 -0.40427939337E+02 -0.57190081866E+02  0.13960028432E+02  0.71414327251E+02  0.00000000000E+00 0. -1.
</event>
<event>
 7    1  0.5553952E-006  0.6161705E+02  0.7818608E-02  0.1419020E+00
          2   -1    0    0  502    0  0.00000000000E+00  0.00000000000E+00  0.10043043265E+04  0.10043043265E+04  0.00000000000E+00 0. -1.
          1   -1    0    0  501    0 -0.00000000000E+00 -0.00000000000E+00 -0.71977732028E+03  0.71977732028E+03  0.00000000000E+00 0. -1.
         25    2    1    2    0    0 -0.54347141449E+02  0.44908070178E+02  0.63711376100E+03  0.65307667972E+03  0.12499943437E+03 0.  0.
          2    1    1    2  501    0  0.75911809659E+01 -0.61169209198E+02 -0.70874634945E+03  0.71142159514E+03  0.00000000000E+00 0. -1.
          1    1    1    2  502    0  0.46755960483E+02  0.16261139020E+02  0.35615959470E+03  0.35958337194E+03  0.00000000000E+00 0. -1.
         22    1    3    3    0    0 -0.89195181262E+02  0.26791551758E+02  0.31212359847E+03  0.32572182660E+03  0.00000000000E+00 0.  1.
         22    1    3    3    0    0  0.34848039814E+02  0.18116518420E+02  0.32499016253E+03  0.32735485312E+03  0.00000000000E+00 0.  1.
</event>
<event>
 7    1  0.5553952E-006  0.7954551E+02  0.7818608E-02  0.1473642E+00
          2   -1    0    0  502    0  0.00000000000E+00  0.00000000000E+00  0.28067730673E+03  0.28067730673E+03  0.00000000000E+00 0. -1.
          1   -1    0    0  501    0 -0.00000000000E+00 -0.00000000000E+00 -0.11566950177E+04  0.11566950177E+04  0.00000000000E+00 0. -1.
         25    2    1    2    0    0  0.83133022588E+02 -0.10817466178E+02 -0.20404642927E+03  0.25354931706E+03  0.12499677542E+03 0.  0.
          2    1    1    2  501    0 -0.78212705768E+02 -0.14289338835E+02 -0.92554911499E+03  0.92895779065E+03  0.00000000000E+00 0. -1.
          1    1    1    2  502    0 -0.49203168199E+01  0.25106805013E+02  0.25357783327E+03  0.25486521674E+03  0.00000000000E+00 0. -1.
         22    1    3    3    0    0  0.89844481873E+01  0.52021533933E+02 -0.82096421236E+02  0.97605239008E+02  0.00000000000E+00 0.  1.
         22    1    3    3    0    0  0.74148574401E+02 -0.62839000110E+02 -0.12195000804E+03  0.15594407806E+03  0.00000000000E+00 0.  1.
</event>
<event>
 7    1  0.5553952E-006  0.5944489E+02  0.7818608E-02  0.1428990E+00
          2   -1    0    0  502    0  0.00000000000E+00  0.00000000000E+00  0.82592741255E+01  0.82592741255E+01  0.00000000000E+00 0. -1.
          1   -1    0    0  501    0 -0.00000000000E+00 -0.00000000000E+00 -0.22815312220E+04  0.22815312220E+04  0.00000000000E+00 0. -1.
         25    2    1    2    0    0 -0.23939228417E+02 -0.29809571929E+02 -0.79540659116E+03  0.80607611897E+03  0.12500146830E+03 0.  0.
          2    1    1    2  501    0 -0.82375468086E+01 -0.46826248361E+02 -0.62643269512E+03  0.62823441185E+03  0.00000000000E+00 0. -1.
          1    1    1    2  502    0  0.32176775225E+02  0.76635820289E+02 -0.85143266161E+03  0.85547996533E+03  0.00000000000E+00 0. -1.
         22    1    3    3    0    0 -0.45185596263E+02 -0.71121353980E+02 -0.51118727376E+03  0.51808533463E+03  0.00000000000E+00 0. -1.
         22    1    3    3    0    0  0.21246367846E+02  0.41311782052E+02 -0.28421931739E+03  0.28799078434E+03  0.00000000000E+00 0. -1.
</event>
<event>
 7    1  0.5553952E-006  0.1298147E+03  0.7818608E-02  0.1274196E+00
          2   -1    0    0  502    0  0.00000000000E+00  0.00000000000E+00  0.15634832182E+04  0.15634832182E+04  0.00000000000E+00 0. -1.
          1   -1    0    0  501    0 -0.00000000000E+00 -0.00000000000E+00 -0.13681626089E+04  0.13681626089E+04  0.00000000000E+00 0. -1.
         25    2    1    2    0    0  0.42597013420E+02  0.11655723373E+03  0.41395973135E+02  0.18094444064E+03  0.12500867858E+03 0.  0.
          2    1    1    2  501    0 -0.11005116370E+03 -0.70536666401E+02 -0.12939450540E+04  0.13005308465E+04  0.00000000000E+00 0. -1.
          1    1    1    2  502    0  0.67454150279E+02 -0.46020567329E+02  0.14478696902E+04  0.14501705399E+04  0.00000000000E+00 0. -1.
         22    1    3    3    0    0 -0.47424935891E+01  0.12198305513E+03  0.51062538173E+02  0.13232437337E+03  0.00000000000E+00 0.  1.
         22    1    3    3    0    0  0.47339507009E+02 -0.54258213999E+01 -0.96665650373E+01  0.48620067270E+02  0.00000000000E+00 0.  1.
</event>
<event>
 7    1  0.5553952E-006  0.9870632E+02  0.7818608E-02  0.1363023E+00
          2   -1    0    0  502    0  0.00000000000E+00  0.00000000000E+00  0.87522049320E+02  0.87522049320E+02  0.00000000000E+00 0. -1.
          1   -1    0    0  501    0 -0.00000000000E+00 -0.00000000000E+00 -0.12408371365E+04  0.12408371365E+04  0.00000000000E+00 0. -1.
         25    2    1    2    0    0 -0.24690212436E+02  0.14565563602E+02 -0.95989400512E+03  0.96842337549E+03  0.12500228361E+03 0.  0.
          2    1    1    2  501    0  0.98243856968E+02 -0.80389560232E+02 -0.22325341720E+03  0.25681983007E+03  0.00000000000E+00 0. -1.
          1    1    1    2  502    0 -0.73553644532E+02  0.65823996630E+02  0.29832335167E+02  0.10311598023E+03  0.00000000000E+00 0. -1.
         22    1    3    3    0    0  0.13935250491E+02 -0.10893474537E+02 -0.83579670606E+03  0.83598384725E+03  0.00000000000E+00 0. -1.
         22    1    3    3    0    0 -0.38625462927E+02  0.25459038139E+02 -0.12409729905E+03  0.13243952825E+03  0.00000000000E+00 0. -1.
</event>
<event>
 7    1  0.5553952E-006  0.1053302E+03  0.7818608E-02  0.1349233E+00
          2   -1    0    0  502    0  0.00000000000E+00  0.00000000000E+00  0.28765323802E+04  0.28765323802E+04  0.00000000000E+00 0. -1.
          1   -1    0    0  501    0 -0.00000000000E+00 -0.00000000000E+00 -0.17491353087E+03  0.17491353087E+03  0.00000000000E+00 0. -1.
         25    2    1    2    0    0  0.12533944635E+01 -0.56426235206E+02  0.31601378764E+02  0.14073784621E+03  0.12499201254E+03 0.  0.
          2    1    1    2  501    0 -0.13933792352E+02 -0.49062890267E+02 -0.11388215995E+03  0.12478166582E+03  0.00000000000E+00 0. -1.
          1    1    1    2  502    0  0.12680397888E+02  0.10548912547E+03  0.27838996305E+04  0.27859263990E+04  0.00000000000E+00 0. -1.
         22    1    3    3    0    0  0.37426945387E+02 -0.82505790330E+02  0.98815052407E+01  0.91135206286E+02  0.00000000000E+00 0.  1.
         22    1    3    3    0    0 -0.36173550924E+02  0.26079555124E+02  0.21719873524E+02  0.49602639927E+02  0.00000000000E+00 0.  1.
</event>
<event>
 7    1  0.5553952E-006  0.9529513E+02  0.7818608E-02  0.1346571E+00
          2   -1    0    0  502    0  0.00000000000E+00  0.00000000000E+00  0.25572177462E+03  0.25572177462E+03  0.00000000000E+00 0. -1.
          1   -1    0    0  501    0 -0.00000000000E+00 -0.00000000000E+00 -0.11393828446E+04  0.11393828446E+04  0.00000000000E+00 0. -1.
         25    2    1    2    0    0  0.72013222149E+02 -0.65366326785E+02  0.35339610835E+01  0.15841905978E+03  0.12500179510E+03 0.  0.
          2    1    1    2  501    0 -0.94886164189E+02  0.12422692251E+02 -0.10549562207E+04  0.10592876545E+04  0.00000000000E+00 0. -1.
          1    1    1    2  502    0  0.22872942040E+02  0.52943634534E+02  0.16776118965E+03  0.17739790491E+03  0.00000000000E+00 0. -1.
         22    1    3    3    0    0 -0.23658704214E+02 -0.56335058253E+02 -0.80372029654E+01  0.61627669962E+02  0.00000000000E+00 0.  1.
         22    1    3    3    0    0  0.95671926363E+02 -0.90312685314E+01  0.11571164049E+02  0.96791389817E+02  0.00000000000E+00 0.  1.
</event>
<event>
 7    1  0.5553952E-006  0.2397079E+02  0.7818608E-02  0.1676325E+00
          2   -1    0    0  502    0  0.00000000000E+00  0.00000000000E+00  0.32007069246E+03  0.32007069246E+03  0.00000000000E+00 0. -1.
          1   -1    0    0  501    0 -0.00000000000E+00 -0.00000000000E+00 -0.12681363031E+04  0.12681363031E+04  0.00000000000E+00 0. -1.
         25    2    1    2    0    0 -0.76320711865E+01 -0.95913233432E+01 -0.22929055713E+03  0.26143682837E+03  0.12499925457E+03 0.  0.
          2    1    1    2  501    0  0.21898958584E+02 -0.97214319125E+01 -0.10221578829E+04  0.10224386575E+04  0.00000000000E+00 0. -1.
          1    1    1    2  502    0 -0.14266887397E+02  0.19312755256E+02  0.30338282945E+03  0.30433150970E+03  0.00000000000E+00 0. -1.
         22    1    3    3    0    0  0.31418228424E+02 -0.54640993067E+02 -0.89529845300E+02  0.10949126175E+03  0.00000000000E+00 0. -1.
         22    1    3    3    0    0 -0.39050299610E+02  0.45049669723E+02 -0.13976071183E+03  0.15194556662E+03  0.00000000000E+00 0. -1.
</event>
<event>
 7    1  0.5553952E-006  0.1656810E+03  0.7818608E-02  0.1307941E+00
          2   -1    0    0  502    0  0.00000000000E+00  0.00000000000E+00  0.48970960454E+03  0.48970960454E+03  0.00000000000E+00 0. -1.
          1   -1    0    0  501    0 -0.00000000000E+00 -0.00000000000E+00 -0.14061715251E+04  0.14061715251E+04  0.00000000000E+00 0. -1.
         25    2    1    2    0    0 -0.16095648792E+03 -0.73999095494E+02 -0.89023559723E+02  0.23437728072E+03  0.12499863358E+03 0.  0.
          2    1    1    2  501    0  0.16296209237E+03  0.27375065447E+02 -0.12376568299E+04  0.12486394461E+04  0.00000000000E+00 0. -1.
          1    1    1    2  502    0 -0.20056044452E+01  0.46624030047E+02  0.41021846914E+03  0.41286440274E+03  0.00000000000E+00 0. -1.
         22    1    3    3    0    0 -0.12331723600E+03  0.21997804452E+01 -0.84032168200E+02  0.14924270509E+03  0.00000000000E+00 0. -1.
         22    1    3    3    0    0 -0.37639251917E+02 -0.76198875939E+02 -0.49913915225E+01  0.85134575635E+02  0.00000000000E+00 0. -1.
</event>
<event>
 7    1  0.5553952E-006  0.9743039E+02  0.7818608E-02  0.1325727E+00
          2   -1    0    0  502    0  0.00000000000E+00  0.00000000000E+00  0.43457756910E+03  0.43457756910E+03  0.00000000000E+00 0. -1.
          1   -1    0    0  501    0 -0.00000000000E+00 -0.00000000000E+00 -0.28933863676E+03  0.28933863676E+03  0.00000000000E+00 0. -1.
         25    2    1    2    0    0 -0.47949166280E+02  0.11205612394E+03  0.34647757699E+01  0.17462181547E+03  0.12500030524E+03 0.  0.
          2    1    1    2  501    0 -0.17496172715E+02 -0.94945667589E+02 -0.18870250812E+03  0.21196563973E+03  0.00000000000E+00 0. -1.
          1    1    1    2  502    0  0.65445338995E+02 -0.17110456346E+02  0.33047666469E+03  0.33732875066E+03  0.00000000000E+00 0. -1.
         22    1    3    3    0    0 -0.32470794423E+00  0.10525806649E+03  0.41652530628E+02  0.11320026195E+03  0.00000000000E+00 0.  1.
         22    1    3    3    0    0 -0.47624458336E+02  0.67980574438E+01 -0.38187754858E+02  0.61421553529E+02  0.00000000000E+00 0.  1.
</event>
<event>
 7    1  0.5553952E-006  0.8843178E+02  0.7818608E-02  0.1488361E+00
          2   -1    0    0  502    0  0.00000000000E+00  0.00000000000E+00  0.16481383617E+03  0.16481383617E+03  0.00000000000E+00 0. -1.
          1   -1    0    0  501    0 -0.00000000000E+00 -0.00000000000E+00 -0.28992454146E+04  0.28992454146E+04  0.00000000000E+00 0. -1.
         25    2    1    2    0    0 -0.69661374710E+02 -0.76912180177E+02  0.10305073872E+03  0.19238920307E+03  0.12500384042E+03 0.  0.
          2    1    1    2  501    0  0.68173278687E+02  0.56221819820E+02 -0.28473345885E+04  0.28487054512E+04  0.00000000000E+00 0. -1.
          1    1    1    2  502    0  0.14880960226E+01  0.20690360356E+02  0.98522713376E+01  0.22964596490E+02  0.00000000000E+00 0. -1.
         22    1    3    3    0    0 -0.41987715380E+02  0.17802821540E+02 -0.52146488011E+01  0.45903172655E+02  0.00000000000E+00 0.  1.
         22    1    3    3    0    0 -0.27673659330E+02 -0.94715001717E+02  0.10826538752E+03  0.14648603041E+03  0.00000000000E+00 0.  1.
</event>
<event>
 7    1  0.5553952E-006  0.3862404E+03  0.7818608E-02  0.1194501E+00
          2   -1    0    0  502    0  0.00000000000E+00  0.00000000000E+00  0.67311823783E+03  0.67311823783E+03  0.00000000000E+00 0. -1.
          1   -1    0    0  501    0 -0.00000000000E+00 -0.00000000000E+00 -0.32098342973E+03  0.32098342973E+03  0.00000000000E+00 0. -1.
         25    2    1    2    0    0 -0.38432128485E+03  0.18609393139E+02  0.33578015518E+03  0.52575800558E+03  0.12499603318E+03 0.  0.
          2    1    1    2  501    0  0.68212226797E+00  0.62170773650E+02 -0.37503785215E+02  0.72609946236E+02  0.00000000000E+00 0. -1.
          1    1    1    2  502    0  0.38363916259E+03 -0.80780166789E+02  0.53858438133E+02  0.39573371574E+03  0.00000000000E+00 0. -1.
         22    1    3    3    0    0 -0.37104794189E+02  0.13278184449E+02 -0.43833753261E+01  0.39652111083E+02  0.00000000000E+00 0. -1.
         22    1    3    3    0    0 -0.34721649067E+03  0.53312086898E+01  0.34016353051E+03  0.48610589450E+03  0.00000000000E+00 0. -1.
</event>
<event>
 7    1  0.5553952E-006  0.7989428E+02  0.7818608E-02  0.1490172E+00
          2   -1    0    0  502    0  0.00000000000E+00  0.00000000000E+00  0.66581942467E+03  0.66581942467E+03  0.00000000000E+00 0. -1.
          1   -1    0    0  501    0 -0.00000000000E+00 -0.00000000000E+00 -0.31603799951E+03  0.31603799951E+03  0.00000000000E+00 0. -1.
         25    2    1    2    0    0  0.44935607249E+02  0.58010144213E+02  0.11543062235E+03  0.18529426363E+03  0.12500139970E+03 0.  0.
          2    1    1    2  501    0 -0.64880619628E+02 -0.47228754784E+02 -0.27512150217E+03  0.28658662048E+03  0.00000000000E+00 0. -1.
          1    1    1    2  502    0  0.19945012379E+02 -0.10781389429E+02  0.50947230499E+03  0.50997654007E+03  0.00000000000E+00 0. -1.
         22    1    3    3    0    0  0.83540757378E+01  0.51559206153E+02 -0.11122042119E+02  0.53402641709E+02  0.00000000000E+00 0. -1.
         22    1    3    3    0    0  0.36581531511E+02  0.64509380591E+01  0.12655266446E+03  0.13189162192E+03  0.00000000000E+00 0. -1.
</event>
<event>
 7    1  0.5553952E-006  0.9193129E+02  0.7818608E-02  0.1357207E+00
          2   -1    0    0  502    0  0.00000000000E+00  0.00000000000E+00  0.10070082367E+04  0.10070082367E+04  0.00000000000E+00 0. -1.
          1   -1    0    0  501    0 -0.00000000000E+00 -0.00000000000E+00 -0.11519993757E+03  0.11519993757E+03  0.00000000000E+00 0. -1.
         25    2    1    2    0    0  0.71618868220E+02 -0.11945114487E+03  0.36316262800E+03  0.40853554052E+03  0.12496541602E+03 0.  0.
          2    1    1    2  501    0 -0.29862172984E+02  0.84254213081E+02 -0.69382071253E+02  0.11315650051E+03  0.00000000000E+00 0. -1.
          1    1    1    2  502    0 -0.41756695236E+02  0.35196931790E+02  0.59802774234E+03  0.60051613319E+03  0.00000000000E+00 0. -1.
         22    1    3    3    0    0  0.81844550878E+01 -0.67555932971E+02  0.48992921826E+02  0.83851629524E+02  0.00000000000E+00 0.  1.
         22    1    3    3    0    0  0.63434413132E+02 -0.51895211900E+02  0.31416970617E+03  0.32468391100E+03  0.00000000000E+00 0.  1.
</event>
<event>
 7    1  0.5553952E-006  0.7887448E+02  0.7818608E-02  0.1440910E+00
          2   -1    0    0  502    0  0.00000000000E+00  0.00000000000E+00  0.19288864438E+02  0.19288864438E+02  0.00000000000E+00 0. -1.
          1   -1    0    0  501    0 -0.00000000000E+00 -0.00000000000E+00 -0.25028362376E+04  0.25028362376E+04  0.00000000000E+00 0. -1.
         25    2    1    2    0    0  0.47057121305E+02 -0.70019031634E+02 -0.62956442650E+03  0.64737347872E+03  0.12499606545E+03 0.  0.
          2    1    1    2  501    0 -0.31924018921E+02 -0.73455282337E+01 -0.17123118859E+04  0.17126252055E+04  0.00000000000E+00 0. -1.
          1    1    1    2  502    0 -0.15133102383E+02  0.77364559868E+02 -0.14167106075E+03  0.16212641785E+03  0.00000000000E+00 0. -1.
         22    1    3    3    0    0  0.21805580120E+02 -0.10136778244E+03 -0.52873491883E+03  0.53880564681E+03  0.00000000000E+00 0.  1.
         22    1    3    3    0    0  0.25251541185E+02  0.31348750804E+02 -0.10082950767E+03  0.10856783191E+03  0.00000000000E+00 0.  1.
</event>
<event>
 7    1  0.5553952E-006  0.3670934E+02  0.7818608E-02  0.1543695E+00
          2   -1    0    0  502    0  0.00000000000E+00  0.00000000000E+00  0.20606619766E+04  0.20606619766E+04  0.00000000000E+00 0. -1.
          1   -1    0    0  501    0 -0.00000000000E+00 -0.00000000000E+00 -0.14394498117E+04  0.14394498117E+04  0.00000000000E+00 0. -1.
         25    2    1    2    0    0 -0.36892077613E+02  0.72441408865E+01  0.67886742538E+03  0.69130391642E+03  0.12500648243E+03 0.  0.
          2    1    1    2  501    0  0.14744579968E+02 -0.33623759377E+02 -0.14327807500E+04  0.14332510727E+04  0.00000000000E+00 0. -1.
          1    1    1    2  502    0  0.22147497645E+02  0.26379618490E+02  0.13751254895E+04  0.13755567992E+04  0.00000000000E+00 0. -1.
         22    1    3    3    0    0 -0.89454683350E+01  0.64345379019E+02  0.40327039850E+03  0.40846953805E+03  0.00000000000E+00 0.  1.
         22    1    3    3    0    0 -0.27946609278E+02 -0.57101238132E+02  0.27559702688E+03  0.28283437838E+03  0.00000000000E+00 0.  1.
</event>
<event>
 7    1  0.5553952E-006  0.5093570E+02  0.7818608E-02  0.1528735E+00
          2   -1    0    0  502    0  0.00000000000E+00  0.00000000000E+00  0.19333676794E+03  0.19333676794E+03  0.00000000000E+00 0. -1.
          1   -1    0    0  501    0 -0.00000000000E+00 -0.00000000000E+00 -0.59364100682E+03  0.59364100682E+03  0.00000000000E+00 0. -1.
         25    2    1    2    0    0  0.34231848552E+02 -0.42243631161E+01 -0.30008847465E+03  0.32690376180E+03  0.12499324847E+03 0.  0.
          2    1    1    2  501    0  0.12915771803E+02  0.24137967552E+02 -0.27581392118E+03  0.27716922224E+03  0.00000000000E+00 0. -1.
          1    1    1    2  502    0 -0.47147620355E+02 -0.19913604436E+02  0.17559815695E+03  0.18290479072E+03  0.00000000000E+00 0. -1.
         22    1    3    3    0    0  0.55620997820E+02  0.29225189458E+02 -0.26965434907E+03  0.27687772584E+03  0.00000000000E+00 0.  1.
         22    1    3    3    0    0 -0.21389149268E+02 -0.33449552574E+02 -0.30434125581E+02  0.50026035958E+02  0.00000000000E+00 0.  1.
</event>
<event>
 7    1  0.5553952E-006  0.1375227E+03  0.7818608E-02  0.1249114E+00
          2   -1    0    0  502    0  0.00000000000E+00  0.00000000000E+00  0.36213377919E+03  0.36213377919E+03  0.00000000000E+00 0. -1.
          1   -1    0    0  501    0 -0.00000000000E+00 -0.00000000000E+00 -0.27014466689E+04  0.27014466689E+04  0.00000000000E+00 0. -1.
         25    2    1    2    0    0  0.62985311462E+01  0.11260481347E+03  0.16345036047E+03  0.23464981239E+03  0.12499999442E+03 0.  0.
          2    1    1    2  501    0  0.87572776066E+02  0.45230651284E+02 -0.26129243854E+04  0.26147827150E+04  0.00000000000E+00 0. -1.
          1    1    1    2  502    0 -0.93871307212E+02 -0.15783546476E+03  0.11016113517E+03  0.21414792073E+03  0.00000000000E+00 0. -1.
         22    1    3    3    0    0 -0.46193073920E+01  0.35981516535E+02  0.15217060110E+03  0.15643496851E+03  0.00000000000E+00 0. -1.
         22    1    3    3    0    0  0.10917838538E+02  0.76623296937E+02  0.11279759368E+02  0.78214843880E+02  0.00000000000E+00 0. -1.
</event>
<event>
 7    1  0.5553952E-006  0.1335255E+03  0.7818608E-02  0.1360391E+00
          2   -1    0    0  502    0  0.00000000000E+00  0.00000000000E+00  0.12070814415E+04  0.12070814415E+04  0.00000000000E+00 0. -1.
          1   -1    0    0  501    0 -0.00000000000E+00 -0.00000000000E+00 -0.75758533757E+03  0.75758533757E+03  0.00000000000E+00 0. -1.
         25    2    1    2    0    0  0.15445812493E+03 -0.17061778799E+02  0.92404145837E+02  0.21979575393E+03  0.12499292230E+03 0.  0.
          2    1    1    2  501    0 -0.13221228527E+03 -0.12008409642E+02 -0.68721610227E+03  0.69992161096E+03  0.00000000000E+00 0. -1.
          1    1    1    2  502    0 -0.22245839661E+02  0.29070188442E+02  0.10443080604E+04  0.10449494142E+04  0.00000000000E+00 0. -1.
         22    1    3    3    0    0  0.46728382147E+01  0.37118591877E+02  0.40013022648E+01  0.37624934548E+02  0.00000000000E+00 0.  1.
         22    1    3    3    0    0  0.14978528672E+03 -0.54180370676E+02  0.88402843572E+02  0.18217081939E+03  0.00000000000E+00 0.  1.
</event>
<event>
 7    1  0.7970083E-006  0.4801036E+02  0.7818608E-02  0.1476821E+00
          2   -1    0    0  502    0  0.00000000000E+00  0.00000000000E+00  0.17650149280E+04  0.17650149280E+04  0.00000000000E+00 0. -1.
          1   -1    0    0  501    0 -0.00000000000E+00 -0.00000000000E+00 -0.21638009090E+04  0.21638009090E+04  0.00000000000E+00 0. -1.
         25    2    1    2    0    0 -0.85737916612E+02  0.18643449035E+02 -0.43706371390E+03  0.46297671155E+03  0.12499670754E+03 0.  0.
          2    1    1    2  501    0  0.41441060094E+02 -0.20170251995E+00 -0.17132015580E+04  0.17137027107E+04  0.00000000000E+00 0. -1.
          1    1    1    2  502    0  0.44296856518E+02 -0.18441746515E+02  0.17514792909E+04  0.17521364148E+04  0.00000000000E+00 0. -1.
         22    1    3    3    0    0 -0.61347526984E+02  0.21251119824E+02 -0.43332776961E+03  0.43816444981E+03  0.00000000000E+00 0. -1.
         22    1    3    3    0    0 -0.24390389628E+02 -0.26076707892E+01 -0.37359442886E+01  0.24812261744E+02  0.00000000000E+00 0. -1.
</event>
<event>
 7    1  0.5553952E-006  0.6210808E+02  0.7818608E-02  0.1412077E+00
          2   -1    0    0  502    0  0.00000000000E+00  0.00000000000E+00  0.28066537104E+04  0.28066537104E+04  0.00000000000E+00 0. -1.
          1   -1    0    0  501    0 -0.00000000000E+00 -0.00000000000E+00 -0.19915653338E+03  0.19915653338E+03  0.00000000000E+00 0. -1.
         25    2    1    2    0    0 -0.65454052914E+02  0.18362112693E+01  0.83890776596E+02  0.16416138034E+03  0.12499476662E+03 0.  0.
          2    1    1    2  501    0  0.24922552208E+02  0.45436759781E+02 -0.15442754383E+03  0.16289106495E+03  0.00000000000E+00 0. -1.
          1    1    1    2  502    0  0.40531500706E+02 -0.47272971050E+02  0.26780339443E+04  0.26787577985E+04  0.00000000000E+00 0. -1.
         22    1    3    3    0    0  0.27366922187E+01  0.16379477983E+02  0.92435526098E+02  0.93915404851E+02  0.00000000000E+00 0. -1.
         22    1    3    3    0    0 -0.68190745133E+02 -0.14543266714E+02 -0.85447495027E+01  0.70245975490E+02  0.00000000000E+00 0. -1.
</event>
<event>
 7    1  0.5553952E-006  0.1164949E+03  0.7818608E-02  0.1330018E+00
          2   -1    0    0  502    0  0.00000000000E+00  0.00000000000E+00  0.15558149809E+04  0.15558149809E+04  0.00000000000E+00 0. -1.
          1   -1    0    0  501    0 -0.00000000000E+00 -0.00000000000E+00 -0.24974941935E+04  0.24974941935E+04  0.00000000000E+00 0. -1.
         25    2    1    2    0    0 -0.90715884979E+02 -0.88277928474E+02  0.37389009655E+03  0.41405010963E+03  0.12498529731E+03 0.  0.
          2    1    1    2  501    0  0.11031769663E+03  0.37454246573E+02 -0.24754049403E+04  0.24781449581E+04  0.00000000000E+00 0. -1.
          1    1    1    2  502    0 -0.19601811650E+02  0.50823681902E+02  0.11598356312E+04  0.11611141068E+04  0.00000000000E+00 0. -1.
         22    1    3    3    0    0 -0.46055040289E+02 -0.99158658305E+02  0.33942023679E+03  0.35659445227E+03  0.00000000000E+00 0. -1.
         22    1    3    3    0    0 -0.44660844690E+02  0.10880729830E+02  0.34469859764E+02  0.57455657356E+02  0.00000000000E+00 0. -1.
</event>
<event>
 7    1  0.5553952E-006  0.1698771E+03  0.7818608E-02  0.1348101E+00
          2   -1    0    0  502    0  0.00000000000E+00  0.00000000000E+00  0.81610616658E+03  0.81610616658E+03  0.00000000000E+00 0. -1.
          1   -1    0    0  501    0 -0.00000000000E+00 -0.00000000000E+00 -0.12953335962E+04  0.12953335962E+04  0.00000000000E+00 0. -1.
         25    2    1    2    0    0  0.15887873506E+03 -0.49115150654E+02  0.11963097665E+03  0.23998328895E+03  0.12500263168E+03 0.  0.
          2    1    1    2  501    0 -0.16904001099E+03  0.18843627698E+02 -0.12288957469E+04  0.12406104805E+04  0.00000000000E+00 0. -1.
          1    1    1    2  502    0  0.10161275936E+02  0.30271522956E+02  0.63003734065E+03  0.63084599328E+03  0.00000000000E+00 0. -1.
         22    1    3    3    0    0  0.13427368482E+03 -0.35091756887E+02  0.14589340835E+03  0.20135972893E+03  0.00000000000E+00 0.  1.
         22    1    3    3    0    0  0.24605050239E+02 -0.14023393767E+02 -0.26262431700E+02  0.38623560023E+02  0.00000000000E+00 0.  1.
</event>
<event>
 7    1  0.5553952E-006  0.1194423E+03  0.7818608E-02  0.1309693E+00
          2   -1    0    0  502    0  0.00000000000E+00  0.00000000000E+00  0.11238711838E+04  0.11238711838E+04  0.00000000000E+00 0. -1.
          1   -1    0    0  501    0 -0.00000000000E+00 -0.00000000000E+00 -0.70172742328E+02  0.70172742328E+02  0.00000000000E+00 0. -1.
         25    2    1    2    0    0  0.93141432723E+02 -0.40607895373E+02  0.21244363750E+03  0.26660821957E+03  0.12499326369E+03 0.  0.
          2    1    1    2  501    0 -0.80876108221E+02  0.10312593210E+03  0.60953767523E+02  0.14453810753E+03  0.00000000000E+00 0. -1.
          1    1    1    2  502    0 -0.12265324502E+02 -0.62518036724E+02  0.78030103648E+03  0.78289759907E+03  0.00000000000E+00 0. -1.
         22    1    3    3    0    0 -0.23635148919E+02 -0.10557438944E+02  0.45597059310E+01  0.26284419333E+02  0.00000000000E+00 0. -1.
         22    1    3    3    0    0  0.11677658164E+03 -0.30050456429E+02  0.20788393157E+03  0.24032380023E+03  0.00000000000E+00 0. -1.
</event>
<event>
 7    1  0.5553952E-006  0.1183606E+03  0.7818608E-02  0.1409486E+00
          2   -1    0    0  502    0  0.00000000000E+00  0.00000000000E+00  0.13045746163E+04  0.13045746163E+04  0.00000000000E+00 0. -1.
          1   -1    0    0  501    0 -0.00000000000E+00 -0.00000000000E+00 -0.12778964362E+04  0.12778964362E+04  0.00000000000E+00 0. -1.
         25    2    1    2    0    0  0.61560958595E+02  0.81182336176E+02  0.48338171841E+03  0.50957401091E+03  0.12500985388E+03 0.  0.
          2    1    1    2  501    0  0.26934730771E+02  0.66689034443E+01 -0.12598361322E+04  0.12601416722E+04  0.00000000000E+00 0. -1.
          1    1    1    2  502    0 -0.88495689367E+02 -0.87851239620E+02  0.80313259385E+03  0.81275536950E+03  0.00000000000E+00 0. -1.
         22    1    3    3    0    0 -0.16793122172E+02 -0.17908916754E+02  0.29191040606E+02  0.38142562882E+02  0.00000000000E+00 0.  1.
         22    1    3    3    0    0  0.78354080767E+02  0.99091252930E+02  0.45419067781E+03  0.47143144802E+03  0.00000000000E+00 0.  1.
</event>
<event>
 7    1  0.5553952E-006  0.1165582E+03  0.7818608E-02  0.1412941E+00
          2   -1    0    0  502    0  0.00000000000E+00  0.00000000000E+00  0.58214480436E+03  0.58214480436E+03  0.00000000000E+00 0. -1.
          1   -1    0    0  501    0 -0.00000000000E+00 -0.00000000000E+00 -0.57951676988E+02  0.57951676988E+02  0.00000000000E+00 0. -1.
         25    2    1    2    0    0 -0.97725808529E+02 -0.31805096989E+02  0.15885476000E+03  0.22676514009E+03  0.12500278451E+03 0.  0.
          2    1    1    2  501    0  0.12119811206E+03  0.45996920959E+02  0.15886204150E+03  0.20504108694E+03  0.00000000000E+00 0. -1.
          1    1    1    2  502    0 -0.23472303527E+02 -0.14191823970E+02  0.20647632587E+03  0.20829025432E+03  0.00000000000E+00 0. -1.
         22    1    3    3    0    0 -0.87425765335E+02 -0.35396556061E+02  0.32234219056E+02  0.99675601345E+02  0.00000000000E+00 0.  1.
         22    1    3    3    0    0 -0.10300043195E+02  0.35914590722E+01  0.12662054095E+03  0.12708953874E+03  0.00000000000E+00 0.  1.
</event>
<event>
 7    1  0.5553952E-006  0.1214618E+03  0.7818608E-02  0.1313300E+00
          2   -1    0    0  502    0  0.00000000000E+00  0.00000000000E+00  0.14949088765E+04  0.14949088765E+04  0.00000000000E+00 0. -1.
          1   -1    0    0  501    0 -0.00000000000E+00 -0.00000000000E+00 -0.12966537642E+04  0.12966537642E+04  0.00000000000E+00 0. -1.
         25    2    1    2    0    0 -0.16182023502E+03  0.10814205976E+02 -0.74659907852E+03  0.77416974426E+03  0.12500349337E+03 0.  0.
          2    1    1    2  501    0  0.10318938704E+03 -0.26286081755E+02 -0.53035428449E+03  0.54093869779E+03  0.00000000000E+00 0. -1.
          1    1    1    2  502    0  0.58630847983E+02  0.15471875779E+02  0.14752084752E+04  0.14764541987E+04  0.00000000000E+00 0. -1.
         22    1    3    3    0    0 -0.12920651866E+03  0.11615300502E+02 -0.30598146966E+03  0.33234605375E+03  0.00000000000E+00 0. -1.
         22    1    3    3    0    0 -0.32613716361E+02 -0.80109452590E+00 -0.44061760887E+03  0.44182369050E+03  0.00000000000E+00 0. -1.
</event>
<event>
 7    1  0.5553952E-006  0.3360437E+02  0.7818608E-02  0.1575756E+00
          2   -1    0    0  502    0  0.00000000000E+00  0.00000000000E+00  0.75162893204E+01  0.75162893204E+01  0.00000000000E+00 0. -1.
          1   -1    0    0  501    0 -0.00000000000E+00 -0.00000000000E+00 -0.16988103895E+04  0.16988103895E+04  0.00000000000E+00 0. -1.
         25    2    1    2    0    0  0.18015528449E+02 -0.21574968609E+01 -0.10213857380E+04  0.10291661803E+04  0.12499994724E+03 0.  0.
          2    1    1    2  501    0 -0.56274204720E+01  0.33395108561E+02 -0.58298102311E+03  0.58396384686E+03  0.00000000000E+00 0. -1.
          1    1    1    2  502    0 -0.12388107977E+02 -0.31237611700E+02 -0.86927339086E+02  0.93196651681E+02  0.00000000000E+00 0. -1.
         22    1    3    3    0    0 -0.11352308357E+02  0.21100595862E+02 -0.93121361630E+03  0.93152182434E+03  0.00000000000E+00 0. -1.
         22    1    3    3    0    0  0.29367836806E+02 -0.23258092723E+02 -0.90172121666E+02  0.97644355912E+02  0.00000000000E+00 0. -1.
</event>
<event>
 7    1  0.5553952E-006  0.2978230E+02  0.7818608E-02  0.1634433E+00
          2   -1    0    0  502    0  0.00000000000E+00  0.00000000000E+00  0.96712761284E+03  0.96712761284E+03  0.00000000000E+00 0. -1.
          1   -1    0    0  501    0 -0.00000000000E+00 -0.00000000000E+00 -0.29368321497E+02  0.29368321497E+02  0.00000000000E+00 0. -1.
         25    2    1    2    0    0 -0.20421572491E+02  0.27887718109E+01  0.35278426612E+03  0.37484073929E+03  0.12499609409E+03 0.  0.
          2    1    1    2  501    0 -0.96883746341E+00 -0.24373904993E+02 -0.96657892037E+01  0.26238394988E+02  0.00000000000E+00 0. -1.
          1    1    1    2  502    0  0.21390409954E+02  0.21585133182E+02  0.59464081442E+03  0.59541680006E+03  0.00000000000E+00 0. -1.
         22    1    3    3    0    0 -0.52216222057E+02 -0.72872847665E+01  0.33061415389E+03  0.33479151291E+03  0.00000000000E+00 0. -1.
         22    1    3    3    0    0  0.31794649566E+02  0.10076056577E+02  0.22170112233E+02  0.40049226380E+02  0.00000000000E+00 0. -1.
</event>
<event>
 7    1  0.5553952E-006  0.5791562E+02  0.7818608E-02  0.1420932E+00
          2   -1    0    0  502    0  0.00000000000E+00  0.00000000000E+00  0.26404448789E+03  0.26404448789E+03  0.00000000000E+00 0. -1.
          1   -1    0    0  501    0 -0.00000000000E+00 -0.00000000000E+00 -0.19986885521E+04  0.19986885521E+04  0.00000000000E+00 0. -1.
         25    2    1    2    0    0 -0.94707253858E+02  0.21109784337E+02 -0.39967373882E+03  0.42985926418E+03  0.12499921028E+03 0.  0.
          2    1    1    2  501    0  0.49695762793E+02  0.14957377326E+02 -0.15801494262E+04  0.15810014551E+04  0.00000000000E+00 0. -1.
          1    1    1    2  502    0  0.45011491065E+02 -0.36067161663E+02  0.24517910079E+03  0.25187232072E+03  0.00000000000E+00 0. -1.
         22    1    3    3    0    0 -0.10765671909E+03  0.48117126598E+02 -0.36725698782E+03  0.38572389365E+03  0.00000000000E+00 0. -1.
         22    1    3    3    0    0  0.12949465230E+02 -0.27007342261E+02 -0.32416751008E+02  0.44135370528E+02  0.00000000000E+00 0. -1.
</event>
<event>
 7    1  0.5553952E-006  0.9072791E+02  0.7818608E-02  0.1431788E+00
          2   -1    0    0  502    0  0.00000000000E+00  0.00000000000E+00  0.16938867286E+04  0.16938867286E+04  0.00000000000E+00 0. -1.
          1   -1    0    0  501    0 -0.00000000000E+00 -0.00000000000E+00 -0.42104021745E+03  0.42104021745E+03  0.00000000000E+00 0. -1.
         25    2    1    2    0    0 -0.41886285312E+02 -0.60036150907E+02 -0.16190876892E+02  0.14575786776E+03  0.12499764481E+03 0.  0.
          2    1    1    2  501    0 -0.30181880917E+02  0.43828843596E+01 -0.33810659206E+03  0.33947934136E+03  0.00000000000E+00 0. -1.
          1    1    1    2  502    0  0.72068166229E+02  0.55653266547E+02  0.16271439801E+04  0.16296897369E+04  0.00000000000E+00 0. -1.
         22    1    3    3    0    0  0.36792459925E+02 -0.19213074686E+02  0.24529069605E+02  0.48213095751E+02  0.00000000000E+00 0.  1.
         22    1    3    3    0    0 -0.78678745237E+02 -0.40823076221E+02 -0.40719946498E+02  0.97544772013E+02  0.00000000000E+00 0.  1.
</event>
<event>
 7    1  0.5553952E-006  0.9528353E+02  0.7818608E-02  0.1390380E+00
          2   -1    0    0  502    0  0.00000000000E+00  0.00000000000E+00  0.15873915900E+03  0.15873915900E+03  0.00000000000E+00 0. -1.
          1   -1    0    0  501    0 -0.00000000000E+00 -0.00000000000E+00 -0.48543411466E+03  0.48543411466E+03  0.00000000000E+00 0. -1.
         25    2    1    2    0    0  0.99461239939E+02 -0.35192298664E+02 -0.10444414239E+03  0.19407402662E+03  0.12500045117E+03 0.  0.
          2    1    1    2  501    0 -0.70685125788E+02  0.63118092429E+02 -0.32567056962E+03  0.33917783023E+03  0.00000000000E+00 0. -1.
          1    1    1    2  502    0 -0.28776114150E+02 -0.27925793765E+02  0.10341975636E+03  0.11092141681E+03  0.00000000000E+00 0. -1.
         22    1    3    3    0    0  0.37099292939E+02 -0.36597006579E+02  0.19239912276E+02  0.55550631423E+02  0.00000000000E+00 0. -1.
         22    1    3    3    0    0  0.62361946999E+02  0.14047079151E+01 -0.12368405467E+03  0.13852339520E+03  0.00000000000E+00 0. -1.
</event>
<event>
 7    1  0.5553952E-006  0.2850543E+02  0.7818608E-02  0.1654800E+00
          2   -1    0    0  502    0  0.00000000000E+00  0.00000000000E+00  0.14562725526E+04  0.14562725526E+04  0.00000000000E+00 0. -1.
          1   -1    0    0  501    0 -0.00000000000E+00 -0.00000000000E+00 -0.25797902240E+03  0.25797902240E+03  0.00000000000E+00 0. -1.
         25    2    1    2    0    0  0.32543789038E+02 -0.21800231454E+02  0.33192061433E+03  0.35683403613E+03  0.12499954732E+03 0.  0.
          2    1    1    2  501    0 -0.40981291161E+01  0.22326248197E+02 -0.24481518937E+03  0.24586527402E+03  0.00000000000E+00 0. -1.
          1    1    1    2  502    0 -0.28445659922E+02 -0.52601674267E+00  0.11111881052E+04  0.11115522648E+04  0.00000000000E+00 0. -1.
         22    1    3    3    0    0  0.74891715084E+02 -0.24784291393E+02  0.14414458402E+03  0.16431887046E+03  0.00000000000E+00 0. -1.
         22    1    3    3    0    0 -0.42347926046E+02  0.29840599388E+01  0.18777603031E+03  0.19251516567E+03  0.00000000000E+00 0. -1.
</event>
<event>
 7    1  0.5553952E-006  0.1386380E+03  0.7818608E-02  0.1232528E+00
          2   -1    0    0  502    0  0.00000000000E+00  0.00000000000E+00  0.26947201864E+04  0.26947201864E+04  0.00000000000E+00 0. -1.
          1   -1    0    0  501    0 -0.00000000000E+00 -0.00000000000E+00 -0.50204736735E+03  0.50204736735E+03  0.00000000000E+00 0. -1.
         25    2    1    2    0    0 -0.18619781689E+03  0.49817019988E+02  0.54889888477E+03  0.59503468506E+03  0.12499971293E+03 0.  0.
          2    1    1    2  501    0  0.58918295581E+02 -0.99551942066E+02 -0.46975600644E+03  0.48378989274E+03  0.00000000000E+00 0. -1.
          1    1    1    2  502    0  0.12727952131E+03  0.49734922078E+02  0.21135299407E+04  0.21179429759E+04  0.00000000000E+00 0. -1.
         22    1    3    3    0    0 -0.10995037660E+03 -0.19810111702E+02  0.17907862646E+03  0.21107032074E+03  0.00000000000E+00 0.  1.
         22    1    3    3    0    0 -0.76247440284E+02  0.69627131690E+02  0.36982025831E+03  0.38396436433E+03  0.00000000000E+00 0.  1.
</event>
<event>
 7    1  0.5553952E-006  0.1004932E+03  0.7818608E-02  0.1324934E+00
          2   -1    0    0  502    0  0.00000000000E+00  0.00000000000E+00  0.37977213199E+04  0.37977213199E+04  0.00000000000E+00 0. -1.
          1   -1    0    0  501    0 -0.00000000000E+00 -0.00000000000E+00 -0.63477152721E+03  0.63477152721E+03  0.00000000000E+00 0. -1.
         25    2    1    2    0    0  0.50656129909E+01 -0.89674638684E+01 -0.30828271558E+03  0.33282054688E+03  0.12500083141E+03 0.  0.
          2    1    1    2  501    0 -0.75433459245E+02  0.80711813036E+02 -0.30382027467E+03  0.32328217216E+03  0.00000000000E+00 0. -1.
          1    1    1    2  502    0  0.70367846254E+02 -0.71744349167E+02  0.37750527830E+04  0.37763901281E+04  0.00000000000E+00 0. -1.
         22    1    3    3    0    0 -0.13103437924E+02 -0.53161808411E+02 -0.65454613861E+02  0.85335716055E+02  0.00000000000E+00 0.  1.
         22    1    3    3    0    0  0.18169050915E+02  0.44194344543E+02 -0.24282810172E+03  0.24748483082E+03  0.00000000000E+00 0.  1.
</event>
<event>
 7    1  0.5553952E-006  0.7660959E+02  0.7818608E-02  0.1505851E+00
          2   -1    0    0  502    0  0.00000000000E+00  0.00000000000E+00  0.38332077072E+03  0.38332077072E+03  0.00000000000E+00 0. -1.
          1   -1    0    0  501    0 -0.00000000000E+00 -0.00000000000E+00 -0.65074522518E+03  0.65074522518E+03  0.00000000000E+00 0. -1.
         25    2    1    2    0    0  0.40922690429E+02  0.82794992201E+02 -0.86627428353E+02  0.17792996670E+03  0.12500033752E+03 0.  0.
          2    1    1    2  501    0  0.34679775014E+01 -0.20938051426E+02 -0.51395295559E+03  0.51439096943E+03  0.00000000000E+00 0. -1.
          1    1    1    2  502    0 -0.44390667931E+02 -0.61856940775E+02  0.33315592949E+03  0.34174505977E+03  0.00000000000E+00 0. -1.
         22    1    3    3    0    0  0.70460019011E+01  0.10904533417E+03 -0.77889770534E+02  0.13419145800E+03  0.00000000000E+00 0.  1.
         22    1    3    3    0    0  0.33876688528E+02 -0.26250341966E+02 -0.87376578188E+01  0.43738508698E+02  0.00000000000E+00 0.  1.
</event>
<event>
 7    1  0.5553952E-006  0.1383979E+03  0.7818608E-02  0.1412918E+00
          2   -1    0    0  502    0  0.00000000000E+00  0.00000000000E+00  0.10804957136E+04  0.10804957136E+04  0.00000000000E+00 0. -1.
          1   -1    0    0  501    0 -0.00000000000E+00 -0.00000000000E+00 -0.88787279942E+03  0.88787279942E+03  0.00000000000E+00 0. -1.
         25    2    1    2    0    0  0.71612108710E+02 -0.12984405357E+03  0.15183634886E+03  0.24631057202E+03  0.12500739455E+03 0.  0.
          2    1    1    2  501    0 -0.48512384104E+02  0.12936193225E+03 -0.83480562064E+03  0.84616096884E+03  0.00000000000E+00 0. -1.
          1    1    1    2  502    0 -0.23099724606E+02  0.48212132486E+00  0.87559218596E+03  0.87589697216E+03  0.00000000000E+00 0. -1.
         22    1    3    3    0    0  0.10175318263E+01 -0.44902424754E+00 -0.19934749076E+02  0.19965751038E+02  0.00000000000E+00 0. -1.
         22    1    3    3    0    0  0.70594576884E+02 -0.12939502932E+03  0.17177109793E+03  0.22634482098E+03  0.00000000000E+00 0. -1.
</event>
<event>
 7    1  0.5553952E-006  0.5489256E+02  0.7818608E-02  0.1542058E+00
          2   -1    0    0  502    0  0.00000000000E+00  0.00000000000E+00  0.11917968857E+03  0.11917968857E+03  0.00000000000E+00 0. -1.
          1   -1    0    0  501    0 -0.00000000000E+00 -0.00000000000E+00 -0.13023557337E+04  0.13023557337E+04  0.00000000000E+00 0. -1.
         25    2    1    2    0    0  0.77913443164E+02  0.20729236135E+01 -0.98493579213E+03  0.99589059515E+03  0.12499904496E+03 0.  0.
          2    1    1    2  501    0 -0.23259645316E+02  0.97754757411E+00 -0.30488483758E+03  0.30577235141E+03  0.00000000000E+00 0. -1.
          1    1    1    2  502    0 -0.54653797847E+02 -0.30504711876E+01  0.10664458463E+03  0.11987247567E+03  0.00000000000E+00 0. -1.
         22    1    3    3    0    0 -0.32304322271E+02  0.36934852542E+00 -0.13372567099E+03  0.13757274708E+03  0.00000000000E+00 0. -1.
         22    1    3    3    0    0  0.11021776544E+03  0.17035750881E+01 -0.85121012114E+03  0.85831784807E+03  0.00000000000E+00 0. -1.
</event>
<event>
 7    1  0.5553952E-006  0.3984316E+02  0.7818608E-02  0.1616527E+00
          2   -1    0    0  502    0  0.00000000000E+00  0.00000000000E+00  0.12925618293E+04  0.12925618293E+04  0.00000000000E+00 0. -1.
          1   -1    0    0  501    0 -0.00000000000E+00 -0.00000000000E+00 -0.33592442813E+03  0.33592442813E+03  0.00000000000E+00 0. -1.
         25    2    1    2    0    0  0.33633453576E+02  0.46038126681E+02  0.40090170084E+03  0.42378781944E+03  0.12499289526E+03 0.  0.
          2    1    1    2  501    0 -0.30020221668E+02 -0.26125642468E+02 -0.32314421841E+03  0.32558554759E+03  0.00000000000E+00 0. -1.
          1    1    1    2  502    0 -0.36132319076E+01 -0.19912484212E+02  0.87887991879E+03  0.87911289043E+03  0.00000000000E+00 0. -1.
         22    1    3    3    0    0 -0.39704005532E+02  0.39029973266E+02  0.24651896055E+03  0.25272780768E+03  0.00000000000E+00 0.  1.
         22    1    3    3    0    0  0.73337459108E+02  0.70081534144E+01  0.15438274029E+03  0.17106001176E+03  0.00000000000E+00 0.  1.
</event>
<event>
 7    1  0.5553952E-006  0.4873129E+02  0.7818608E-02  0.1503651E+00
          2   -1    0    0  502    0  0.00000000000E+00  0.00000000000E+00  0.74178209435E+03  0.74178209435E+03  0.00000000000E+00 0. -1.
          1   -1    0    0  501    0 -0.00000000000E+00 -0.00000000000E+00 -0.21779097850E+02  0.21779097850E+02  0.00000000000E+00 0. -1.
         25    2    1    2    0    0 -0.10734571462E+01 -0.22519361390E+02  0.38119779088E+03  0.40180100384E+03  0.12499606782E+03 0.  0.
          2    1    1    2  501    0 -0.16725724716E+02 -0.29451673642E+02  0.22366074001E+02  0.40588079700E+02  0.00000000000E+00 0. -1.
          1    1    1    2  502    0  0.17799181862E+02  0.51971035031E+02  0.31643913162E+03  0.32117210866E+03  0.00000000000E+00 0. -1.
         22    1    3    3    0    0 -0.17947404738E+02  0.43042940354E+02  0.75858217756E+02  0.89046466815E+02  0.00000000000E+00 0. -1.
         22    1    3    3    0    0  0.16873947592E+02 -0.65562301744E+02  0.30533957312E+03  0.31275453703E+03  0.00000000000E+00 0. -1.
</event>
<event>
 7    1  0.5553952E-006  0.1244686E+03  0.7818608E-02  0.1431710E+00
          2   -1    0    0  502    0  0.00000000000E+00  0.00000000000E+00  0.88831772685E+03  0.88831772685E+03  0.00000000000E+00 0. -1.
          1   -1    0    0  501    0 -0.00000000000E+00 -0.00000000000E+00 -0.67164549004E+02  0.67164549004E+02  0.00000000000E+00 0. -1.
         25    2    1    2    0    0  0.94095356724E+02 -0.51666427817E+02  0.29821248501E+03  0.34070356970E+03  0.12499952108E+03 0.  0.
          2    1    1    2  501    0 -0.11495863687E+03  0.59381284790E+02  0.46005259006E+02  0.13732483035E+03  0.00000000000E+00 0. -1.
          1    1    1    2  502    0  0.20863280147E+02 -0.77148569725E+01  0.47693543383E+03  0.47745387580E+03  0.00000000000E+00 0. -1.
         22    1    3    3    0    0  0.55966030975E+02  0.32110750681E+02  0.73120511028E+02  0.97518747251E+02  0.00000000000E+00 0. -1.
         22    1    3    3    0    0  0.38129325750E+02 -0.83777178499E+02  0.22509197398E+03  0.24318482245E+03  0.00000000000E+00 0. -1.
</event>
<event>
 7    1  0.5553952E-006  0.5810920E+02  0.7818608E-02  0.1434767E+00
          2   -1    0    0  502    0  0.00000000000E+00  0.00000000000E+00  0.32110702463E+03  0.32110702463E+03  0.00000000000E+00 0. -1.
          1   -1    0    0  501    0 -0.00000000000E+00 -0.00000000000E+00 -0.36443188416E+03  0.36443188416E+03  0.00000000000E+00 0. -1.
         25    2    1    2    0    0 -0.47899029293E+02  0.20322774797E+02 -0.10319540956E+03  0.17024300848E+03  0.12500422873E+03 0.  0.
          2    1    1    2  501    0 -0.46557429111E+01 -0.46326495990E+02 -0.22228660324E+03  0.22711044484E+03  0.00000000000E+00 0. -1.
          1    1    1    2  502    0  0.52554772204E+02  0.26003721194E+02  0.28215715328E+03  0.28818545547E+03  0.00000000000E+00 0. -1.
         22    1    3    3    0    0  0.17131704048E+02  0.95135633414E+01 -0.10245883533E+03  0.10431594369E+03  0.00000000000E+00 0. -1.
         22    1    3    3    0    0 -0.65030733341E+02  0.10809211455E+02 -0.73657423887E+00  0.65927064797E+02  0.00000000000E+00 0. -1.
</event>
<event>
 7    1  0.5553952E-006  0.1134944E+03  0.7818608E-02  0.1434178E+00
          2   -1    0    0  502    0  0.00000000000E+00  0.00000000000E+00  0.21306965073E+04  0.21306965073E+04  0.00000000000E+00 0. -1.
          1   -1    0    0  501    0 -0.00000000000E+00 -0.00000000000E+00 -0.55957644691E+02  0.55957644691E+02  0.00000000000E+00 0. -1.
         25    2    1    2    0    0  0.22636843328E+02  0.92847357005E+02  0.63428975935E+03  0.65351424679E+03  0.12499725419E+03 0.  0.
          2    1    1    2  501    0 -0.13148238254E+02 -0.11483161088E+03  0.25976938026E+02  0.11846508488E+03  0.00000000000E+00 0. -1.
          1    1    1    2  502    0 -0.94886050742E+01  0.21984253877E+02  0.14144721652E+04  0.14146748203E+04  0.00000000000E+00 0. -1.
         22    1    3    3    0    0 -0.46302316914E+00  0.36642137244E+02  0.33471032456E+02  0.49630339773E+02  0.00000000000E+00 0.  1.
         22    1    3    3    0    0  0.23099866497E+02  0.56205219761E+02  0.60081872690E+03  0.60388390702E+03  0.00000000000E+00 0.  1.
</event>
<event>
 7    1  0.5553952E-006  0.4394227E+02  0.7818608E-02  0.1549449E+00
          2   -1    0    0  502    0  0.00000000000E+00  0.00000000000E+00  0.82051204466E+02  0.82051204466E+02  0.00000000000E+00 0. -1.
          1   -1    0    0  501    0 -0.00000000000E+00 -0.00000000000E+00 -0.26324310788E+03  0.26324310788E+03  0.00000000000E+00 0. -1.
         25    2    1    2    0    0 -0.10657027718E+02  0.25085414582E+02 -0.16919614407E+03  0.21212256328E+03  0.12500318563E+03 0.  0.
          2    1    1    2  501    0  0.40186593364E+01 -0.52004713134E+02 -0.58906305576E+02  0.78680319316E+02  0.00000000000E+00 0. -1.
          1    1    1    2  502    0  0.66383683817E+01  0.26919298552E+02  0.46910546230E+02  0.54491429756E+02  0.00000000000E+00 0. -1.
         22    1    3    3    0    0  0.55147258877E+02  0.57851542679E+01 -0.50288323464E+02  0.74857221752E+02  0.00000000000E+00 0.  1.
         22    1    3    3    0    0 -0.65804286595E+02  0.19300260314E+02 -0.11890782061E+03  0.13726534153E+03  0.00000000000E+00 0.  1.
</event>
<event>
 7    1  0.5553952E-006  0.1757069E+03  0.7818608E-02  0.1300465E+00
          2   -1    0    0  502    0  0.00000000000E+00  0.00000000000E+00  0.10703328763E+04  0.10703328763E+04  0.00000000000E+00 0. -1.
          1   -1    0    0  501    0 -0.00000000000E+00 -0.00000000000E+00 -0.73396947519E+03  0.73396947519E+03  0.00000000000E+00 0. -1.
         25    2    1    2    0    0  0.18650100084E+03 -0.84213783867E+02 -0.11621230689E+03  0.26646948370E+03  0.12500440298E+03 0.  0.
          2    1    1    2  501    0 -0.16464690498E+02  0.44152095329E+02 -0.53391679025E+03  0.53599219441E+03  0.00000000000E+00 0. -1.
          1    1    1    2  502    0 -0.17003631034E+03  0.40061688539E+02  0.98649249826E+03  0.10018406734E+04  0.00000000000E+00 0. -1.
         22    1    3    3    0    0  0.18034159277E+03 -0.29454975695E+02 -0.74396206644E+02  0.19729541616E+03  0.00000000000E+00 0.  1.
         22    1    3    3    0    0  0.61594080683E+01 -0.54758808172E+02 -0.41816100251E+02  0.69174067543E+02  0.00000000000E+00 0.  1.
</event>
<event>
 7    1  0.5553952E-006  0.4276775E+02  0.7818608E-02  0.1514701E+00
          2   -1    0    0  502    0  0.00000000000E+00  0.00000000000E+00  0.64672689443E+03  0.64672689443E+03  0.00000000000E+00 0. -1.
          1   -1    0    0  501    0 -0.00000000000E+00 -0.00000000000E+00 -0.71572238999E+02  0.71572238999E+02  0.00000000000E+00 0. -1.
         25    2    1    2    0    0 -0.27122663112E+01 -0.17502690791E+02  0.10774626686E+03  0.16597592619E+03  0.12500019791E+03 0.  0.
          2    1    1    2  501    0 -0.35609395214E+02 -0.37344441144E+01 -0.33779302417E+02  0.49224144199E+02  0.00000000000E+00 0. -1.
          1    1    1    2  502    0  0.38321661526E+02  0.21237134905E+02  0.50118769099E+03  0.50309906305E+03  0.00000000000E+00 0. -1.
         22    1    3    3    0    0 -0.24785944438E+02 -0.67012836805E+02  0.69142065993E+02  0.99426800352E+02  0.00000000000E+00 0. -1.
         22    1    3    3    0    0  0.22073678127E+02  0.49510146015E+02  0.38604200872E+02  0.66549125835E+02  0.00000000000E+00 0. -1.
</event>
<event>
 7    1  0.5553952E-006  0.7483980E+02  0.7818608E-02  0.1386860E+00
          2   -1    0    0  502    0  0.00000000000E+00  0.00000000000E+00  0.18776645334E+04  0.18776645334E+04  0.00000000000E+00 0. -1.
          1   -1    0    0  501    0 -0.00000000000E+00 -0.00000000000E+00 -0.72942930232E+02  0.72942930232E+02  0.00000000000E+00 0. -1.
         25    2    1    2    0    0 -0.36845050420E+02 -0.11024270327E+02  0.34647182601E+03  0.37033357805E+03  0.12500056213E+03 0.  0.
          2    1    1    2  501    0  0.73080994406E+02 -0.26993110185E+02 -0.35491066005E+02  0.85610019898E+02  0.00000000000E+00 0. -1.
          1    1    1    2  502    0 -0.36235943986E+02  0.38017380512E+02  0.14937408431E+04  0.14946638656E+04  0.00000000000E+00 0. -1.
         22    1    3    3    0    0  0.31738415901E+01  0.69415580329E+01 -0.92072680167E+01  0.11959610474E+02  0.00000000000E+00 0.  1.
         22    1    3    3    0    0 -0.40018892010E+02 -0.17965828360E+02  0.35567909403E+03  0.35837396757E+03  0.00000000000E+00 0.  1.
</event>
<event>
 7    1  0.5553952E-006  0.1383056E+03  0.7818608E-02  0.1309499E+00
          2   -1    0    0  502    0  0.00000000000E+00  0.00000000000E+00  0.11762370247E+03  0.11762370247E+03  0.00000000000E+00 0. -1.
          1   -1    0    0  501    0 -0.00000000000E+00 -0.00000000000E+00 -0.18204838564E+04  0.18204838564E+04  0.00000000000E+00 0. -1.
         25    2    1    2    0    0 -0.24687730930E+02 -0.99486655974E+02 -0.25007672284E+02  0.16357723895E+03  0.12500020262E+03 0.  0.
          2    1    1    2  501    0  0.76956948463E+02  0.11697685894E+03 -0.17066215963E+04  0.17123560466E+04  0.00000000000E+00 0. -1.
          1    1    1    2  502    0 -0.52269217532E+02 -0.17490202964E+02  0.28769114656E+02  0.62174273291E+02  0.00000000000E+00 0. -1.
         22    1    3    3    0    0  0.21172097057E+02 -0.11210597728E+03 -0.17256623140E+02  0.11538543616E+03  0.00000000000E+00 0. -1.
         22    1    3    3    0    0 -0.45859827987E+02  0.12619321306E+02 -0.77510491438E+01  0.48191802789E+02  0.00000000000E+00 0. -1.
</event>
<event>
 7    1  0.5553952E-006  0.1671284E+03  0.7818608E-02  0.1264516E+00
          2   -1    0    0  502    0  0.00000000000E+00  0.00000000000E+00  0.13430237457E+04  0.13430237457E+04  0.00000000000E+00 0. -1.
          1   -1    0    0  501    0 -0.00000000000E+00 -0.00000000000E+00 -0.17444087101E+03  0.17444087101E+03  0.00000000000E+00 0. -1.
         25    2    1    2    0    0 -0.16463745473E+02  0.11776706623E+03  0.20366764144E+03  0.26691957382E+03  0.12500165565E+03 0.  0.
          2    1    1    2  501    0 -0.17440942446E+02 -0.17861519502E+03 -0.84821326920E+02  0.19849995432E+03  0.00000000000E+00 0. -1.
          1    1    1    2  502    0  0.33904687919E+02  0.60848128791E+02  0.10497365601E+04  0.10520450885E+04  0.00000000000E+00 0. -1.
         22    1    3    3    0    0  0.11621844209E+02 -0.18932948231E+02  0.70897690793E+02  0.74296745227E+02  0.00000000000E+00 0. -1.
         22    1    3    3    0    0 -0.28085589682E+02  0.13670001446E+03  0.13276995065E+03  0.19262282860E+03  0.00000000000E+00 0. -1.
</event>
<event>
 7    1  0.5553952E-006  0.8835752E+02  0.7818608E-02  0.1448451E+00
          2   -1    0    0  502    0  0.00000000000E+00  0.00000000000E+00  0.55487927579E+03  0.55487927579E+03  0.00000000000E+00 0. -1.
          1   -1    0    0  501    0 -0.00000000000E+00 -0.00000000000E+00 -0.91589323084E+03  0.91589323084E+03  0.00000000000E+00 0. -1.
         25    2    1    2    0    0 -0.91789452756E+01  0.77389834734E+02  0.18950571774E+03  0.24004001316E+03  0.12503340076E+03 0.  0.
          2    1    1    2  501    0 -0.26805799883E+02  0.67824711665E+01 -0.88424631215E+03  0.88467852544E+03  0.00000000000E+00 0. -1.
          1    1    1    2  502    0  0.35984745159E+02 -0.84172305900E+02  0.33372663937E+03  0.34605396803E+03  0.00000000000E+00 0. -1.
         22    1    3    3    0    0 -0.27085718491E+02 -0.24358501588E+02  0.87841529454E+02  0.95095252471E+02  0.00000000000E+00 0.  1.
         22    1    3    3    0    0  0.17906773216E+02  0.10174833632E+03  0.10166418829E+03  0.14494476069E+03  0.00000000000E+00 0.  1.
</event>
<event>
 7    1  0.5553952E-006  0.5895857E+02  0.7818608E-02  0.1427090E+00
          2   -1    0    0  502    0  0.00000000000E+00  0.00000000000E+00  0.13939823108E+03  0.13939823108E+03  0.00000000000E+00 0. -1.
          1   -1    0    0  501    0 -0.00000000000E+00 -0.00000000000E+00 -0.29388379248E+03  0.29388379248E+03  0.00000000000E+00 0. -1.
         25    2    1    2    0    0 -0.88894131597E+02 -0.36138134448E+02  0.13543589369E+02  0.15816620110E+03  0.12499994786E+03 0.  0.
          2    1    1    2  501    0  0.57576863991E+02 -0.10719270848E+01 -0.20569306876E+03  0.21360216017E+03  0.00000000000E+00 0. -1.
          1    1    1    2  502    0  0.31317267606E+02  0.37210061533E+02  0.37663917983E+02  0.61513662283E+02  0.00000000000E+00 0. -1.
         22    1    3    3    0    0 -0.86725347427E+02 -0.73151794854E+02 -0.10553164522E+02  0.11394665532E+03  0.00000000000E+00 0.  1.
         22    1    3    3    0    0 -0.21687841701E+01  0.37013660405E+02  0.24096753891E+02  0.44219545785E+02  0.00000000000E+00 0.  1.
</event>
<event>
 7    1  0.5553952E-006  0.1312696E+03  0.7818608E-02  0.1357529E+00
          2   -1    0    0  502    0  0.00000000000E+00  0.00000000000E+00  0.77847577167E+03  0.77847577167E+03  0.00000000000E+00 0. -1.
          1   -1    0    0  501    0 -0.00000000000E+00 -0.00000000000E+00 -0.31308014065E+03  0.31308014065E+03  0.00000000000E+00 0. -1.
         25    2    1    2    0    0  0.86960629733E+02 -0.13886232525E+03  0.12315653940E+03  0.24008187192E+03  0.12500750189E+03 0.  0.
          2    1    1    2  501    0 -0.78434286336E+02  0.10168540616E+03 -0.23775835427E+03  0.27022378527E+03  0.00000000000E+00 0. -1.
          1    1    1    2  502    0 -0.85263433969E+01  0.37176919087E+02  0.57999744590E+03  0.58125025513E+03  0.00000000000E+00 0. -1.
         22    1    3    3    0    0  0.48346771178E+02 -0.50082813460E+02 -0.15166785696E+02  0.71244156784E+02  0.00000000000E+00 0. -1.
         22    1    3    3    0    0  0.38613858554E+02 -0.88779511791E+02  0.13832332510E+03  0.16883771513E+03  0.00000000000E+00 0. -1.
</event>
<event>
 7    1  0.5553952E-006  0.3553687E+03  0.7818608E-02  0.1208314E+00
          2   -1    0    0  502    0  0.00000000000E+00  0.00000000000E+00  0.20881847319E+03  0.20881847319E+03  0.00000000000E+00 0. -1.
          1   -1    0    0  501    0 -0.00000000000E+00 -0.00000000000E+00 -0.10620524130E+04  0.10620524130E+04  0.00000000000E+00 0. -1.
         25    2    1    2    0    0  0.80252474658E+02  0.34063816340E+03 -0.31197242319E+03  0.48520709428E+03  0.12499725379E+03 0.  0.
          2    1    1    2  501    0 -0.54863654127E+02  0.19372359178E+02 -0.39004384965E+03  0.39435962457E+03  0.00000000000E+00 0. -1.
          1    1    1    2  502    0 -0.25388820532E+02 -0.36001052258E+03 -0.15121766698E+03  0.39130416735E+03  0.00000000000E+00 0. -1.
         22    1    3    3    0    0  0.64004155126E+02  0.31243088725E+03 -0.21945675819E+03  0.38713157956E+03  0.00000000000E+00 0.  1.
         22    1    3    3    0    0  0.16248319533E+02  0.28207276149E+02 -0.92515665009E+02  0.98075514719E+02  0.00000000000E+00 0.  1.
</event>
<event>
 7    1  0.5553952E-006  0.3621900E+02  0.7818608E-02  0.1606185E+00
          2   -1    0    0  502    0  0.00000000000E+00  0.00000000000E+00  0.48752736067E+03  0.48752736067E+03  0.00000000000E+00 0. -1.
          1   -1    0    0  501    0 -0.00000000000E+00 -0.00000000000E+00 -0.10845340395E+04  0.10845340395E+04  0.00000000000E+00 0. -1.
         25    2    1    2    0    0  0.26566033170E+02  0.92788493536E+01 -0.32259636232E+02  0.13211332755E+03  0.12498558326E+03 0.  0.
          2    1    1    2  501    0 -0.33811254162E+02  0.13255601186E+02 -0.10016981609E+04  0.10023562827E+04  0.00000000000E+00 0. -1.
          1    1    1    2  502    0  0.72452209922E+01 -0.22534450539E+02  0.43695111839E+03  0.43759178986E+03  0.00000000000E+00 0. -1.
         22    1    3    3    0    0 -0.22427973820E+02 -0.10837193585E+02  0.37197372098E+02  0.44767211946E+02  0.00000000000E+00 0. -1.
         22    1    3    3    0    0  0.48994006989E+02  0.20116042938E+02 -0.69457008330E+02  0.87346115600E+02  0.00000000000E+00 0. -1.
</event>
<event>
 7    1  0.5553952E-006  0.5243178E+02  0.7818608E-02  0.1506857E+00
          2   -1    0    0  502    0  0.00000000000E+00  0.00000000000E+00  0.26778296948E+04  0.26778296948E+04  0.00000000000E+00 0. -1.
          1   -1    0    0  501    0 -0.00000000000E+00 -0.00000000000E+00 -0.80195020327E+02  0.80195020327E+02  0.00000000000E+00 0. -1.
         25    2    1    2    0    0  0.37364334275E+01 -0.79443377409E+02  0.61158052881E+03  0.62927056960E+03  0.12500198159E+03 0.  0.
          2    1    1    2  501    0  0.87720634193E+01  0.51299741351E+02 -0.61728196461E+02  0.80740217969E+02  0.00000000000E+00 0. -1.
          1    1    1    2  502    0 -0.12508496847E+02  0.28143636059E+02  0.20477823422E+04  0.20480139276E+04  0.00000000000E+00 0. -1.
         22    1    3    3    0    0  0.57436215168E+02 -0.82101070452E+01  0.27625318351E+03  0.28228026157E+03  0.00000000000E+00 0.  1.
         22    1    3    3    0    0 -0.53699781740E+02 -0.71233270364E+02  0.33532734529E+03  0.34699030803E+03  0.00000000000E+00 0.  1.
</event>
<event>
 7    1  0.5553952E-006  0.1089094E+03  0.7818608E-02  0.1450342E+00
          2   -1    0    0  502    0  0.00000000000E+00  0.00000000000E+00  0.21367293046E+04  0.21367293046E+04  0.00000000000E+00 0. -1.
          1   -1    0    0  501    0 -0.00000000000E+00 -0.00000000000E+00 -0.58982603287E+02  0.58982603287E+02  0.00000000000E+00 0. -1.
         25    2    1    2    0    0 -0.66422083312E+02  0.94166214723E+02  0.12853876134E+04  0.12965826148E+04  0.12500396433E+03 0.  0.
          2    1    1    2  501    0  0.44844169971E+02 -0.99042728040E+02  0.22854074785E+01  0.10874596381E+03  0.00000000000E+00 0. -1.
          1    1    1    2  502    0  0.21577913341E+02  0.48765133173E+01  0.79007368044E+03  0.79038332931E+03  0.00000000000E+00 0. -1.
         22    1    3    3    0    0  0.10770780532E+01 -0.29290259915E+02  0.21988958452E+03  0.22183441753E+03  0.00000000000E+00 0. -1.
         22    1    3    3    0    0 -0.67499161365E+02  0.12345647464E+03  0.10654980289E+04  0.10747481973E+04  0.00000000000E+00 0. -1.
</event>
<event>
 7    1  0.5553952E-006  0.3050934E+03  0.7818608E-02  0.1262720E+00
          2   -1    0    0  502    0  0.00000000000E+00  0.00000000000E+00  0.95997991685E+03  0.95997991685E+03  0.00000000000E+00 0. -1.
          1   -1    0    0  501    0 -0.00000000000E+00 -0.00000000000E+00 -0.57233278834E+03  0.57233278834E+03  0.00000000000E+00 0. -1.
         25    2    1    2    0    0  0.20729262987E+03 -0.20544408350E+03  0.11155893870E+03  0.33652293036E+03  0.12499912003E+03 0.  0.
          2    1    1    2  501    0 -0.24298230733E+03  0.19013918940E+03 -0.40748535088E+03  0.51111410096E+03  0.00000000000E+00 0. -1.
          1    1    1    2  502    0  0.35689677460E+02  0.15304894104E+02  0.68357354069E+03  0.68467567387E+03  0.00000000000E+00 0. -1.
         22    1    3    3    0    0  0.16350622317E+03 -0.20664457020E+03  0.12365771933E+03  0.29107987728E+03  0.00000000000E+00 0. -1.
         22    1    3    3    0    0  0.43786406703E+02  0.12004866992E+01 -0.12098780629E+02  0.45443053077E+02  0.00000000000E+00 0. -1.
</event>
<event>
 7    1  0.5553952E-006  0.1719119E+03  0.7818608E-02  0.1230386E+00
          2   -1    0    0  502    0  0.00000000000E+00  0.00000000000E+00  0.81250948271E+03  0.81250948271E+03  0.00000000000E+00 0. -1.
          1   -1    0    0  501    0 -0.00000000000E+00 -0.00000000000E+00 -0.48613063188E+03  0.48613063188E+03  0.00000000000E+00 0. -1.
         25    2    1    2    0    0 -0.18789947619E+03 -0.11843077856E+03  0.27252146615E+03  0.37312919598E+03  0.12500153964E+03 0.  0.
          2    1    1    2  501    0  0.95254045430E+02  0.14107024155E+03 -0.41421242343E+03  0.44782371302E+03  0.00000000000E+00 0. -1.
          1    1    1    2  502    0  0.92645430759E+02 -0.22639462991E+02  0.46806980811E+03  0.47768720559E+03  0.00000000000E+00 0. -1.
         22    1    3    3    0    0  0.13126539169E+02 -0.27657328643E+02  0.15102222147E+02  0.34136651447E+02  0.00000000000E+00 0. -1.
         22    1    3    3    0    0 -0.20102601536E+03 -0.90773449918E+02  0.25741924401E+03  0.33899254453E+03  0.00000000000E+00 0. -1.
</event>
<event>
 7    1  0.5553952E-006  0.2082278E+03  0.7818608E-02  0.1271760E+00
          2   -1    0    0  502    0  0.00000000000E+00  0.00000000000E+00  0.28604019415E+03  0.28604019415E+03  0.00000000000E+00 0. -1.
          1   -1    0    0  501    0 -0.00000000000E+00 -0.00000000000E+00 -0.12628253602E+04  0.12628253602E+04  0.00000000000E+00 0. -1.
         25    2    1    2    0    0 -0.10822090829E+03 -0.23104147786E+03 -0.37777663395E+03  0.47268627062E+03  0.12500078317E+03 0.  0.
          2    1    1    2  501    0  0.27306886747E+02  0.44388070867E+02 -0.79321622054E+03  0.79492637359E+03  0.00000000000E+00 0. -1.
          1    1    1    2  502    0  0.80914021544E+02  0.18665340699E+03  0.19420768843E+03  0.28125291015E+03  0.00000000000E+00 0. -1.
         22    1    3    3    0    0 -0.82587409663E+02 -0.21963063368E+03 -0.37767090877E+03  0.44462749669E+03  0.00000000000E+00 0. -1.
         22    1    3    3    0    0 -0.25633498628E+02 -0.11410844174E+02 -0.10572518832E+00  0.28058773931E+02  0.00000000000E+00 0. -1.
</event>
<event>
 7    1  0.5553952E-006  0.5411177E+02  0.7818608E-02  0.1475475E+00
          2   -1    0    0  502    0  0.00000000000E+00  0.00000000000E+00  0.27580125983E+04  0.27580125983E+04  0.00000000000E+00 0. -1.
          1   -1    0    0  501    0 -0.00000000000E+00 -0.00000000000E+00 -0.93457903199E+01  0.93457903199E+01  0.00000000000E+00 0. -1.
         25    2    1    2    0    0 -0.75673432778E+00  0.30138490660E+02  0.73221662841E+03  0.74342131047E+03  0.12500061071E+03 0.  0.
          2    1    1    2  501    0  0.33718044899E+02  0.15528957032E+02  0.10013630913E+03  0.10679576520E+03  0.00000000000E+00 0. -1.
          1    1    1    2  502    0 -0.32961310571E+02 -0.45667447692E+02  0.19163138705E+04  0.19171413130E+04  0.00000000000E+00 0. -1.
         22    1    3    3    0    0 -0.54960148945E+02  0.25738658781E+02  0.54786225247E+03  0.55121333820E+03  0.00000000000E+00 0. -1.
         22    1    3    3    0    0  0.54203414617E+02  0.43998318796E+01  0.18435437593E+03  0.19220797227E+03  0.00000000000E+00 0. -1.
</event>
<event>
 7    1  0.5553952E-006  0.8103487E+02  0.7818608E-02  0.1423107E+00
          2   -1    0    0  502    0  0.00000000000E+00  0.00000000000E+00  0.88895576196E+03  0.88895576196E+03  0.00000000000E+00 0. -1.
          1   -1    0    0  501    0 -0.00000000000E+00 -0.00000000000E+00 -0.70356303624E+03  0.70356303624E+03  0.00000000000E+00 0. -1.
         25    2    1    2    0    0  0.14180666785E+02 -0.43794111705E+02 -0.40138406045E+03  0.42290974052E+03  0.12499787642E+03 0.  0.
          2    1    1    2  501    0 -0.17006786821E+01 -0.36438178450E+02 -0.28838788737E+03  0.29068575256E+03  0.00000000000E+00 0. -1.
          1    1    1    2  502    0 -0.12479988103E+02  0.80232290155E+02  0.87516467354E+03  0.87892330513E+03  0.00000000000E+00 0. -1.
         22    1    3    3    0    0 -0.80211695829E+01 -0.48523021859E+02 -0.39669314189E+03  0.39973024859E+03  0.00000000000E+00 0.  1.
         22    1    3    3    0    0  0.22201836368E+02  0.47289101542E+01 -0.46909185629E+01  0.23179491934E+02  0.00000000000E+00 0.  1.
</event>
<event>
 7    1  0.5553952E-006  0.3401357E+02  0.7818608E-02  0.1561290E+00
          2   -1    0    0  502    0  0.00000000000E+00  0.00000000000E+00  0.15585389222E+03  0.15585389222E+03  0.00000000000E+00 0. -1.
          1   -1    0    0  501    0 -0.00000000000E+00 -0.00000000000E+00 -0.32322315240E+03  0.32322315240E+03  0.00000000000E+00 0. -1.
         25    2    1    2    0    0 -0.15032486985E+02 -0.21256342253E+02 -0.29035570019E+02  0.13094328117E+03  0.12500108322E+03 0.  0.
          2    1    1    2  501    0 -0.16979931545E+02  0.30108516307E+02 -0.23933150964E+03  0.24181483068E+03  0.00000000000E+00 0. -1.
          1    1    1    2  502    0  0.32012418531E+02 -0.88521740546E+01  0.10099781948E+03  0.10631893277E+03  0.00000000000E+00 0. -1.
         22    1    3    3    0    0  0.11216328880E+02 -0.17410799828E+02  0.46489624301E+02  0.50894274254E+02  0.00000000000E+00 0. -1.
         22    1    3    3    0    0 -0.26248815865E+02 -0.38455424246E+01 -0.75525194320E+02  0.80049006914E+02  0.00000000000E+00 0. -1.
</event>
<event>
 7    1  0.5553952E-006  0.1751704E+03  0.7818608E-02  0.1334298E+00
          2   -1    0    0  502    0  0.00000000000E+00  0.00000000000E+00  0.99364495072E+03  0.99364495072E+03  0.00000000000E+00 0. -1.
          1   -1    0    0  501    0 -0.00000000000E+00 -0.00000000000E+00 -0.95177163022E+03  0.95177163022E+03  0.00000000000E+00 0. -1.
         25    2    1    2    0    0  0.18929198398E+03  0.54962334633E+01 -0.18483354899E+03  0.29265223658E+03  0.12498090638E+03 0.  0.
          2    1    1    2  501    0 -0.18116122054E+02  0.29820604913E+02 -0.70446634010E+03  0.70532991337E+03  0.00000000000E+00 0. -1.
          1    1    1    2  502    0 -0.17117586192E+03 -0.35316838377E+02  0.93117320959E+03  0.94743443100E+03  0.00000000000E+00 0. -1.
         22    1    3    3    0    0  0.35690113094E+02 -0.41482267834E+02 -0.10717666599E+02  0.55762273041E+02  0.00000000000E+00 0.  1.
         22    1    3    3    0    0  0.15360187088E+03  0.46978501298E+02 -0.17411588239E+03  0.23688996354E+03  0.00000000000E+00 0.  1.
</event>
<event>
 7    1  0.5553952E-006  0.9319194E+02  0.7818608E-02  0.1317910E+00
          2   -1    0    0  502    0  0.00000000000E+00  0.00000000000E+00  0.49836414687E+03  0.49836414687E+03  0.00000000000E+00 0. -1.
          1   -1    0    0  501    0 -0.00000000000E+00 -0.00000000000E+00 -0.21949911982E+04  0.21949911982E+04  0.00000000000E+00 0. -1.
         25    2    1    2    0    0  0.55654483594E+02  0.68402172146E+02  0.21529402511E+03  0.26410621711E+03  0.12499719186E+03 0.  0.
          2    1    1    2  501    0 -0.93305310849E+02 -0.25882402262E+01 -0.21640008455E+04  0.21660129823E+04  0.00000000000E+00 0. -1.
          1    1    1    2  502    0  0.37650827255E+02 -0.65813931920E+02  0.25207976906E+03  0.26323614569E+03  0.00000000000E+00 0. -1.
         22    1    3    3    0    0  0.18872301734E+02  0.87059162836E+02  0.20200513922E+03  0.22077485789E+03  0.00000000000E+00 0. -1.
         22    1    3    3    0    0  0.36782181860E+02 -0.18656990690E+02  0.13288885889E+02  0.43331359223E+02  0.00000000000E+00 0. -1.
</event>
<event>
 7    1  0.5553952E-006  0.6118203E+02  0.7818608E-02  0.1416036E+00
          2   -1    0    0  502    0  0.00000000000E+00  0.00000000000E+00  0.35223687406E+04  0.35223687406E+04  0.00000000000E+00 0. -1.
          1   -1    0    0  501    0 -0.00000000000E+00 -0.00000000000E+00 -0.30345635901E+02  0.30345635901E+02  0.00000000000E+00 0. -1.
         25    2    1    2    0    0  0.12947408196E+02 -0.61139348044E+02  0.44626180647E+03  0.46763248396E+03  0.12499953950E+03 0.  0.
          2    1    1    2  501    0  0.37075093149E+02  0.51117650606E+02  0.31824469544E+02  0.70713319801E+02  0.00000000000E+00 0. -1.
          1    1    1    2  502    0 -0.50022501345E+02  0.10021697438E+02  0.30139368287E+04  0.30143685727E+04  0.00000000000E+00 0. -1.
         22    1    3    3    0    0  0.66231501199E+02 -0.31288799177E+02  0.17754153268E+03  0.19205883612E+03  0.00000000000E+00 0.  1.
         22    1    3    3    0    0 -0.53284093002E+02 -0.29850548867E+02  0.26872027379E+03  0.27557364784E+03  0.00000000000E+00 0.  1.
</event>
<event>
 7    1  0.5553952E-006  0.6496903E+02  0.7818608E-02  0.1466101E+00
          2   -1    0    0  502    0  0.00000000000E+00  0.00000000000E+00  0.69912634271E+02  0.69912634271E+02  0.00000000000E+00 0. -1.
          1   -1    0    0  501    0 -0.00000000000E+00 -0.00000000000E+00 -0.10818941288E+04  0.10818941288E+04  0.00000000000E+00 0. -1.
         25    2    1    2    0    0 -0.94395735480E+02 -0.64772637424E+01 -0.29245344720E+03  0.33182276865E+03  0.12499928476E+03 0.  0.
          2    1    1    2  501    0  0.32518386677E+02 -0.59781343309E+01 -0.74941726364E+03  0.75014626480E+03  0.00000000000E+00 0. -1.
          1    1    1    2  502    0  0.61877348802E+02  0.12455398073E+02  0.29889216265E+02  0.69837729666E+02  0.00000000000E+00 0. -1.
         22    1    3    3    0    0 -0.50636893225E+02 -0.37924300534E+02 -0.26281723114E+03  0.27032433208E+03  0.00000000000E+00 0. -1.
         22    1    3    3    0    0 -0.43758842255E+02  0.31447036791E+02 -0.29636216061E+02  0.61498436572E+02  0.00000000000E+00 0. -1.
</event>
<event>
 7    1  0.5553952E-006  0.8720998E+02  0.7818608E-02  0.1320500E+00
          2   -1    0    0  502    0  0.00000000000E+00  0.00000000000E+00  0.52962644573E+03  0.52962644573E+03  0.00000000000E+00 0. -1.
          1   -1    0    0  501    0 -0.00000000000E+00 -0.00000000000E+00 -0.40093312045E+03  0.40093312045E+03  0.00000000000E+00 0. -1.
         25    2    1    2    0    0 -0.13383945835E+02  0.93676650397E+01  0.15702786178E+03  0.20136188669E+03  0.12498790694E+03 0.  0.
          2    1    1    2  501    0  0.12959074163E+02 -0.88534382668E+02 -0.36887693486E+03  0.37957406075E+03  0.00000000000E+00 0. -1.
          1    1    1    2  502    0  0.42487167207E+00  0.79166717629E+02  0.34054239837E+03  0.34962361874E+03  0.00000000000E+00 0. -1.
         22    1    3    3    0    0  0.34864024111E+02  0.21220629299E+02  0.14445911621E+03  0.15011412839E+03  0.00000000000E+00 0. -1.
         22    1    3    3    0    0 -0.48247969946E+02 -0.11852964259E+02  0.12568745565E+02  0.51247758299E+02  0.00000000000E+00 0. -1.
</event>
<event>
 7    1  0.5553952E-006  0.2079059E+03  0.7818608E-02  0.1182255E+00
          2   -1    0    0  502    0  0.00000000000E+00  0.00000000000E+00  0.24562664907E+04  0.24562664907E+04  0.00000000000E+00 0. -1.
          1   -1    0    0  501    0 -0.00000000000E+00 -0.00000000000E+00 -0.15474645151E+04  0.15474645151E+04  0.00000000000E+00 0. -1.
         25    2    1    2    0    0 -0.39935436536E+01 -0.15938038625E+03  0.17375868589E+03  0.26689869529E+03  0.12499910683E+03 0.  0.
          2    1    1    2  501    0 -0.12805614402E+03  0.16731353985E+03 -0.14915273557E+04  0.15063353045E+04  0.00000000000E+00 0. -1.
          1    1    1    2  502    0  0.13204968768E+03 -0.79331535932E+01  0.22265706455E+04  0.22304970061E+04  0.00000000000E+00 0. -1.
         22    1    3    3    0    0 -0.26730593886E+02 -0.17310078905E+03  0.15878012270E+03  0.23640967659E+03  0.00000000000E+00 0. -1.
         22    1    3    3    0    0  0.22737050233E+02  0.13720402792E+02  0.14978563189E+02  0.30489018700E+02  0.00000000000E+00 0. -1.
</event>
<event>
 7    1  0.5553952E-006  0.5104099E+02  0.7818608E-02  0.1521550E+00
          2   -1    0    0  502    0  0.00000000000E+00  0.00000000000E+00  0.10675281497E+04  0.10675281497E+04  0.00000000000E+00 0. -1.
          1   -1    0    0  501    0 -0.00000000000E+00 -0.00000000000E+00 -0.11490475582E+03  0.11490475582E+03  0.00000000000E+00 0. -1.
         25    2    1    2    0    0  0.59191528831E+02  0.74694829827E+01  0.11376955726E+03  0.17924245094E+03  0.12499965520E+03 0.  0.
          2    1    1    2  501    0 -0.17852538975E+02  0.22413863427E+02 -0.78940182880E+02  0.83980038669E+02  0.00000000000E+00 0. -1.
          1    1    1    2  502    0 -0.41338989856E+02 -0.29883346410E+02  0.91779401953E+03  0.91921041593E+03  0.00000000000E+00 0. -1.
         22    1    3    3    0    0  0.12208815045E+02  0.63857418956E+02  0.56800863976E+02  0.86331704888E+02  0.00000000000E+00 0. -1.
         22    1    3    3    0    0  0.46982713785E+02 -0.56387935973E+02  0.56968693283E+02  0.92910746054E+02  0.00000000000E+00 0. -1.
</event>
<event>
 7    1  0.5553952E-006  0.6120622E+02  0.7818608E-02  0.1420278E+00
          2   -1    0    0  502    0  0.00000000000E+00  0.00000000000E+00  0.44341607049E+04  0.44341607049E+04  0.00000000000E+00 0. -1.
          1   -1    0    0  501    0 -0.00000000000E+00 -0.00000000000E+00 -0.76492801860E+01  0.76492801860E+01  0.00000000000E+00 0. -1.
         25    2    1    2    0    0  0.86242301960E+02 -0.36741711976E+02  0.20677079499E+04  0.20736035647E+04  0.12501155641E+03 0.  0.
          2    1    1    2  501    0 -0.28267609151E+02  0.40458384819E+02  0.13658604161E+03  0.14522976758E+03  0.00000000000E+00 0. -1.
          1    1    1    2  502    0 -0.57974692809E+02 -0.37166728437E+01  0.22222174332E+04  0.22229766529E+04  0.00000000000E+00 0. -1.
         22    1    3    3    0    0  0.80281541214E+02 -0.52413266188E+02  0.20308413809E+04  0.20331032907E+04  0.00000000000E+00 0.  1.
         22    1    3    3    0    0  0.59607607457E+01  0.15671554213E+02  0.36866569048E+02  0.40500273993E+02  0.00000000000E+00 0.  1.
</event>
<event>
 7    1  0.5553952E-006  0.7157880E+02  0.7818608E-02  0.1449362E+00
          2   -1    0    0  502    0  0.00000000000E+00  0.00000000000E+00  0.14937786333E+04  0.14937786333E+04  0.00000000000E+00 0. -1.
          1   -1    0    0  501    0 -0.00000000000E+00 -0.00000000000E+00 -0.61014928596E+02  0.61014928596E+02  0.00000000000E+00 0. -1.
         25    2    1    2    0    0  0.38220028571E+02  0.60848132683E+02  0.70162761637E+02  0.16035118324E+03  0.12500569192E+03 0.  0.
          2    1    1    2  501    0  0.23557945045E+02 -0.24381678384E+02  0.42161051246E+01  0.34164580460E+02  0.00000000000E+00 0. -1.
          1    1    1    2  502    0 -0.61777973616E+02 -0.36466454299E+02  0.13583848379E+04  0.13602777982E+04  0.00000000000E+00 0. -1.
         22    1    3    3    0    0 -0.24379168552E+02 -0.25903589666E+02  0.74430253680E+01  0.36341965323E+02  0.00000000000E+00 0.  1.
         22    1    3    3    0    0  0.62599197123E+02  0.86751722349E+02  0.62719736269E+02  0.12400921792E+03  0.00000000000E+00 0.  1.
</event>
<event>
 7    1  0.6548972E-006  0.6539631E+02  0.7818608E-02  0.1393664E+00
          2   -1    0    0  502    0  0.00000000000E+00  0.00000000000E+00  0.17523270531E+04  0.17523270531E+04  0.00000000000E+00 0. -1.
          1   -1    0    0  501    0 -0.00000000000E+00 -0.00000000000E+00 -0.61676100750E+03  0.61676100750E+03  0.00000000000E+00 0. -1.
         25    2    1    2    0    0  0.44855246793E+02  0.40946584584E+02 -0.71799203118E+02  0.15641405430E+03  0.12498645871E+03 0.  0.
          2    1    1    2  501    0 -0.65771935762E+02  0.11977622921E+02 -0.49995530233E+03  0.50440530857E+03  0.00000000000E+00 0. -1.
          1    1    1    2  502    0  0.20916688970E+02 -0.52924207505E+02  0.17073205511E+04  0.17082686977E+04  0.00000000000E+00 0. -1.
         22    1    3    3    0    0  0.33031266222E+02  0.39579226408E+02 -0.10726189702E+03  0.11900711854E+03  0.00000000000E+00 0. -1.
         22    1    3    3    0    0  0.11823980571E+02  0.13673581765E+01  0.35462693898E+02  0.37406935766E+02  0.00000000000E+00 0. -1.
</event>
<event>
 7    1  0.5553952E-006  0.7321147E+02  0.7818608E-02  0.1381961E+00
          2   -1    0    0  502    0  0.00000000000E+00  0.00000000000E+00  0.10416811866E+04  0.10416811866E+04  0.00000000000E+00 0. -1.
          1   -1    0    0  501    0 -0.00000000000E+00 -0.00000000000E+00 -0.27964081712E+04  0.27964081712E+04  0.00000000000E+00 0. -1.
         25    2    1    2    0    0 -0.10747204302E+03 -0.30419582754E+02 -0.10515574728E+03  0.19788283022E+03  0.12499716901E+03 0.  0.
          2    1    1    2  501    0  0.71818249700E+02 -0.12585037194E+02 -0.26436020180E+04  0.26446073194E+04  0.00000000000E+00 0. -1.
          1    1    1    2  502    0  0.35653793321E+02  0.43004619948E+02  0.99403078068E+03  0.99559920814E+03  0.00000000000E+00 0. -1.
         22    1    3    3    0    0 -0.11905689876E+03 -0.21065762459E+02 -0.12445011558E+03  0.17351121796E+03  0.00000000000E+00 0.  1.
         22    1    3    3    0    0  0.11584855735E+02 -0.93538202947E+01  0.19294368291E+02  0.24371612262E+02  0.00000000000E+00 0.  1.
</event>
<event>
 7    1  0.5553952E-006  0.1141668E+03  0.7818608E-02  0.1283269E+00
          2   -1    0    0  502    0  0.00000000000E+00  0.00000000000E+00  0.26640844775E+04  0.26640844775E+04  0.00000000000E+00 0. -1.
          1   -1    0    0  501    0 -0.00000000000E+00 -0.00000000000E+00 -0.97007500224E+03  0.97007500224E+03  0.00000000000E+00 0. -1.
         25    2    1    2    0    0 -0.99638406466E+02 -0.13756226004E+03  0.30296270597E+03  0.36913662374E+03  0.12499703334E+03 0.  0.
          2    1    1    2  501    0  0.18319219396E+02  0.11229241912E+03 -0.93275137248E+03  0.93966499565E+03  0.00000000000E+00 0. -1.
          1    1    1    2  502    0  0.81319187070E+02  0.25269840920E+02  0.23237981418E+04  0.23253578603E+04  0.00000000000E+00 0. -1.
         22    1    3    3    0    0 -0.56712157047E+02 -0.14016723178E+03  0.16129976200E+03  0.22108987956E+03  0.00000000000E+00 0. -1.
         22    1    3    3    0    0 -0.42926249418E+02  0.26049717395E+01  0.14166294397E+03  0.14804674418E+03  0.00000000000E+00 0. -1.
</event>
<event>
 7    1  0.5553952E-006  0.4512276E+02  0.7818608E-02  0.1535837E+00
          2   -1    0    0  502    0  0.00000000000E+00  0.00000000000E+00  0.14864801334E+03  0.14864801334E+03  0.00000000000E+00 0. -1.
          1   -1    0    0  501    0 -0.00000000000E+00 -0.00000000000E+00 -0.13514219741E+04  0.13514219741E+04  0.00000000000E+00 0. -1.
         25    2    1    2    0    0  0.42560949544E+02  0.46052041815E+02 -0.14030400412E+03  0.19811020572E+03  0.12502085850E+03 0.  0.
          2    1    1    2  501    0 -0.13230633605E+02 -0.42960785287E+02 -0.11799643958E+04  0.11808203310E+04  0.00000000000E+00 0. -1.
          1    1    1    2  502    0 -0.29330315939E+02 -0.30912565283E+01  0.11749443914E+03  0.12113945075E+03  0.00000000000E+00 0. -1.
         22    1    3    3    0    0  0.60235356103E+02  0.34380132249E+02 -0.15667529184E+03  0.17134012575E+03  0.00000000000E+00 0.  1.
         22    1    3    3    0    0 -0.17674406559E+02  0.11671909566E+02  0.16371287724E+02  0.26770079975E+02  0.00000000000E+00 0.  1.
</event>
<event>
 7    1  0.5553952E-006  0.9116950E+02  0.7818608E-02  0.1303207E+00
          2   -1    0    0  502    0  0.00000000000E+00  0.00000000000E+00  0.12760196930E+04  0.12760196930E+04  0.00000000000E+00 0. -1.
          1   -1    0    0  501    0 -0.00000000000E+00 -0.00000000000E+00 -0.38398132198E+03  0.38398132198E+03  0.00000000000E+00 0. -1.
         25    2    1    2    0    0 -0.63006715925E+02 -0.64655498331E+02  0.34271608447E+02  0.15795605062E+03  0.12500156426E+03 0.  0.
          2    1    1    2  501    0 -0.25165882732E+02  0.87838916202E+02 -0.31385303328E+03  0.32688334823E+03  0.00000000000E+00 0. -1.
          1    1    1    2  502    0  0.88172598657E+02 -0.23183417871E+02  0.11716197958E+04  0.11751616161E+04  0.00000000000E+00 0. -1.
         22    1    3    3    0    0 -0.90890379808E+02 -0.80404485983E+02  0.33635974079E+02  0.12592585620E+03  0.00000000000E+00 0.  1.
         22    1    3    3    0    0  0.27883663883E+02  0.15748987652E+02  0.63563436718E+00  0.32030194421E+02  0.00000000000E+00 0.  1.
</event>
<event>
 7    1  0.5553952E-006  0.4628581E+02  0.7818608E-02  0.1487400E+00
          2   -1    0    0  502    0  0.00000000000E+00  0.00000000000E+00  0.58772754939E+03  0.58772754939E+03  0.00000000000E+00 0. -1.
          1   -1    0    0  501    0 -0.00000000000E+00 -0.00000000000E+00 -0.42733733463E+02  0.42733733463E+02  0.00000000000E+00 0. -1.
         25    2    1    2    0    0  0.14464006491E+02  0.24609096022E+01  0.92297942806E+02  0.15607893866E+03  0.12500584502E+03 0.  0.
          2    1    1    2  501    0 -0.52068837173E+02 -0.29447079237E+02  0.85891697605E+02  0.10466937469E+03  0.00000000000E+00 0. -1.
          1    1    1    2  502    0  0.37604830681E+02  0.26986169635E+02  0.36680417551E+03  0.36971296950E+03  0.00000000000E+00 0. -1.
         22    1    3    3    0    0  0.49349054794E+02  0.37683808868E+02  0.86048887631E+02  0.10611225058E+03  0.00000000000E+00 0.  1.
         22    1    3    3    0    0 -0.34885048303E+02 -0.35222899266E+02  0.62490551755E+01  0.49966688087E+02  0.00000000000E+00 0.  1.
</event>
<event>
 7    1  0.5553952E-006  0.8216550E+02  0.7818608E-02  0.1479136E+00
          2   -1    0    0  502    0  0.00000000000E+00  0.00000000000E+00  0.60232706524E+03  0.60232706524E+03  0.00000000000E+00 0. -1.
          1   -1    0    0  501    0 -0.00000000000E+00 -0.00000000000E+00 -0.30672341795E+03  0.30672341795E+03  0.00000000000E+00 0. -1.
         25    2    1    2    0    0  0.34370054983E+02  0.66575225019E+02 -0.14499915702E+02  0.14645546707E+03  0.12500158004E+03 0.  0.
          2    1    1    2  501    0 -0.18878043382E+02  0.14527925945E+02 -0.22242815462E+03  0.22370007851E+03  0.00000000000E+00 0. -1.
          1    1    1    2  502    0 -0.15492011600E+02 -0.81103150964E+02  0.53253171762E+03  0.53889493762E+03  0.00000000000E+00 0. -1.
         22    1    3    3    0    0  0.51784007953E-01  0.93569659118E+02 -0.32745144864E+02  0.99133890780E+02  0.00000000000E+00 0.  1.
         22    1    3    3    0    0  0.34318270975E+02 -0.26994434099E+02  0.18245229162E+02  0.47321576286E+02  0.00000000000E+00 0.  1.
</event>
<event>
 7    1  0.5553952E-006  0.4790483E+02  0.7818608E-02  0.1538310E+00
          2   -1    0    0  502    0  0.00000000000E+00  0.00000000000E+00  0.80881630782E+03  0.80881630782E+03  0.00000000000E+00 0. -1.
          1   -1    0    0  501    0 -0.00000000000E+00 -0.00000000000E+00 -0.17243850707E+02  0.17243850707E+02  0.00000000000E+00 0. -1.
         25    2    1    2    0    0 -0.17876635841E+02 -0.18116798471E+02  0.41700534418E+03  0.43608063333E+03  0.12500027676E+03 0.  0.
          2    1    1    2  501    0 -0.22338914147E+02 -0.15752952763E+02  0.26871275408E+02  0.38330771556E+02  0.00000000000E+00 0. -1.
          1    1    1    2  502    0  0.40215549988E+02  0.33869751234E+02  0.34769583752E+03  0.35164875365E+03  0.00000000000E+00 0. -1.
         22    1    3    3    0    0  0.49819853788E+02  0.30183035303E+01  0.24493462768E+03  0.24996819762E+03  0.00000000000E+00 0. -1.
         22    1    3    3    0    0 -0.67696489629E+02 -0.21135102001E+02  0.17207071651E+03  0.18611243570E+03  0.00000000000E+00 0. -1.
</event>
<event>
 7    1  0.5553952E-006  0.9391715E+02  0.7818608E-02  0.1484838E+00
          2   -1    0    0  502    0  0.00000000000E+00  0.00000000000E+00  0.50227019731E+03  0.50227019731E+03  0.00000000000E+00 0. -1.
          1   -1    0    0  501    0 -0.00000000000E+00 -0.00000000000E+00 -0.22842473951E+03  0.22842473951E+03  0.00000000000E+00 0. -1.
         25    2    1    2    0    0  0.38518340145E+02  0.10599506589E+03  0.17272401002E+03  0.24119883041E+03  0.12499870252E+03 0.  0.
          2    1    1    2  501    0 -0.33790417296E+02 -0.86541423110E+02 -0.18270255696E+03  0.20496691083E+03  0.00000000000E+00 0. -1.
          1    1    1    2  502    0 -0.47279228489E+01 -0.19453642781E+02  0.28382400474E+03  0.28452919558E+03  0.00000000000E+00 0. -1.
         22    1    3    3    0    0  0.56677564484E+02  0.76640499603E+02  0.18200507468E+03  0.20545549324E+03  0.00000000000E+00 0.  1.
         22    1    3    3    0    0 -0.18159224340E+02  0.29354566287E+02 -0.92810646552E+01  0.35743337164E+02  0.00000000000E+00 0.  1.
</event>
<event>
 7    1  0.5553952E-006  0.9207663E+02  0.7818608E-02  0.1304961E+00
          2   -1    0    0  502    0  0.00000000000E+00  0.00000000000E+00  0.83866521907E+02  0.83866521907E+02  0.00000000000E+00 0. -1.
          1   -1    0    0  501    0 -0.00000000000E+00 -0.00000000000E+00 -0.14261095713E+04  0.14261095713E+04  0.00000000000E+00 0. -1.
         25    2    1    2    0    0 -0.68204416744E+02  0.10132564249E+03 -0.99234103707E+03  0.10076138928E+04  0.12500517919E+03 0.  0.
          2    1    1    2  501    0 -0.22234881372E+02 -0.83372675078E+02 -0.39172535455E+03  0.40111612570E+03  0.00000000000E+00 0. -1.
          1    1    1    2  502    0  0.90439298116E+02 -0.17952967413E+02  0.41823342246E+02  0.10124607469E+03  0.00000000000E+00 0. -1.
         22    1    3    3    0    0 -0.57125808385E+02  0.13903953441E+02 -0.15716813313E+03  0.16780494622E+03  0.00000000000E+00 0. -1.
         22    1    3    3    0    0 -0.11078608359E+02  0.87421689051E+02 -0.83517290393E+03  0.83980894657E+03  0.00000000000E+00 0. -1.
</event>
<event>
 7    1  0.5553952E-006  0.1923210E+03  0.7818608E-02  0.1261975E+00
          2   -1    0    0  502    0  0.00000000000E+00  0.00000000000E+00  0.19952957334E+03  0.19952957334E+03  0.00000000000E+00 0. -1.
          1   -1    0    0  501    0 -0.00000000000E+00 -0.00000000000E+00 -0.15969616295E+04  0.15969616295E+04  0.00000000000E+00 0. -1.
         25    2    1    2    0    0 -0.14035081124E+03 -0.25141828308E+01 -0.49660106006E+03  0.53098072477E+03  0.12499298337E+03 0.  0.
          2    1    1    2  501    0 -0.55113366425E+02 -0.28518170556E+02 -0.10282547648E+04  0.10301255412E+04  0.00000000000E+00 0. -1.
          1    1    1    2  502    0  0.19546417767E+03  0.31032353387E+02  0.12742376869E+03  0.23538493693E+03  0.00000000000E+00 0. -1.
         22    1    3    3    0    0 -0.59608831203E+02 -0.10873959280E+02 -0.54523244559E+02  0.81512207338E+02  0.00000000000E+00 0. -1.
         22    1    3    3    0    0 -0.80741980041E+02  0.83597764491E+01 -0.44207781550E+03  0.44946851743E+03  0.00000000000E+00 0. -1.
</event>
<event>
 7    1  0.5553952E-006  0.3822841E+03  0.7818608E-02  0.1189771E+00
          2   -1    0    0  502    0  0.00000000000E+00  0.00000000000E+00  0.12626878166E+04  0.12626878166E+04  0.00000000000E+00 0. -1.
          1   -1    0    0  501    0 -0.00000000000E+00 -0.00000000000E+00 -0.71806549189E+03  0.71806549189E+03  0.00000000000E+00 0. -1.
         25    2    1    2    0    0 -0.33955810221E+03  0.17012193246E+02 -0.89126911415E+02  0.37303908000E+03  0.12500171746E+03 0.  0.
          2    1    1    2  501    0 -0.43440386645E+02  0.49920037003E+02 -0.45077317901E+03  0.45560458317E+03  0.00000000000E+00 0. -1.
          1    1    1    2  502    0  0.38299848886E+03 -0.66932230250E+02  0.10845224152E+04  0.11521096453E+04  0.00000000000E+00 0. -1.
         22    1    3    3    0    0 -0.24284046493E+03  0.51347796356E+02 -0.19409463439E+02  0.24896749761E+03  0.00000000000E+00 0.  1.
         22    1    3    3    0    0 -0.96717637286E+02 -0.34335603110E+02 -0.69717447976E+02  0.12407158238E+03  0.00000000000E+00 0.  1.
</event>
<event>
 7    1  0.5553952E-006  0.9031100E+02  0.7818608E-02  0.1380985E+00
          2   -1    0    0  502    0  0.00000000000E+00  0.00000000000E+00  0.35458597643E+03  0.35458597643E+03  0.00000000000E+00 0. -1.
          1   -1    0    0  501    0 -0.00000000000E+00 -0.00000000000E+00 -0.56255491575E+03  0.56255491575E+03  0.00000000000E+00 0. -1.
         25    2    1    2    0    0  0.34987357433E+02  0.39320429480E+02 -0.19452781343E+03  0.23713773451E+03  0.12499209406E+03 0.  0.
          2    1    1    2  501    0  0.45442120336E+02  0.43121495658E+01 -0.33888247268E+03  0.34194284789E+03  0.00000000000E+00 0. -1.
          1    1    1    2  502    0 -0.80429477769E+02 -0.43632579046E+02  0.32544134679E+03  0.33806030978E+03  0.00000000000E+00 0. -1.
         22    1    3    3    0    0  0.36122066564E+02 -0.33697189183E+02 -0.31731808666E+02  0.58712962222E+02  0.00000000000E+00 0. -1.
         22    1    3    3    0    0 -0.11347091308E+01  0.73017618664E+02 -0.16279600476E+03  0.17842477229E+03  0.00000000000E+00 0. -1.
</event>
<event>
 7    1  0.5553952E-006  0.9578258E+02  0.7818608E-02  0.1298133E+00
          2   -1    0    0  502    0  0.00000000000E+00  0.00000000000E+00  0.95871405464E+03  0.95871405464E+03  0.00000000000E+00 0. -1.
          1   -1    0    0  501    0 -0.00000000000E+00 -0.00000000000E+00 -0.26276623539E+04  0.26276623539E+04  0.00000000000E+00 0. -1.
         25    2    1    2    0    0 -0.26009854391E+02  0.10619476970E+03 -0.11983616304E+03  0.20479152548E+03  0.12500008520E+03 0.  0.
          2    1    1    2  501    0 -0.57463192431E+02 -0.77329768095E+02 -0.24622757398E+04  0.24641598427E+04  0.00000000000E+00 0. -1.
          1    1    1    2  502    0  0.83473046822E+02 -0.28865001606E+02  0.91316360356E+03  0.91742504038E+03  0.00000000000E+00 0. -1.
         22    1    3    3    0    0 -0.65832113572E+02  0.10758867167E+03 -0.88143912955E+02  0.15387832479E+03  0.00000000000E+00 0.  1.
         22    1    3    3    0    0  0.39822259181E+02 -0.13939019739E+01 -0.31692250081E+02  0.50913200687E+02  0.00000000000E+00 0.  1.
</event>
<event>
 7    1  0.5553952E-006  0.1768931E+03  0.7818608E-02  0.1334665E+00
          2   -1    0    0  502    0  0.00000000000E+00  0.00000000000E+00  0.85416123771E+03  0.85416123771E+03  0.00000000000E+00 0. -1.
          1   -1    0    0  501    0 -0.00000000000E+00 -0.00000000000E+00 -0.56376861936E+03  0.56376861936E+03  0.00000000000E+00 0. -1.
         25    2    1    2    0    0  0.14369640045E+02  0.20520194933E+03  0.16097582933E+03  0.28957336493E+03  0.12500075794E+03 0.  0.
          2    1    1    2  501    0  0.23170981255E+01 -0.34363670968E+02 -0.48713767124E+03  0.48835370539E+03  0.00000000000E+00 0. -1.
          1    1    1    2  502    0 -0.16686738171E+02 -0.17083827836E+03  0.61655446026E+03  0.64000278675E+03  0.00000000000E+00 0. -1.
         22    1    3    3    0    0  0.40007476115E+02  0.16355213479E+03  0.62461374002E+02  0.17958653118E+03  0.00000000000E+00 0. -1.
         22    1    3    3    0    0 -0.25637836070E+02  0.41649814534E+02  0.98514455330E+02  0.10998683375E+03  0.00000000000E+00 0. -1.
</event>
<event>
 7    1  0.5553952E-006  0.1140246E+03  0.7818608E-02  0.1331157E+00
          2   -1    0    0  502    0  0.00000000000E+00  0.00000000000E+00  0.59618727420E+03  0.59618727420E+03  0.00000000000E+00 0. -1.
          1   -1    0    0  501    0 -0.00000000000E+00 -0.00000000000E+00 -0.11156335438E+04  0.11156335438E+04  0.00000000000E+00 0. -1.
         25    2    1    2    0    0  0.12145094658E+03  0.62115356746E+02  0.72051164762E+02  0.19855792045E+03  0.12500090984E+03 0.  0.
          2    1    1    2  501    0 -0.90743946359E+01 -0.54345762784E+02 -0.10447604668E+04  0.10462123301E+04  0.00000000000E+00 0. -1.
          1    1    1    2  502    0 -0.11237655195E+03 -0.77695939619E+01  0.45326303244E+03  0.46705056749E+03  0.00000000000E+00 0. -1.
         22    1    3    3    0    0  0.83294491838E+02  0.92336737661E+02  0.17717990974E+02  0.12561040043E+03  0.00000000000E+00 0.  1.
         22    1    3    3    0    0  0.38156454747E+02 -0.30221380915E+02  0.54333173788E+02  0.72947520020E+02  0.00000000000E+00 0.  1.
</event>
<event>
 7    1  0.5553952E-006  0.4804823E+02  0.7818608E-02  0.1461230E+00
          2   -1    0    0  502    0  0.00000000000E+00  0.00000000000E+00  0.20160723242E+04  0.20160723242E+04  0.00000000000E+00 0. -1.
          1   -1    0    0  501    0 -0.00000000000E+00 -0.00000000000E+00 -0.43896020074E+02  0.43896020074E+02  0.00000000000E+00 0. -1.
         25    2    1    2    0    0  0.10070424471E+02 -0.10106032381E+02  0.11421246015E+03  0.16992011367E+03  0.12499925455E+03 0.  0.
          2    1    1    2  501    0 -0.57808688256E+02  0.15554924143E+02  0.41253212354E+02  0.72702322057E+02  0.00000000000E+00 0. -1.
          1    1    1    2  502    0  0.47738263785E+02 -0.54488917628E+01  0.18167106316E+04  0.18173459086E+04  0.00000000000E+00 0. -1.
         22    1    3    3    0    0  0.27242186731E+02 -0.10403333681E+02  0.13773889290E+03  0.14079193410E+03  0.00000000000E+00 0.  1.
         22    1    3    3    0    0 -0.17171762261E+02  0.29730130012E+00 -0.23526432752E+02  0.29128179573E+02  0.00000000000E+00 0.  1.
</event>
<event>
 7    1  0.5553952E-006  0.7554684E+02  0.7818608E-02  0.1444887E+00
          2   -1    0    0  502    0  0.00000000000E+00  0.00000000000E+00  0.10252245386E+04  0.10252245386E+04  0.00000000000E+00 0. -1.
          1   -1    0    0  501    0 -0.00000000000E+00 -0.00000000000E+00 -0.41608952944E+02  0.41608952944E+02  0.00000000000E+00 0. -1.
         25    2    1    2    0    0 -0.10715216274E+02  0.61334882684E+02  0.51472013113E+03  0.53332854028E+03  0.12500293912E+03 0.  0.
          2    1    1    2  501    0  0.43844313533E+02 -0.63561459327E+02  0.15327207847E+02  0.78722971497E+02  0.00000000000E+00 0. -1.
          1    1    1    2  502    0 -0.33129097259E+02  0.22265766432E+01  0.45356824668E+03  0.45478197977E+03  0.00000000000E+00 0. -1.
         22    1    3    3    0    0 -0.39380345635E+02  0.10428936654E+02  0.47959918027E+02  0.62926370300E+02  0.00000000000E+00 0.  1.
         22    1    3    3    0    0  0.28665129360E+02  0.50905946030E+02  0.46676021310E+03  0.47040216998E+03  0.00000000000E+00 0.  1.
</event>
<event>
 7    1  0.5553952E-006  0.6043743E+02  0.7818608E-02  0.1450163E+00
          2   -1    0    0  502    0  0.00000000000E+00  0.00000000000E+00  0.10826634241E+04  0.10826634241E+04  0.00000000000E+00 0. -1.
          1   -1    0    0  501    0 -0.00000000000E+00 -0.00000000000E+00 -0.44377514599E+02  0.44377514599E+02  0.00000000000E+00 0. -1.
         25    2    1    2    0    0 -0.19467107433E+02  0.66898935177E+02  0.32268525015E+03  0.35299641485E+03  0.12500504962E+03 0.  0.
          2    1    1    2  501    0 -0.27666284695E+02 -0.28774247158E+02 -0.13719599989E+02  0.42209098927E+02  0.00000000000E+00 0. -1.
          1    1    1    2  502    0  0.47133392128E+02 -0.38124688019E+02  0.72932025932E+03  0.73183542491E+03  0.00000000000E+00 0. -1.
         22    1    3    3    0    0  0.26060818742E+02 -0.18843577781E+02  0.27691253304E+02  0.42438805434E+02  0.00000000000E+00 0.  1.
         22    1    3    3    0    0 -0.45527926175E+02  0.85742512958E+02  0.29499399684E+03  0.31055760941E+03  0.00000000000E+00 0.  1.
</event>
<event>
 7    1  0.5553952E-006  0.6527295E+02  0.7818608E-02  0.1505884E+00
          2   -1    0    0  502    0  0.00000000000E+00  0.00000000000E+00  0.88598523343E+03  0.88598523343E+03  0.00000000000E+00 0. -1.
          1   -1    0    0  501    0 -0.00000000000E+00 -0.00000000000E+00 -0.10198664876E+04  0.10198664876E+04  0.00000000000E+00 0. -1.
         25    2    1    2    0    0 -0.64293840014E+02  0.25367841668E+02 -0.79733141235E+02  0.16358562842E+03  0.12500263501E+03 0.  0.
          2    1    1    2  501    0  0.48030359462E+02 -0.44227705114E+02 -0.89683637497E+03  0.89920992477E+03  0.00000000000E+00 0. -1.
          1    1    1    2  502    0  0.16263480551E+02  0.18859863446E+02  0.84268826201E+03  0.84305616787E+03  0.00000000000E+00 0. -1.
         22    1    3    3    0    0  0.37292855479E+02  0.11436597938E+02 -0.32134483898E+02  0.50538875112E+02  0.00000000000E+00 0.  1.
         22    1    3    3    0    0 -0.10158669549E+03  0.13931243730E+02 -0.47598657337E+02  0.11304675331E+03  0.00000000000E+00 0.  1.
</event>
<event>
 7    1  0.5553952E-006  0.7588528E+02  0.7818608E-02  0.1513777E+00
          2   -1    0    0  502    0  0.00000000000E+00  0.00000000000E+00  0.29664086631E+02  0.29664086631E+02  0.00000000000E+00 0. -1.
          1   -1    0    0  501    0 -0.00000000000E+00 -0.00000000000E+00 -0.14452300433E+04  0.14452300433E+04  0.00000000000E+00 0. -1.
         25    2    1    2    0    0 -0.54191480531E+02  0.39073479959E+02 -0.10341695211E+04  0.10438365775E+04  0.12499899483E+03 0.  0.
          2    1    1    2  501    0 -0.17021061921E+02 -0.11071381810E+02 -0.34626188120E+03  0.34685671741E+03  0.00000000000E+00 0. -1.
          1    1    1    2  502    0  0.71212542452E+02 -0.28002098149E+02 -0.35134554295E+02  0.84200834965E+02  0.00000000000E+00 0. -1.
         22    1    3    3    0    0 -0.38950850642E+02 -0.95485765074E+01 -0.89043061745E+03  0.89133328704E+03  0.00000000000E+00 0. -1.
         22    1    3    3    0    0 -0.15240629889E+02  0.48622056466E+02 -0.14373890368E+03  0.15250329047E+03  0.00000000000E+00 0. -1.
</event>
<event>
 7    1  0.5553952E-006  0.8041088E+02  0.7818608E-02  0.1427781E+00
          2   -1    0    0  502    0  0.00000000000E+00  0.00000000000E+00  0.10000194953E+04  0.10000194953E+04  0.00000000000E+00 0. -1.
          1   -1    0    0  501    0 -0.00000000000E+00 -0.00000000000E+00 -0.14954318085E+03  0.14954318085E+03  0.00000000000E+00 0. -1.
         25    2    1    2    0    0 -0.32745871568E+02  0.10074358895E+03 -0.28896759107E+02  0.16637565781E+03  0.12499709599E+03 0.  0.
          2    1    1    2  501    0 -0.10986649640E+02 -0.33728696951E+02 -0.43906758625E+02  0.56445858319E+02  0.00000000000E+00 0. -1.
          1    1    1    2  502    0  0.43732521209E+02 -0.67014892001E+02  0.92327983214E+03  0.92674115998E+03  0.00000000000E+00 0. -1.
         22    1    3    3    0    0  0.23847563466E+02  0.59602091824E+02  0.33691177729E+02  0.72499731653E+02  0.00000000000E+00 0. -1.
         22    1    3    3    0    0 -0.56593435034E+02  0.41141497128E+02 -0.62587936836E+02  0.93875926159E+02  0.00000000000E+00 0. -1.
</event>
<event>
 7    1  0.5553952E-006  0.9647857E+02  0.7818608E-02  0.1417174E+00
          2   -1    0    0  502    0  0.00000000000E+00  0.00000000000E+00  0.85237829131E+03  0.85237829131E+03  0.00000000000E+00 0. -1.
          1   -1    0    0  501    0 -0.00000000000E+00 -0.00000000000E+00 -0.80479314977E+03  0.80479314977E+03  0.00000000000E+00 0. -1.
         25    2    1    2    0    0  0.65344175742E+02  0.70700139586E+02  0.21654259443E+03  0.26790471589E+03  0.12495547427E+03 0.  0.
          2    1    1    2  501    0 -0.26316289728E+02  0.18326390147E+02 -0.77490682441E+03  0.77557010656E+03  0.00000000000E+00 0. -1.
          1    1    1    2  502    0 -0.39027886014E+02 -0.89026529733E+02  0.60594937152E+03  0.61369661864E+03  0.00000000000E+00 0. -1.
         22    1    3    3    0    0  0.39016334541E+02  0.79274844534E+01  0.19115038503E+03  0.19525262883E+03  0.00000000000E+00 0.  1.
         22    1    3    3    0    0  0.26327841201E+02  0.62772655132E+02  0.25392209401E+02  0.72652087052E+02  0.00000000000E+00 0.  1.
</event>
<event>
 7    1  0.5553952E-006  0.4944821E+02  0.7818608E-02  0.1469720E+00
          2   -1    0    0  502    0  0.00000000000E+00  0.00000000000E+00  0.17341413829E+03  0.17341413829E+03  0.00000000000E+00 0. -1.
          1   -1    0    0  501    0 -0.00000000000E+00 -0.00000000000E+00 -0.13537094704E+03  0.13537094704E+03  0.00000000000E+00 0. -1.
         25    2    1    2    0    0 -0.19630306928E+02 -0.39660971535E+02  0.68680836661E+02  0.14933150850E+03  0.12499800195E+03 0.  0.
          2    1    1    2  501    0 -0.22248179421E+02  0.45800976991E+02 -0.79749899487E+02  0.94619012091E+02  0.00000000000E+00 0. -1.
          1    1    1    2  502    0  0.41878486350E+02 -0.61400054559E+01  0.49112254071E+02  0.64834564747E+02  0.00000000000E+00 0. -1.
         22    1    3    3    0    0 -0.60062415675E+02 -0.28659665857E+02  0.81773706348E+02  0.10543153833E+03  0.00000000000E+00 0.  1.
         22    1    3    3    0    0  0.40432108747E+02 -0.11001305678E+02 -0.13092869687E+02  0.43899970171E+02  0.00000000000E+00 0.  1.
</event>
<event>
 7    1  0.5553952E-006  0.9940607E+02  0.7818608E-02  0.1421629E+00
          2   -1    0    0  502    0  0.00000000000E+00  0.00000000000E+00  0.99182103659E+03  0.99182103659E+03  0.00000000000E+00 0. -1.
          1   -1    0    0  501    0 -0.00000000000E+00 -0.00000000000E+00 -0.10888289242E+04  0.10888289242E+04  0.00000000000E+00 0. -1.
         25    2    1    2    0    0  0.10326712107E+03  0.37200565960E+02 -0.63227441036E+02  0.17796183333E+03  0.12499889767E+03 0.  0.
          2    1    1    2  501    0 -0.22281476665E+02  0.20200456516E+02 -0.96536325946E+03  0.96583163407E+03  0.00000000000E+00 0. -1.
          1    1    1    2  502    0 -0.80985644405E+02 -0.57401022476E+02  0.93158281288E+03  0.93685649341E+03  0.00000000000E+00 0. -1.
         22    1    3    3    0    0  0.70268331585E+02 -0.33910557620E+01 -0.93892447526E+02  0.11732403584E+03  0.00000000000E+00 0. -1.
         22    1    3    3    0    0  0.32998789484E+02  0.40591621722E+02  0.30665006490E+02  0.60637797490E+02  0.00000000000E+00 0. -1.
</event>
<event>
 7    1  0.5553952E-006  0.6173182E+02  0.7818608E-02  0.1391063E+00
          2   -1    0    0  502    0  0.00000000000E+00  0.00000000000E+00  0.12830528284E+04  0.12830528284E+04  0.00000000000E+00 0. -1.
          1   -1    0    0  501    0 -0.00000000000E+00 -0.00000000000E+00 -0.23941801249E+02  0.23941801249E+02  0.00000000000E+00 0. -1.
         25    2    1    2    0    0  0.11423957217E+01 -0.26318294763E+02  0.37629583284E+03  0.39738909138E+03  0.12500231369E+03 0.  0.
          2    1    1    2  501    0  0.56217855120E+02  0.49135386445E+02  0.10228035634E+03  0.12663334762E+03  0.00000000000E+00 0. -1.
          1    1    1    2  502    0 -0.57360250841E+02 -0.22817091682E+02  0.78053483800E+03  0.78297219068E+03  0.00000000000E+00 0. -1.
         22    1    3    3    0    0  0.21981365297E+02 -0.52305226836E+02  0.35101722325E+03  0.35557292950E+03  0.00000000000E+00 0. -1.
         22    1    3    3    0    0 -0.20838969575E+02  0.25986932073E+02  0.25278609585E+02  0.41816161877E+02  0.00000000000E+00 0. -1.
</event>
<event>
 7    1  0.5553952E-006  0.1012863E+03  0.7818608E-02  0.1342929E+00
          2   -1    0    0  502    0  0.00000000000E+00  0.00000000000E+00  0.15897537166E+03  0.15897537166E+03  0.00000000000E+00 0. -1.
          1   -1    0    0  501    0 -0.00000000000E+00 -0.00000000000E+00 -0.35494255634E+03  0.35494255634E+03  0.00000000000E+00 0. -1.
         25    2    1    2    0    0 -0.72963094132E+02  0.91443419654E+02  0.14608267587E+02  0.17182192404E+03  0.12499543990E+03 0.  0.
          2    1    1    2  501    0 -0.17327869064E+02 -0.53239582184E+02 -0.23457202538E+03  0.24116123911E+03  0.00000000000E+00 0. -1.
          1    1    1    2  502    0  0.90290963196E+02 -0.38203837470E+02  0.23996573115E+02  0.10093476484E+03  0.00000000000E+00 0. -1.
         22    1    3    3    0    0 -0.20285430463E+02 -0.31368244468E+02 -0.32748257745E+00  0.37357364668E+02  0.00000000000E+00 0.  1.
         22    1    3    3    0    0 -0.52677663669E+02  0.12281166412E+03  0.14935750164E+02  0.13446455937E+03  0.00000000000E+00 0.  1.
</event>
<event>
 7    1  0.5553952E-006  0.8605857E+02  0.7818608E-02  0.1317033E+00
          2   -1    0    0  502    0  0.00000000000E+00  0.00000000000E+00  0.29978221829E+04  0.29978221829E+04  0.00000000000E+00 0. -1.
          1   -1    0    0  501    0 -0.00000000000E+00 -0.00000000000E+00 -0.30171178153E+04  0.30171178153E+04  0.00000000000E+00 0. -1.
         25    2    1    2    0    0 -0.10870780241E+02 -0.12231123765E+03 -0.24424259772E+03  0.30059625579E+03  0.12500179893E+03 0.  0.
          2    1    1    2  501    0  0.62901257200E+02  0.53776680746E+02 -0.27434510025E+04  0.27446988728E+04  0.00000000000E+00 0. -1.
          1    1    1    2  502    0 -0.52030476958E+02  0.68534556902E+02  0.29683979678E+04  0.29696448695E+04  0.00000000000E+00 0. -1.
         22    1    3    3    0    0 -0.20502001112E+02 -0.13384581865E+03 -0.13814614442E+03  0.19344092752E+03  0.00000000000E+00 0. -1.
         22    1    3    3    0    0  0.96312208701E+01  0.11534581007E+02 -0.10609645330E+03  0.10715532827E+03  0.00000000000E+00 0. -1.
</event>
<event>
 7    1  0.5553952E-006  0.2021275E+03  0.7818608E-02  0.1331572E+00
          2   -1    0    0  502    0  0.00000000000E+00  0.00000000000E+00  0.21730739005E+04  0.21730739005E+04  0.00000000000E+00 0. -1.
          1   -1    0    0  501    0 -0.00000000000E+00 -0.00000000000E+00 -0.16997046670E+03  0.16997046670E+03  0.00000000000E+00 0. -1.
         25    2    1    2    0    0 -0.11518523518E+03 -0.17129687898E+03  0.32120189054E+03  0.40175371147E+03  0.12500052414E+03 0.  0.
          2    1    1    2  501    0  0.13625210164E+03  0.14859729422E+03 -0.51123481173E+02  0.20798894533E+03  0.00000000000E+00 0. -1.
          1    1    1    2  502    0 -0.21066866457E+02  0.22699584756E+02  0.17330250244E+04  0.17333017104E+04  0.00000000000E+00 0. -1.
         22    1    3    3    0    0 -0.93197810051E+02 -0.97307691677E+02  0.28754459281E+03  0.31754765235E+03  0.00000000000E+00 0. -1.
         22    1    3    3    0    0 -0.21987425130E+02 -0.73989187303E+02  0.33657297737E+02  0.84206059121E+02  0.00000000000E+00 0. -1.
</event>
<event>
 7    1  0.5553952E-006  0.4464594E+03  0.7818608E-02  0.1149510E+00
          2   -1    0    0  502    0  0.00000000000E+00  0.00000000000E+00  0.40271786995E+03  0.40271786995E+03  0.00000000000E+00 0. -1.
          1   -1    0    0  501    0 -0.00000000000E+00 -0.00000000000E+00 -0.29415526687E+04  0.29415526687E+04  0.00000000000E+00 0. -1.
         25    2    1    2    0    0  0.39728720285E+03  0.23449715437E+03 -0.13023952309E+04  0.13873298809E+04  0.12499929628E+03 0.  0.
          2    1    1    2  501    0 -0.32828064317E+03 -0.29202008573E+03 -0.15602323243E+04  0.16209160425E+04  0.00000000000E+00 0. -1.
          1    1    1    2  502    0 -0.69006559672E+02  0.57522931355E+02  0.32379275643E+03  0.33602461521E+03  0.00000000000E+00 0. -1.
         22    1    3    3    0    0  0.30133908857E+03  0.23294643156E+03 -0.10766592674E+04  0.11420439853E+04  0.00000000000E+00 0. -1.
         22    1    3    3    0    0  0.95948114277E+02  0.15507228151E+01 -0.22573596349E+03  0.24528589561E+03  0.00000000000E+00 0. -1.
</event>
<event>
 7    1  0.5553952E-006  0.3259686E+02  0.7818608E-02  0.1616920E+00
          2   -1    0    0  502    0  0.00000000000E+00  0.00000000000E+00  0.61427473109E+02  0.61427473109E+02  0.00000000000E+00 0. -1.
          1   -1    0    0  501    0 -0.00000000000E+00 -0.00000000000E+00 -0.17445153409E+04  0.17445153409E+04  0.00000000000E+00 0. -1.
         25    2    1    2    0    0  0.18659458839E+02 -0.49061214477E+02 -0.48679251055E+03  0.50531887154E+03  0.12500014175E+03 0.  0.
          2    1    1    2  501    0 -0.62862493154E+00  0.32210099961E+02 -0.12453206200E+04  0.12457372646E+04  0.00000000000E+00 0. -1.
          1    1    1    2  502    0 -0.18030833908E+02  0.16851114516E+02  0.49025262718E+02  0.54886677950E+02  0.00000000000E+00 0. -1.
         22    1    3    3    0    0  0.41497344681E+02 -0.39923113731E+02 -0.84384922375E+02  0.10216016714E+03  0.00000000000E+00 0.  1.
         22    1    3    3    0    0 -0.22837885841E+02 -0.91381007459E+01 -0.40240758817E+03  0.40315870440E+03  0.00000000000E+00 0.  1.
</event>
<event>
 7    1  0.5553952E-006  0.7630664E+02  0.7818608E-02  0.1376289E+00
          2   -1    0    0  502    0  0.00000000000E+00  0.00000000000E+00  0.30452376597E+03  0.30452376597E+03  0.00000000000E+00 0. -1.
          1   -1    0    0  501    0 -0.00000000000E+00 -0.00000000000E+00 -0.44848671505E+03  0.44848671505E+03  0.00000000000E+00 0. -1.
         25    2    1    2    0    0 -0.44429849232E+02  0.10594505880E+03 -0.10528336463E+03  0.19977075891E+03  0.12500160903E+03 0.  0.
          2    1    1    2  501    0  0.53234648853E+02 -0.50503106957E+02 -0.28824502527E+03  0.29743854196E+03  0.00000000000E+00 0. -1.
          1    1    1    2  502    0 -0.88047996207E+01 -0.55441951841E+02  0.24956544081E+03  0.25580118016E+03  0.00000000000E+00 0. -1.
         22    1    3    3    0    0 -0.26761479879E+02  0.25860736973E+02  0.25703629165E+02  0.45228653245E+02  0.00000000000E+00 0. -1.
         22    1    3    3    0    0 -0.17668369353E+02  0.80084321825E+02 -0.13098699380E+03  0.15454210566E+03  0.00000000000E+00 0. -1.
</event>
<event>
 7    1  0.5553952E-006  0.5901366E+02  0.7818608E-02  0.1402645E+00
          2   -1    0    0  502    0  0.00000000000E+00  0.00000000000E+00  0.16187479838E+02  0.16187479838E+02  0.00000000000E+00 0. -1.
          1   -1    0    0  501    0 -0.00000000000E+00 -0.00000000000E+00 -0.12071174440E+04  0.12071174440E+04  0.00000000000E+00 0. -1.
         25    2    1    2    0    0  0.76548683850E+01  0.19284408416E+02 -0.47466009894E+03  0.49128190840E+03  0.12500087431E+03 0.  0.
          2    1    1    2  501    0  0.13743888072E+02  0.57390918172E+02 -0.45736013748E+03  0.46115171832E+03  0.00000000000E+00 0. -1.
          1    1    1    2  502    0 -0.21398756457E+02 -0.76675326588E+02 -0.25890972772E+03  0.27087129710E+03  0.00000000000E+00 0. -1.
         22    1    3    3    0    0 -0.38912270324E+02  0.12460709975E+02 -0.40593468561E+03  0.40798578781E+03  0.00000000000E+00 0.  1.
         22    1    3    3    0    0  0.46567138709E+02  0.68236984410E+01 -0.68725413330E+02  0.83296120590E+02  0.00000000000E+00 0.  1.
</event>
<event>
 7    1  0.5553952E-006  0.3253244E+02  0.7818608E-02  0.1598619E+00
          2   -1    0    0  502    0  0.00000000000E+00  0.00000000000E+00  0.60402094444E+03  0.60402094444E+03  0.00000000000E+00 0. -1.
          1   -1    0    0  501    0 -0.00000000000E+00 -0.00000000000E+00 -0.37370788325E+03  0.37370788325E+03  0.00000000000E+00 0. -1.
         25    2    1    2    0    0  0.39688035030E+02 -0.21809194125E+02  0.14163874226E+03  0.19425924280E+03  0.12499735610E+03 0.  0.
          2    1    1    2  501    0 -0.26447198480E+02 -0.78104058954E+01 -0.34624518880E+03  0.34734160061E+03  0.00000000000E+00 0. -1.
          1    1    1    2  502    0 -0.13240836550E+02  0.29619600020E+02  0.43491950774E+03  0.43612798427E+03  0.00000000000E+00 0. -1.
         22    1    3    3    0    0  0.40085192974E+02 -0.47848515081E+02  0.15345276859E+03  0.16566247396E+03  0.00000000000E+00 0.  1.
         22    1    3    3    0    0 -0.39715794442E+00  0.26039320956E+02 -0.11814026326E+02  0.28596768844E+02  0.00000000000E+00 0.  1.
</event>
<event>
 7    1  0.5553952E-006  0.5153498E+02  0.7818608E-02  0.1550505E+00
          2   -1    0    0  502    0  0.00000000000E+00  0.00000000000E+00  0.14464288966E+04  0.14464288966E+04  0.00000000000E+00 0. -1.
          1   -1    0    0  501    0 -0.00000000000E+00 -0.00000000000E+00 -0.70752310476E+03  0.70752310476E+03  0.00000000000E+00 0. -1.
         25    2    1    2    0    0 -0.59545725678E+02  0.27845777302E+02  0.13836656375E+03  0.19771713875E+03  0.12500272090E+03 0.  0.
          2    1    1    2  501    0  0.22264771999E+02  0.74595572613E+01 -0.67712866994E+03  0.67753568225E+03  0.00000000000E+00 0. -1.
          1    1    1    2  502    0  0.37280953679E+02 -0.35305334563E+02  0.12776678980E+04  0.12786991804E+04  0.00000000000E+00 0. -1.
         22    1    3    3    0    0 -0.39903110823E+02  0.73755334098E+02  0.54188467539E+02  0.99842363631E+02  0.00000000000E+00 0. -1.
         22    1    3    3    0    0 -0.19642614856E+02 -0.45909556796E+02  0.84178096206E+02  0.97874775119E+02  0.00000000000E+00 0. -1.
</event>
<event>
 7    1  0.5553952E-006  0.1755298E+03  0.7818608E-02  0.1262095E+00
          2   -1    0    0  502    0  0.00000000000E+00  0.00000000000E+00  0.11084342219E+03  0.11084342219E+03  0.00000000000E+00 0. -1.
          1   -1    0    0  501    0 -0.00000000000E+00 -0.00000000000E+00 -0.14940498032E+04  0.14940498032E+04  0.00000000000E+00 0. -1.
         25    2    1    2    0    0 -0.17169977481E+03  0.10485086284E+03 -0.68408796570E+03  0.72393129314E+03  0.12500262500E+03 0.  0.
          2    1    1    2  501    0  0.61324311514E+02  0.29175519997E+02 -0.70399992360E+03  0.70726782379E+03  0.00000000000E+00 0. -1.
          1    1    1    2  502    0  0.11037546330E+03 -0.13402638283E+03  0.48815082697E+01  0.17369410847E+03  0.00000000000E+00 0. -1.
         22    1    3    3    0    0 -0.25152092951E+02 -0.13683830335E+02 -0.23693431918E+02  0.37165221760E+02  0.00000000000E+00 0.  1.
         22    1    3    3    0    0 -0.14654768186E+03  0.11853469317E+03 -0.66039453378E+03  0.68676607138E+03  0.00000000000E+00 0.  1.
</event>
<event>
 7    1  0.5553952E-006  0.2392846E+02  0.7818608E-02  0.1709289E+00
          2   -1    0    0  502    0  0.00000000000E+00  0.00000000000E+00  0.10516515598E+04  0.10516515598E+04  0.00000000000E+00 0. -1.
          1   -1    0    0  501    0 -0.00000000000E+00 -0.00000000000E+00 -0.41105575353E+03  0.41105575353E+03  0.00000000000E+00 0. -1.
         25    2    1    2    0    0 -0.26861742028E+02 -0.16718095680E+02  0.25517674650E+02  0.13144320327E+03  0.12500046423E+03 0.  0.
          2    1    1    2  501    0  0.31432338836E+01  0.19869997713E+02 -0.35766322302E+03  0.35822852738E+03  0.00000000000E+00 0. -1.
          1    1    1    2  502    0  0.23718508144E+02 -0.31519020335E+01  0.97274135469E+03  0.97303558272E+03  0.00000000000E+00 0. -1.
         22    1    3    3    0    0 -0.72459756803E+02 -0.20235902693E+02 -0.66561261121E+01  0.75526234704E+02  0.00000000000E+00 0. -1.
         22    1    3    3    0    0  0.45598014776E+02  0.35178070130E+01  0.32173800762E+02  0.55916968562E+02  0.00000000000E+00 0. -1.
</event>
<event>
 7    1  0.5553952E-006  0.4984034E+02  0.7818608E-02  0.1446579E+00
          2   -1    0    0  502    0  0.00000000000E+00  0.00000000000E+00  0.35721163919E+04  0.35721163919E+04  0.00000000000E+00 0. -1.
          1   -1    0    0  501    0 -0.00000000000E+00 -0.00000000000E+00 -0.12059395140E+04  0.12059395140E+04  0.00000000000E+00 0. -1.
         25    2    1    2    0    0  0.42401613684E+02 -0.46896936942E+02 -0.24724634547E+02  0.14224498905E+03  0.12500043927E+03 0.  0.
          2    1    1    2  501    0 -0.49642536361E+02 -0.24350577802E+01 -0.11217274831E+04  0.11228280622E+04  0.00000000000E+00 0. -1.
          1    1    1    2  502    0  0.72409226768E+01  0.49331994723E+02  0.35126289955E+04  0.35129828546E+04  0.00000000000E+00 0. -1.
         22    1    3    3    0    0  0.64670925006E+02 -0.64431557823E+02  0.15946338166E+02  0.92671677904E+02  0.00000000000E+00 0. -1.
         22    1    3    3    0    0 -0.22269311322E+02  0.17534620880E+02 -0.40670972713E+02  0.49573311142E+02  0.00000000000E+00 0. -1.
</event>
<event>
 7    1  0.5553952E-006  0.5089213E+02  0.7818608E-02  0.1568755E+00
          2   -1    0    0  502    0  0.00000000000E+00  0.00000000000E+00  0.68187025031E+03  0.68187025031E+03  0.00000000000E+00 0. -1.
          1   -1    0    0  501    0 -0.00000000000E+00 -0.00000000000E+00 -0.14320225368E+04  0.14320225368E+04  0.00000000000E+00 0. -1.
         25    2    1    2    0    0 -0.34497588503E+02 -0.62631970803E+02 -0.24314949404E+03  0.28259606027E+03  0.12500403772E+03 0.  0.
          2    1    1    2  501    0  0.24422318526E+02  0.44003010800E+02 -0.11684386164E+04  0.11695219173E+04  0.00000000000E+00 0. -1.
          1    1    1    2  502    0  0.10075269977E+02  0.18628960003E+02  0.66143582403E+03  0.66177480953E+03  0.00000000000E+00 0. -1.
         22    1    3    3    0    0  0.22135009764E+02 -0.65160623926E+02 -0.19954051710E+03  0.21107411858E+03  0.00000000000E+00 0. -1.
         22    1    3    3    0    0 -0.56632598267E+02  0.25286531227E+01 -0.43608976940E+02  0.71521941688E+02  0.00000000000E+00 0. -1.
</event>
<event>
 7    1  0.5553952E-006  0.1609572E+03  0.7818608E-02  0.1223895E+00
          2   -1    0    0  502    0  0.00000000000E+00  0.00000000000E+00  0.10775579616E+04  0.10775579616E+04  0.00000000000E+00 0. -1.
          1   -1    0    0  501    0 -0.00000000000E+00 -0.00000000000E+00 -0.27631388731E+03  0.27631388731E+03  0.00000000000E+00 0. -1.
         25    2    1    2    0    0  0.15268444515E+03 -0.11238627432E+03 -0.72332132526E+02  0.23832809446E+03  0.12500051506E+03 0.  0.
          2    1    1    2  501    0 -0.49562176427E+02  0.14756441174E+03 -0.66427645181E+02  0.16924626137E+03  0.00000000000E+00 0. -1.
          1    1    1    2  502    0 -0.10312226872E+03 -0.35178137416E+02  0.94000385201E+03  0.94629749310E+03  0.00000000000E+00 0. -1.
         22    1    3    3    0    0 -0.14827752509E+02  0.27939838798E+01 -0.25631462491E+02  0.29742906042E+02  0.00000000000E+00 0. -1.
         22    1    3    3    0    0  0.16751219766E+03 -0.11518025820E+03 -0.46700670035E+02  0.20858518841E+03  0.00000000000E+00 0. -1.
</event>
<event>
 7    1  0.5553952E-006  0.7448159E+02  0.7818608E-02  0.1402225E+00
          2   -1    0    0  502    0  0.00000000000E+00  0.00000000000E+00  0.80541784997E+02  0.80541784997E+02  0.00000000000E+00 0. -1.
          1   -1    0    0  501    0 -0.00000000000E+00 -0.00000000000E+00 -0.72886160038E+03  0.72886160038E+03  0.00000000000E+00 0. -1.
         25    2    1    2    0    0 -0.54122220523E+02  0.48851569219E+02 -0.22678911558E+03  0.26902374614E+03  0.12499912989E+03 0.  0.
          2    1    1    2  501    0  0.39043996699E+02  0.25587956568E+02 -0.45499461628E+03  0.45738307582E+03  0.00000000000E+00 0. -1.
          1    1    1    2  502    0  0.15078223824E+02 -0.74439525787E+02  0.33463916479E+02  0.82996563418E+02  0.00000000000E+00 0. -1.
         22    1    3    3    0    0 -0.35594308954E+00  0.41009263189E+02 -0.20727098709E+03  0.21128925304E+03  0.00000000000E+00 0. -1.
         22    1    3    3    0    0 -0.53766277434E+02  0.78423060304E+01 -0.19518128485E+02  0.57734493091E+02  0.00000000000E+00 0. -1.
</event>
<event>
 7    1  0.5553952E-006  0.7089496E+02  0.7818608E-02  0.1466357E+00
          2   -1    0    0  502    0  0.00000000000E+00  0.00000000000E+00  0.12036729493E+03  0.12036729493E+03  0.00000000000E+00 0. -1.
          1   -1    0    0  501    0 -0.00000000000E+00 -0.00000000000E+00 -0.78225644511E+03  0.78225644511E+03  0.00000000000E+00 0. -1.
         25    2    1    2    0    0  0.52628536853E+02 -0.18359968873E+02 -0.19514847349E+03  0.23835762873E+03  0.12499832446E+03 0.  0.
          2    1    1    2  501    0 -0.72866049633E+02 -0.41149517961E+01 -0.56076662150E+03  0.56549588664E+03  0.00000000000E+00 0. -1.
          1    1    1    2  502    0  0.20237512780E+02  0.22474920670E+02  0.94025944817E+02  0.98770224670E+02  0.00000000000E+00 0. -1.
         22    1    3    3    0    0 -0.23479063145E+02  0.92190081555E+01 -0.13544048704E+03  0.13776930735E+03  0.00000000000E+00 0.  1.
         22    1    3    3    0    0  0.76107599998E+02 -0.27578977029E+02 -0.59707986452E+02  0.10058832138E+03  0.00000000000E+00 0.  1.
</event>
<event>
 7    1  0.5553952E-006  0.8784707E+02  0.7818608E-02  0.1391230E+00
          2   -1    0    0  502    0  0.00000000000E+00  0.00000000000E+00  0.55855419818E+03  0.55855419818E+03  0.00000000000E+00 0. -1.
          1   -1    0    0  501    0 -0.00000000000E+00 -0.00000000000E+00 -0.85430557394E+02  0.85430557394E+02  0.00000000000E+00 0. -1.
         25    2    1    2    0    0  0.27314547338E+02 -0.12084901164E+03  0.37439101106E+03  0.41369509058E+03  0.12499772276E+03 0.  0.
          2    1    1    2  501    0 -0.34143737382E+02  0.78194567953E+02 -0.33131069695E+02  0.91530612578E+02  0.00000000000E+00 0. -1.
          1    1    1    2  502    0  0.68291900447E+01  0.42654443685E+02  0.13186369941E+03  0.13875905241E+03  0.00000000000E+00 0. -1.
         22    1    3    3    0    0  0.13522663119E+02 -0.69313923922E+02  0.34625155937E+03  0.35338000061E+03  0.00000000000E+00 0.  1.
         22    1    3    3    0    0  0.13791884218E+02 -0.51535087716E+02  0.28139451691E+02  0.60315089966E+02  0.00000000000E+00 0.  1.
</event>
<event>
 7    1  0.5553952E-006  0.4240528E+02  0.7818608E-02  0.1503727E+00
          2   -1    0    0  502    0  0.00000000000E+00  0.00000000000E+00  0.11219349845E+04  0.11219349845E+04  0.00000000000E+00 0. -1.
          1   -1    0    0  501    0 -0.00000000000E+00 -0.00000000000E+00 -0.36113458540E+02  0.36113458540E+02  0.00000000000E+00 0. -1.
         25    2    1    2    0    0  0.77380451486E+02 -0.18002854924E+02  0.42624549520E+03  0.45124448252E+03  0.12499809505E+03 0.  0.
          2    1    1    2  501    0 -0.38130400024E+02  0.77103756334E+01 -0.65444020578E+01  0.39448783209E+02  0.00000000000E+00 0. -1.
          1    1    1    2  502    0 -0.39250051462E+02  0.10292479291E+02  0.66612043284E+03  0.66735517733E+03  0.00000000000E+00 0. -1.
         22    1    3    3    0    0  0.10394378701E+03  0.86786346041E+01  0.36252694418E+03  0.37723389934E+03  0.00000000000E+00 0. -1.
         22    1    3    3    0    0 -0.26563335528E+02 -0.26681489528E+02  0.63718551024E+02  0.74010583178E+02  0.00000000000E+00 0. -1.
</event>
<event>
 7    1  0.5553952E-006  0.6905779E+02  0.7818608E-02  0.1383947E+00
          2   -1    0    0  502    0  0.00000000000E+00  0.00000000000E+00  0.69726881962E+03  0.69726881962E+03  0.00000000000E+00 0. -1.
          1   -1    0    0  501    0 -0.00000000000E+00 -0.00000000000E+00 -0.70535680936E+03  0.70535680936E+03  0.00000000000E+00 0. -1.
         25    2    1    2    0    0  0.58581468733E+02  0.60455230348E+02 -0.82896222538E+02  0.17199872891E+03  0.12500062272E+03 0.  0.
          2    1    1    2  501    0 -0.99167480105E+00 -0.69364122078E+02 -0.57451795442E+03  0.57869097522E+03  0.00000000000E+00 0. -1.
          1    1    1    2  502    0 -0.57589793932E+02  0.89088917299E+01  0.64932618721E+03  0.65193592485E+03  0.00000000000E+00 0. -1.
         22    1    3    3    0    0 -0.35642318335E+02  0.18048527343E+00 -0.36161305490E+02  0.50774476324E+02  0.00000000000E+00 0. -1.
         22    1    3    3    0    0  0.94223787068E+02  0.60274745074E+02 -0.46734917048E+02  0.12122425258E+03  0.00000000000E+00 0. -1.
</event>
<event>
 7    1  0.5553952E-006  0.1093556E+03  0.7818608E-02  0.1376872E+00
          2   -1    0    0  502    0  0.00000000000E+00  0.00000000000E+00  0.35806236407E+03  0.35806236407E+03  0.00000000000E+00 0. -1.
          1   -1    0    0  501    0 -0.00000000000E+00 -0.00000000000E+00 -0.37031812610E+03  0.37031812610E+03  0.00000000000E+00 0. -1.
         25    2    1    2    0    0 -0.12440468222E+03  0.70308466139E+02 -0.46259079754E+02  0.19540842032E+03  0.12499897160E+03 0.  0.
          2    1    1    2  501    0  0.26132394668E+02 -0.28929503031E+02 -0.23781423198E+03  0.24098843775E+03  0.00000000000E+00 0. -1.
          1    1    1    2  502    0  0.98272287552E+02 -0.41378963108E+02  0.27181754970E+03  0.29198363210E+03  0.00000000000E+00 0. -1.
         22    1    3    3    0    0 -0.13985447694E+03  0.28260761170E+02 -0.48109915711E+02  0.15057393310E+03  0.00000000000E+00 0. -1.
         22    1    3    3    0    0  0.15449794715E+02  0.42047704969E+02  0.18508359571E+01  0.44834487213E+02  0.00000000000E+00 0. -1.
</event>
<event>
 7    1  0.5553952E-006  0.4392928E+02  0.7818608E-02  0.1484182E+00
          2   -1    0    0  502    0  0.00000000000E+00  0.00000000000E+00  0.21126656799E+03  0.21126656799E+03  0.00000000000E+00 0. -1.
          1   -1    0    0  501    0 -0.00000000000E+00 -0.00000000000E+00 -0.11758504109E+04  0.11758504109E+04  0.00000000000E+00 0. -1.
         25    2    1    2    0    0  0.30984742736E+01 -0.31404708232E+01 -0.20705442462E+03  0.24189635791E+03  0.12499140017E+03 0.  0.
          2    1    1    2  501    0 -0.44221721785E+02 -0.94189260064E+01 -0.94844538391E+03  0.94952247109E+03  0.00000000000E+00 0. -1.
          1    1    1    2  502    0  0.41123247511E+02  0.12559396830E+02  0.19091596563E+03  0.19569814988E+03  0.00000000000E+00 0. -1.
         22    1    3    3    0    0 -0.10916392592E+02 -0.62714478835E+02 -0.11258634023E+03  0.12933660537E+03  0.00000000000E+00 0.  1.
         22    1    3    3    0    0  0.14014866865E+02  0.59574008011E+02 -0.94468084390E+02  0.11255975254E+03  0.00000000000E+00 0.  1.
</event>
<event>
 7    1  0.5553952E-006  0.6102762E+02  0.7818608E-02  0.1499338E+00
          2   -1    0    0  502    0  0.00000000000E+00  0.00000000000E+00  0.64411535783E+03  0.64411535783E+03  0.00000000000E+00 0. -1.
          1   -1    0    0  501    0 -0.00000000000E+00 -0.00000000000E+00 -0.34337131173E+03  0.34337131173E+03  0.00000000000E+00 0. -1.
         25    2    1    2    0    0  0.79762777260E+01  0.46600286259E+02 -0.16237486850E+03  0.21030029441E+03  0.12500163288E+03 0.  0.
          2    1    1    2  501    0 -0.25072904157E+02  0.12139844070E+02 -0.15427445342E+03  0.15676936345E+03  0.00000000000E+00 0. -1.
          1    1    1    2  502    0  0.17096626431E+02 -0.58740130328E+02  0.61739336802E+03  0.62041701171E+03  0.00000000000E+00 0. -1.
         22    1    3    3    0    0 -0.20869053155E+02 -0.28319217033E+01 -0.15035002737E+03  0.15181787738E+03  0.00000000000E+00 0. -1.
         22    1    3    3    0    0  0.28845330881E+02  0.49432207962E+02 -0.12024841123E+02  0.58482417030E+02  0.00000000000E+00 0. -1.
</event>
<event>
 7    1  0.5553952E-006  0.9800546E+02  0.7818608E-02  0.1380014E+00
          2   -1    0    0  502    0  0.00000000000E+00  0.00000000000E+00  0.34791093373E+03  0.34791093373E+03  0.00000000000E+00 0. -1.
          1   -1    0    0  501    0 -0.00000000000E+00 -0.00000000000E+00 -0.72901785470E+03  0.72901785470E+03  0.00000000000E+00 0. -1.
         25    2    1    2    0    0 -0.77168704050E+02  0.65777270802E+02 -0.73931527704E+02  0.17713050618E+03  0.12501074830E+03 0.  0.
          2    1    1    2  501    0  0.94586490290E+02 -0.27123628997E+02 -0.59792819999E+03  0.60597064924E+03  0.00000000000E+00 0. -1.
          1    1    1    2  502    0 -0.17417786240E+02 -0.38653641805E+02  0.29075280673E+03  0.29382763301E+03  0.00000000000E+00 0. -1.
         22    1    3    3    0    0 -0.66815211051E+02 -0.59529370982E+01 -0.80001932749E+02  0.10440315671E+03  0.00000000000E+00 0.  1.
         22    1    3    3    0    0 -0.10353492998E+02  0.71730207900E+02  0.60704050450E+01  0.72727349464E+02  0.00000000000E+00 0.  1.
</event>
<event>
 7    1  0.5553952E-006  0.9925150E+02  0.7818608E-02  0.1367444E+00
          2   -1    0    0  502    0  0.00000000000E+00  0.00000000000E+00  0.54183540696E+03  0.54183540696E+03  0.00000000000E+00 0. -1.
          1   -1    0    0  501    0 -0.00000000000E+00 -0.00000000000E+00 -0.13037055385E+04  0.13037055385E+04  0.00000000000E+00 0. -1.
         25    2    1    2    0    0  0.27541122121E+02  0.63213731585E+02  0.42261640467E+03  0.44607679836E+03  0.12500158108E+03 0.  0.
          2    1    1    2  501    0  0.15468231923E+01 -0.99400606570E+02 -0.12849506773E+04  0.12887905634E+04  0.00000000000E+00 0. -1.
          1    1    1    2  502    0 -0.29087945313E+02  0.36186874984E+02  0.10046414108E+03  0.11067358369E+03  0.00000000000E+00 0. -1.
         22    1    3    3    0    0 -0.35395623377E+02 -0.75708693265E+01  0.21300379519E+03  0.21605736502E+03  0.00000000000E+00 0. -1.
         22    1    3    3    0    0  0.62936745497E+02  0.70784600912E+02  0.20961260948E+03  0.23001943333E+03  0.00000000000E+00 0. -1.
</event>
<event>
 7    1  0.5553952E-006  0.1053065E+03  0.7818608E-02  0.1347273E+00
          2   -1    0    0  502    0  0.00000000000E+00  0.00000000000E+00  0.15516980141E+04  0.15516980141E+04  0.00000000000E+00 0. -1.
          1   -1    0    0  501    0 -0.00000000000E+00 -0.00000000000E+00 -0.65297703604E+03  0.65297703604E+03  0.00000000000E+00 0. -1.
         25    2    1    2    0    0 -0.14432743399E+03  0.11903647954E+02  0.58078619023E+03  0.61148134289E+03  0.12499891560E+03 0.  0.
          2    1    1    2  501    0  0.49293078313E+02  0.16169274531E+02 -0.63399809310E+03  0.63611699793E+03  0.00000000000E+00 0. -1.
          1    1    1    2  502    0  0.95034355675E+02 -0.28072922485E+02  0.95193288097E+03  0.95707670936E+03  0.00000000000E+00 0. -1.
         22    1    3    3    0    0 -0.85468202204E+02  0.23013882492E+01  0.12282412976E+03  0.14965252028E+03  0.00000000000E+00 0. -1.
         22    1    3    3    0    0 -0.58859231784E+02  0.96022597050E+01  0.45796206047E+03  0.46182882260E+03  0.00000000000E+00 0. -1.
</event>
<event>
 7    1  0.5553952E-006  0.4879409E+02  0.7818608E-02  0.1539800E+00
          2   -1    0    0  502    0  0.00000000000E+00  0.00000000000E+00  0.13551995246E+03  0.13551995246E+03  0.00000000000E+00 0. -1.
          1   -1    0    0  501    0 -0.00000000000E+00 -0.00000000000E+00 -0.58632268959E+03  0.58632268959E+03  0.00000000000E+00 0. -1.
         25    2    1    2    0    0 -0.47860204744E+02  0.45346294676E+02 -0.10932722200E+03  0.17867009123E+03  0.12499469745E+03 0.  0.
          2    1    1    2  501    0  0.26496138297E+02 -0.20724114263E+01 -0.43612261762E+03  0.43693166266E+03  0.00000000000E+00 0. -1.
          1    1    1    2  502    0  0.21364066447E+02 -0.43273883250E+02  0.94647102496E+02  0.10624088816E+03  0.00000000000E+00 0. -1.
         22    1    3    3    0    0 -0.53867493069E+02  0.11487574545E+02  0.86765260481E+01  0.55757988511E+02  0.00000000000E+00 0. -1.
         22    1    3    3    0    0  0.60072883257E+01  0.33858720131E+02 -0.11800374804E+03  0.12291210272E+03  0.00000000000E+00 0. -1.
</event>
<event>
 7    1  0.5553952E-006  0.6288015E+02  0.7818608E-02  0.1475261E+00
          2   -1    0    0  502    0  0.00000000000E+00  0.00000000000E+00  0.98578687903E+03  0.98578687903E+03  0.00000000000E+00 0. -1.
          1   -1    0    0  501    0 -0.00000000000E+00 -0.00000000000E+00 -0.23160418178E+03  0.23160418178E+03  0.00000000000E+00 0. -1.
         25    2    1    2    0    0  0.63607698508E+02 -0.20106572028E+02 -0.10609990232E+02  0.14208509570E+03  0.12500155591E+03 0.  0.
          2    1    1    2  501    0 -0.44003584427E+02  0.45391062813E+02 -0.14852932296E+03  0.16142373990E+03  0.00000000000E+00 0. -1.
          1    1    1    2  502    0 -0.19604114081E+02 -0.25284490785E+02  0.91332201045E+03  0.91388222520E+03  0.00000000000E+00 0. -1.
         22    1    3    3    0    0  0.84788760094E+02 -0.85047970956E+00 -0.46079869325E+02  0.96504981794E+02  0.00000000000E+00 0. -1.
         22    1    3    3    0    0 -0.21181061586E+02 -0.19256092318E+02  0.35469879093E+02  0.45580113911E+02  0.00000000000E+00 0. -1.
</event>
<event>
 7    1  0.5553952E-006  0.3984926E+03  0.7818608E-02  0.1186066E+00
          2   -1    0    0  502    0  0.00000000000E+00  0.00000000000E+00  0.15756513061E+04  0.15756513061E+04  0.00000000000E+00 0. -1.
          1   -1    0    0  501    0 -0.00000000000E+00 -0.00000000000E+00 -0.15896989288E+04  0.15896989288E+04  0.00000000000E+00 0. -1.
         25    2    1    2    0    0  0.13788248881E+02  0.41725096653E+03  0.35930868089E+03  0.56481480176E+03  0.12499818899E+03 0.  0.
          2    1    1    2  501    0 -0.60489870087E+02 -0.26761106789E+02 -0.14514473612E+04  0.14529537582E+04  0.00000000000E+00 0. -1.
          1    1    1    2  502    0  0.46701621207E+02 -0.39048985974E+03  0.10780910577E+04  0.11475816749E+04  0.00000000000E+00 0. -1.
         22    1    3    3    0    0  0.46207838742E+02  0.36531052701E+03  0.33843931528E+03  0.50012809923E+03  0.00000000000E+00 0. -1.
         22    1    3    3    0    0 -0.32419589861E+02  0.51940439521E+02  0.20869365603E+02  0.64686702537E+02  0.00000000000E+00 0. -1.
</event>
<event>
 7    1  0.5553952E-006  0.9679201E+02  0.7818608E-02  0.1309398E+00
          2   -1    0    0  502    0  0.00000000000E+00  0.00000000000E+00  0.13870793453E+03  0.13870793453E+03  0.00000000000E+00 0. -1.
          1   -1    0    0  501    0 -0.00000000000E+00 -0.00000000000E+00 -0.60333925045E+03  0.60333925045E+03  0.00000000000E+00 0. -1.
         25    2    1    2    0    0  0.33618955498E+02  0.81027439928E+02 -0.25863894955E+03  0.30035650789E+03  0.12499698165E+03 0.  0.
          2    1    1    2  501    0  0.42454700613E+02 -0.10168980046E+03 -0.29965223674E+03  0.31927210982E+03  0.00000000000E+00 0. -1.
          1    1    1    2  502    0 -0.76073656110E+02  0.20662360535E+02  0.93659870368E+02  0.12241856728E+03  0.00000000000E+00 0. -1.
         22    1    3    3    0    0 -0.15542710969E+02 -0.47070284288E+01  0.64272483565E+01  0.17465437364E+02  0.00000000000E+00 0.  1.
         22    1    3    3    0    0  0.49161666467E+02  0.85734468357E+02 -0.26506619790E+03  0.28289107053E+03  0.00000000000E+00 0.  1.
</event>
<event>
 7    1  0.5553952E-006  0.1331169E+03  0.7818608E-02  0.1288565E+00
          2   -1    0    0  502    0  0.00000000000E+00  0.00000000000E+00  0.17795035138E+04  0.17795035138E+04  0.00000000000E+00 0. -1.
          1   -1    0    0  501    0 -0.00000000000E+00 -0.00000000000E+00 -0.13184920390E+03  0.13184920390E+03  0.00000000000E+00 0. -1.
         25    2    1    2    0    0  0.18066533858E+03 -0.40007195810E+02  0.66715077995E+03  0.70353032750E+03  0.12499687291E+03 0.  0.
          2    1    1    2  501    0 -0.11483697923E+03  0.62224182286E+02 -0.74612942534E+02  0.15042098209E+03  0.00000000000E+00 0. -1.
          1    1    1    2  502    0 -0.65828359342E+02 -0.22216986476E+02  0.10551164725E+04  0.10574014081E+04  0.00000000000E+00 0. -1.
         22    1    3    3    0    0  0.16699875543E+02 -0.29555826558E+02  0.29249299191E+02  0.44810202296E+02  0.00000000000E+00 0.  1.
         22    1    3    3    0    0  0.16396546303E+03 -0.10451369252E+02  0.63790148076E+03  0.65872012520E+03  0.00000000000E+00 0.  1.
</event>
<event>
 7    1  0.5553952E-006  0.5156327E+02  0.7818608E-02  0.1535811E+00
          2   -1    0    0  502    0  0.00000000000E+00  0.00000000000E+00  0.75400054242E+03  0.75400054242E+03  0.00000000000E+00 0. -1.
          1   -1    0    0  501    0 -0.00000000000E+00 -0.00000000000E+00 -0.33188882712E+03  0.33188882712E+03  0.00000000000E+00 0. -1.
         25    2    1    2    0    0 -0.10228319363E+02 -0.58167594734E+02  0.26996912255E+03  0.30330836448E+03  0.12499819695E+03 0.  0.
          2    1    1    2  501    0 -0.14115081306E+02  0.49581239377E+02 -0.31275107517E+03  0.31697124450E+03  0.00000000000E+00 0. -1.
          1    1    1    2  502    0  0.24343400669E+02  0.85863553569E+01  0.46489366792E+03  0.46560976056E+03  0.00000000000E+00 0. -1.
         22    1    3    3    0    0 -0.53819724724E+02 -0.52331310361E+02  0.23625003565E+03  0.24788950796E+03  0.00000000000E+00 0.  1.
         22    1    3    3    0    0  0.43591405360E+02 -0.58362843738E+01  0.33719086900E+02  0.55418856519E+02  0.00000000000E+00 0.  1.
</event>
<event>
 7    1  0.5553952E-006  0.9165919E+02  0.7818608E-02  0.1337529E+00
          2   -1    0    0  502    0  0.00000000000E+00  0.00000000000E+00  0.22506606026E+04  0.22506606026E+04  0.00000000000E+00 0. -1.
          1   -1    0    0  501    0 -0.00000000000E+00 -0.00000000000E+00 -0.30736183029E+03  0.30736183029E+03  0.00000000000E+00 0. -1.
         25    2    1    2    0    0 -0.10766654303E+03  0.11180364398E+03  0.62342947641E+03  0.65450922091E+03  0.12500347560E+03 0.  0.
          2    1    1    2  501    0  0.58196028577E+02 -0.69902836972E+02 -0.28406364817E+03  0.29827058281E+03  0.00000000000E+00 0. -1.
          1    1    1    2  502    0  0.49470514450E+02 -0.41900807003E+02  0.16039329441E+04  0.16052426292E+04  0.00000000000E+00 0. -1.
         22    1    3    3    0    0 -0.21944801510E+02  0.11111659214E+03  0.33675432811E+03  0.35529135771E+03  0.00000000000E+00 0.  1.
         22    1    3    3    0    0 -0.85721741517E+02  0.68705183776E+00  0.28667514830E+03  0.29921786320E+03  0.00000000000E+00 0.  1.
</event>
<event>
 7    1  0.5553952E-006  0.1323501E+03  0.7818608E-02  0.1299374E+00
          2   -1    0    0  502    0  0.00000000000E+00  0.00000000000E+00  0.98340236538E+03  0.98340236538E+03  0.00000000000E+00 0. -1.
          1   -1    0    0  501    0 -0.00000000000E+00 -0.00000000000E+00 -0.61653524788E+03  0.61653524788E+03  0.00000000000E+00 0. -1.
         25    2    1    2    0    0  0.63199208508E+02 -0.15554633561E+03  0.43470059526E+02  0.21378179503E+03  0.12499682929E+03 0.  0.
          2    1    1    2  501    0 -0.87408938009E+02  0.97176140301E+02 -0.52214514323E+03  0.53825558546E+03  0.00000000000E+00 0. -1.
          1    1    1    2  502    0  0.24209729501E+02  0.58370195306E+02  0.84554220120E+03  0.84790023276E+03  0.00000000000E+00 0. -1.
         22    1    3    3    0    0 -0.75719826255E+00 -0.35574825431E+02  0.66946488637E+02  0.75815393519E+02  0.00000000000E+00 0. -1.
         22    1    3    3    0    0  0.63956406771E+02 -0.11997151018E+03 -0.23476429111E+02  0.13796640151E+03  0.00000000000E+00 0. -1.
</event>
<event>
 7    1  0.5553952E-006  0.6014709E+02  0.7818608E-02  0.1398947E+00
          2   -1    0    0  502    0  0.00000000000E+00  0.00000000000E+00  0.14221279775E+04  0.14221279775E+04  0.00000000000E+00 0. -1.
          1   -1    0    0  501    0 -0.00000000000E+00 -0.00000000000E+00 -0.15669736517E+03  0.15669736517E+03  0.00000000000E+00 0. -1.
         25    2    1    2    0    0  0.12838240900E+02  0.19214378045E+01  0.95995191875E+02  0.15813958277E+03  0.12499815367E+03 0.  0.
          2    1    1    2  501    0 -0.13008511256E+02  0.58723516421E+02 -0.11767071472E+03  0.13215169257E+03  0.00000000000E+00 0. -1.
          1    1    1    2  502    0  0.17027035651E+00 -0.60644954226E+02  0.12871061352E+04  0.12885340674E+04  0.00000000000E+00 0. -1.
         22    1    3    3    0    0 -0.48759087796E+01 -0.58614943221E+02  0.27189153617E+02  0.64797655278E+02  0.00000000000E+00 0. -1.
         22    1    3    3    0    0  0.17714149679E+02  0.60536381025E+02  0.68806038258E+02  0.93341927489E+02  0.00000000000E+00 0. -1.
</event>
<event>
 7    1  0.5553952E-006  0.8205982E+02  0.7818608E-02  0.1417663E+00
          2   -1    0    0  502    0  0.00000000000E+00  0.00000000000E+00  0.14309397418E+04  0.14309397418E+04  0.00000000000E+00 0. -1.
          1   -1    0    0  501    0 -0.00000000000E+00 -0.00000000000E+00 -0.10424202512E+03  0.10424202512E+03  0.00000000000E+00 0. -1.
         25    2    1    2    0    0 -0.38808285655E+02  0.84479342832E+02  0.93204733367E+02  0.18153150136E+03  0.12499488495E+03 0.  0.
          2    1    1    2  501    0  0.37476425815E+02 -0.25273338051E+01 -0.52773041622E+02  0.64775487880E+02  0.00000000000E+00 0. -1.
          1    1    1    2  502    0  0.13318598399E+01 -0.81952009027E+02  0.12862660250E+04  0.12888747777E+04  0.00000000000E+00 0. -1.
         22    1    3    3    0    0 -0.80690339678E+02  0.47349222654E+02  0.32696301889E+02  0.99105640407E+02  0.00000000000E+00 0.  1.
         22    1    3    3    0    0  0.41882054024E+02  0.37130120178E+02  0.60508431478E+02  0.82425860952E+02  0.00000000000E+00 0.  1.
</event>
<event>
 7    1  0.5553952E-006  0.5001132E+02  0.7818608E-02  0.1562286E+00
          2   -1    0    0  502    0  0.00000000000E+00  0.00000000000E+00  0.85552923400E+02  0.85552923400E+02  0.00000000000E+00 0. -1.
          1   -1    0    0  501    0 -0.00000000000E+00 -0.00000000000E+00 -0.75955487696E+03  0.75955487696E+03  0.00000000000E+00 0. -1.
         25    2    1    2    0    0 -0.68752631259E+02 -0.59412204110E+01 -0.46536182851E+03  0.48677499648E+03  0.12500417340E+03 0.  0.
          2    1    1    2  501    0  0.46498881755E+02  0.29984844344E+01 -0.27983250841E+03  0.28368533567E+03  0.00000000000E+00 0. -1.
          1    1    1    2  502    0  0.22253749503E+02  0.29427359767E+01  0.71192383353E+02  0.74647468205E+02  0.00000000000E+00 0. -1.
         22    1    3    3    0    0 -0.51926076751E+02 -0.48326114342E+02 -0.12796728415E+03  0.14631253052E+03  0.00000000000E+00 0.  1.
         22    1    3    3    0    0 -0.16826554508E+02  0.42384893930E+02 -0.33739454435E+03  0.34046246596E+03  0.00000000000E+00 0.  1.
</event>
<event>
 7    1  0.5553952E-006  0.4197409E+02  0.7818608E-02  0.1524963E+00
          2   -1    0    0  502    0  0.00000000000E+00  0.00000000000E+00  0.12279031055E+03  0.12279031055E+03  0.00000000000E+00 0. -1.
          1   -1    0    0  501    0 -0.00000000000E+00 -0.00000000000E+00 -0.22436136663E+03  0.22436136663E+03  0.00000000000E+00 0. -1.
         25    2    1    2    0    0 -0.58284655958E+02 -0.45362013562E+02 -0.54233492902E+02  0.15498479376E+03  0.12499680456E+03 0.  0.
          2    1    1    2  501    0  0.31037784469E+02  0.24921708545E+02 -0.11211969243E+03  0.11897588433E+03  0.00000000000E+00 0. -1.
          1    1    1    2  502    0  0.27246871489E+02  0.20440305017E+02  0.64782129262E+02  0.73190999084E+02  0.00000000000E+00 0. -1.
         22    1    3    3    0    0  0.13902539319E+02  0.32956181546E+02 -0.27639738346E+02  0.45203380819E+02  0.00000000000E+00 0.  1.
         22    1    3    3    0    0 -0.72187195277E+02 -0.78318195108E+02 -0.26593754557E+02  0.10978141295E+03  0.00000000000E+00 0.  1.
</event>
<event>
 7    1  0.5553952E-006  0.5693481E+02  0.7818608E-02  0.1426235E+00
          2   -1    0    0  502    0  0.00000000000E+00  0.00000000000E+00  0.25721008490E+04  0.25721008490E+04  0.00000000000E+00 0. -1.
          1   -1    0    0  501    0 -0.00000000000E+00 -0.00000000000E+00 -0.77710995733E+02  0.77710995733E+02  0.00000000000E+00 0. -1.
         25    2    1    2    0    0  0.46719568717E+01 -0.44757259142E+02  0.86192882356E+03  0.87210653707E+03  0.12499390260E+03 0.  0.
          2    1    1    2  501    0 -0.51483642576E+02  0.25304195298E+02 -0.60854610644E+02  0.83631043215E+02  0.00000000000E+00 0. -1.
          1    1    1    2  502    0  0.46811685704E+02  0.19453063843E+02  0.16933156403E+04  0.16940742644E+04  0.00000000000E+00 0. -1.
         22    1    3    3    0    0  0.28491195585E+02  0.37314942483E+02  0.34040735012E+03  0.34362962208E+03  0.00000000000E+00 0.  1.
         22    1    3    3    0    0 -0.23819238714E+02 -0.82072201625E+02  0.52152147344E+03  0.52847691499E+03  0.00000000000E+00 0.  1.
</event>
<event>
 7    1  0.5553952E-006  0.9466294E+02  0.7818608E-02  0.1472700E+00
          2   -1    0    0  502    0  0.00000000000E+00  0.00000000000E+00  0.28065133706E+03  0.28065133706E+03  0.00000000000E+00 0. -1.
          1   -1    0    0  501    0 -0.00000000000E+00 -0.00000000000E+00 -0.18693040803E+04  0.18693040803E+04  0.00000000000E+00 0. -1.
         25    2    1    2    0    0  0.45137644636E+02 -0.84931930382E+02  0.98034123538E+02  0.18570742238E+03  0.12500287032E+03 0.  0.
          2    1    1    2  501    0 -0.62085338807E+02  0.71470233388E+02 -0.18233880347E+04  0.18258440538E+04  0.00000000000E+00 0. -1.
          1    1    1    2  502    0  0.16947694170E+02  0.13461696995E+02  0.13670116794E+03  0.13840394120E+03  0.00000000000E+00 0. -1.
         22    1    3    3    0    0 -0.22520181615E+02 -0.20691226644E+01 -0.17244905217E+02  0.28439877013E+02  0.00000000000E+00 0. -1.
         22    1    3    3    0    0  0.67657826251E+02 -0.82862807718E+02  0.11527902876E+03  0.15726754537E+03  0.00000000000E+00 0. -1.
</event>
<event>
 7    1  0.5553952E-006  0.5906249E+02  0.7818608E-02  0.1504962E+00
          2   -1    0    0  502    0  0.00000000000E+00  0.00000000000E+00  0.48461409183E+03  0.48461409183E+03  0.00000000000E+00 0. -1.
          1   -1    0    0  501    0 -0.00000000000E+00 -0.00000000000E+00 -0.92616518249E+02  0.92616518249E+02  0.00000000000E+00 0. -1.
         25    2    1    2    0    0 -0.36494308177E+02 -0.15136665459E+02 -0.10889998242E+02  0.13154646093E+03  0.12499970461E+03 0.  0.
          2    1    1    2  501    0 -0.57693323592E+01 -0.27088471825E+02 -0.92799393675E+01  0.29209378226E+02  0.00000000000E+00 0. -1.
          1    1    1    2  502    0  0.42263640536E+02  0.42225137284E+02  0.41216751119E+03  0.41647477092E+03  0.00000000000E+00 0. -1.
         22    1    3    3    0    0  0.26711530099E+02 -0.13006997720E+02  0.40380702661E+02  0.50132713644E+02  0.00000000000E+00 0.  1.
         22    1    3    3    0    0 -0.63205838276E+02 -0.21296677394E+01 -0.51270700903E+02  0.81413747291E+02  0.00000000000E+00 0.  1.
</event>
<event>
 7    1  0.5553952E-006  0.4595281E+02  0.7818608E-02  0.1487266E+00
          2   -1    0    0  502    0  0.00000000000E+00  0.00000000000E+00  0.49709858347E+03  0.49709858347E+03  0.00000000000E+00 0. -1.
          1   -1    0    0  501    0 -0.00000000000E+00 -0.00000000000E+00 -0.15185358290E+03  0.15185358290E+03  0.00000000000E+00 0. -1.
         25    2    1    2    0    0  0.33129124872E+02 -0.74664271828E+01  0.24662075022E+02  0.13185866132E+03  0.12500080869E+03 0.  0.
          2    1    1    2  501    0 -0.17214874945E+02 -0.36356527728E+02 -0.92771902971E+02  0.10111762956E+03  0.00000000000E+00 0. -1.
          1    1    1    2  502    0 -0.15914249927E+02  0.43822954910E+02  0.41335482852E+03  0.41597587549E+03  0.00000000000E+00 0. -1.
         22    1    3    3    0    0 -0.28161831112E+02  0.34307553459E+02 -0.16109082642E+02  0.47218635087E+02  0.00000000000E+00 0. -1.
         22    1    3    3    0    0  0.61290955984E+02 -0.41773980642E+02  0.40771157663E+02  0.84640026236E+02  0.00000000000E+00 0. -1.
</event>
<event>
 7    1  0.5553952E-006  0.5492502E+02  0.7818608E-02  0.1431322E+00
          2   -1    0    0  502    0  0.00000000000E+00  0.00000000000E+00  0.88651843989E+03  0.88651843989E+03  0.00000000000E+00 0. -1.
          1   -1    0    0  501    0 -0.00000000000E+00 -0.00000000000E+00 -0.26656569523E+03  0.26656569523E+03  0.00000000000E+00 0. -1.
         25    2    1    2    0    0 -0.84637633777E+01  0.10392921289E+02 -0.13144511709E+02  0.12640008638E+03  0.12499822217E+03 0.  0.
          2    1    1    2  501    0  0.29536304662E+02  0.41031325536E+02 -0.19259683056E+03  0.19912182730E+03  0.00000000000E+00 0. -1.
          1    1    1    2  502    0 -0.21072541285E+02 -0.51424246825E+02  0.82569408693E+03  0.82756222143E+03  0.00000000000E+00 0. -1.
         22    1    3    3    0    0  0.27178339157E+01 -0.33112569353E+02  0.43100268891E+02  0.54419316872E+02  0.00000000000E+00 0. -1.
         22    1    3    3    0    0 -0.11181597293E+02  0.43505490641E+02 -0.56244780600E+02  0.71980769507E+02  0.00000000000E+00 0. -1.
</event>
<event>
 7    1  0.5553952E-006  0.6426183E+02  0.7818608E-02  0.1513875E+00
          2   -1    0    0  502    0  0.00000000000E+00  0.00000000000E+00  0.26791517960E+03  0.26791517960E+03  0.00000000000E+00 0. -1.
          1   -1    0    0  501    0 -0.00000000000E+00 -0.00000000000E+00 -0.18828549099E+04  0.18828549099E+04  0.00000000000E+00 0. -1.
         25    2    1    2    0    0 -0.40893184124E+02  0.59092461292E+02  0.71792636072E+02  0.16106998011E+03  0.12500073763E+03 0.  0.
          2    1    1    2  501    0  0.51929892471E+02 -0.37823730922E+02 -0.18367035234E+04  0.18378267550E+04  0.00000000000E+00 0. -1.
          1    1    1    2  502    0 -0.11036708348E+02 -0.21268730370E+02  0.14997115707E+03  0.15187335439E+03  0.00000000000E+00 0. -1.
         22    1    3    3    0    0 -0.84388755742E+02  0.23126485210E+02  0.39029742834E+02  0.95810319066E+02  0.00000000000E+00 0. -1.
         22    1    3    3    0    0  0.43495571618E+02  0.35965976082E+02  0.32762893238E+02  0.65259661042E+02  0.00000000000E+00 0. -1.
</event>
<event>
 7    1  0.5553952E-006  0.6230229E+02  0.7818608E-02  0.1400428E+00
          2   -1    0    0  502    0  0.00000000000E+00  0.00000000000E+00  0.17583290797E+03  0.17583290797E+03  0.00000000000E+00 0. -1.
          1   -1    0    0  501    0 -0.00000000000E+00 -0.00000000000E+00 -0.29334031606E+03  0.29334031606E+03  0.00000000000E+00 0. -1.
         25    2    1    2    0    0 -0.11501679844E+02  0.22302368218E+02 -0.38908359424E+02  0.13329754446E+03  0.12499876263E+03 0.  0.
          2    1    1    2  501    0 -0.55137552525E+02 -0.12807605502E+02 -0.19410337225E+03  0.20218878202E+03  0.00000000000E+00 0. -1.
          1    1    1    2  502    0  0.66639232369E+02 -0.94947627160E+01  0.11550432358E+03  0.13368689754E+03  0.00000000000E+00 0. -1.
         22    1    3    3    0    0 -0.24679132390E+02 -0.17535621936E+02  0.36243728337E+02  0.47224627643E+02  0.00000000000E+00 0. -1.
         22    1    3    3    0    0  0.13177452546E+02  0.39837990154E+02 -0.75152087762E+02  0.86072916821E+02  0.00000000000E+00 0. -1.
</event>
<event>
 7    1  0.5553952E-006  0.1173889E+03  0.7818608E-02  0.1346101E+00
          2   -1    0    0  502    0  0.00000000000E+00  0.00000000000E+00  0.21894372011E+03  0.21894372011E+03  0.00000000000E+00 0. -1.
          1   -1    0    0  501    0 -0.00000000000E+00 -0.00000000000E+00 -0.49269991615E+03  0.49269991615E+03  0.00000000000E+00 0. -1.
         25    2    1    2    0    0 -0.11688632063E+03 -0.24039520305E+02  0.14744684974E+03  0.22716368656E+03  0.12498982560E+03 0.  0.
          2    1    1    2  501    0  0.49200738118E+00  0.47005254727E+02 -0.33387128979E+03  0.33716431334E+03  0.00000000000E+00 0. -1.
          1    1    1    2  502    0  0.11639431325E+03 -0.22965734422E+02 -0.87331755993E+02  0.14731563637E+03  0.00000000000E+00 0. -1.
         22    1    3    3    0    0 -0.18931114016E+02 -0.16246290807E+02  0.12353871170E+03  0.12603230669E+03  0.00000000000E+00 0.  1.
         22    1    3    3    0    0 -0.97955206612E+02 -0.77932294973E+01  0.23908138047E+02  0.10113137986E+03  0.00000000000E+00 0.  1.
</event>
<event>
 7    1  0.5553952E-006  0.9800802E+02  0.7818608E-02  0.1309642E+00
          2   -1    0    0  502    0  0.00000000000E+00  0.00000000000E+00  0.22613749108E+04  0.22613749108E+04  0.00000000000E+00 0. -1.
          1   -1    0    0  501    0 -0.00000000000E+00 -0.00000000000E+00 -0.29682926957E+03  0.29682926957E+03  0.00000000000E+00 0. -1.
         25    2    1    2    0    0 -0.92384238209E+01 -0.22905043254E+02  0.83345442298E+02  0.15225266817E+03  0.12499769091E+03 0.  0.
          2    1    1    2  501    0 -0.57002579664E+02 -0.52770656330E+02 -0.25541735764E+03  0.26696828059E+03  0.00000000000E+00 0. -1.
          1    1    1    2  502    0  0.66241003484E+02  0.75675699584E+02  0.21366175566E+04  0.21389832316E+04  0.00000000000E+00 0. -1.
         22    1    3    3    0    0 -0.78765491201E+01  0.51709923144E+02  0.40903244732E+02  0.66400539209E+02  0.00000000000E+00 0.  1.
         22    1    3    3    0    0 -0.13618747008E+01 -0.74614966398E+02  0.42442197565E+02  0.85852128963E+02  0.00000000000E+00 0.  1.
</event>
<event>
 7    1  0.5553952E-006  0.4006368E+02  0.7818608E-02  0.1600439E+00
          2   -1    0    0  502    0  0.00000000000E+00  0.00000000000E+00  0.11931421257E+04  0.11931421257E+04  0.00000000000E+00 0. -1.
          1   -1    0    0  501    0 -0.00000000000E+00 -0.00000000000E+00 -0.18502766868E+03  0.18502766868E+03  0.00000000000E+00 0. -1.
         25    2    1    2    0    0 -0.17858170224E+02  0.53312845275E+02  0.24825172556E+03  0.28358406080E+03  0.12501930484E+03 0.  0.
          2    1    1    2  501    0  0.20000320297E+00 -0.39943232136E+02 -0.16484368839E+03  0.16961410140E+03  0.00000000000E+00 0. -1.
          1    1    1    2  502    0  0.17658167021E+02 -0.13369613138E+02  0.92470641989E+03  0.92497163222E+03  0.00000000000E+00 0. -1.
         22    1    3    3    0    0  0.75605622815E+01  0.24462418940E+02 -0.61177513566E+01  0.26324872727E+02  0.00000000000E+00 0. -1.
         22    1    3    3    0    0 -0.25418732506E+02  0.28850426334E+02  0.25436947692E+03  0.25725918808E+03  0.00000000000E+00 0. -1.
</event>
<event>
 7    1  0.5553952E-006  0.8354550E+02  0.7818608E-02  0.1370582E+00
          2   -1    0    0  502    0  0.00000000000E+00  0.00000000000E+00  0.10676228027E+04  0.10676228027E+04  0.00000000000E+00 0. -1.
          1   -1    0    0  501    0 -0.00000000000E+00 -0.00000000000E+00 -0.85040057762E+03  0.85040057762E+03  0.00000000000E+00 0. -1.
         25    2    1    2    0    0  0.71601773418E+02 -0.42669791224E+01  0.65144913210E+03  0.66719983135E+03  0.12499848864E+03 0.  0.
          2    1    1    2  501    0 -0.67544447769E+02 -0.49320064196E+02 -0.83866792811E+03  0.84282774919E+03  0.00000000000E+00 0. -1.
          1    1    1    2  502    0 -0.40573256487E+01  0.53587043319E+02  0.40444102109E+03  0.40799579978E+03  0.00000000000E+00 0. -1.
         22    1    3    3    0    0  0.66643877010E+01 -0.58697856584E+02  0.28935731484E+03  0.29532610464E+03  0.00000000000E+00 0. -1.
         22    1    3    3    0    0  0.64937385717E+02  0.54430877461E+02  0.36209181726E+03  0.37187372670E+03  0.00000000000E+00 0. -1.
</event>
<event>
 7    1  0.5553952E-006  0.4525363E+02  0.7818608E-02  0.1530805E+00
          2   -1    0    0  502    0  0.00000000000E+00  0.00000000000E+00  0.28437875493E+03  0.28437875493E+03  0.00000000000E+00 0. -1.
          1   -1    0    0  501    0 -0.00000000000E+00 -0.00000000000E+00 -0.19608143814E+04  0.19608143814E+04  0.00000000000E+00 0. -1.
         25    2    1    2    0    0  0.35026595534E+02  0.63549937556E+02  0.93661712213E+02  0.17223043804E+03  0.12500140197E+03 0.  0.
          2    1    1    2  501    0 -0.19583758715E+02 -0.23245603250E+02 -0.19183316843E+04  0.19185724726E+04  0.00000000000E+00 0. -1.
          1    1    1    2  502    0 -0.15442836819E+02 -0.40304334305E+02  0.14823434560E+03  0.15439022569E+03  0.00000000000E+00 0. -1.
         22    1    3    3    0    0  0.43803487364E+02 -0.16967862182E+02  0.75979124929E+02  0.89327942310E+02  0.00000000000E+00 0.  1.
         22    1    3    3    0    0 -0.87768918301E+01  0.80517799738E+02  0.17682587283E+02  0.82902495727E+02  0.00000000000E+00 0.  1.
</event>
<event>
 7    1  0.5553952E-006  0.9071144E+02  0.7818608E-02  0.1341707E+00
          2   -1    0    0  502    0  0.00000000000E+00  0.00000000000E+00  0.25121419729E+04  0.25121419729E+04  0.00000000000E+00 0. -1.
          1   -1    0    0  501    0 -0.00000000000E+00 -0.00000000000E+00 -0.15856454652E+03  0.15856454652E+03  0.00000000000E+00 0. -1.
         25    2    1    2    0    0  0.71147497593E+02  0.13451363518E+03  0.54384850267E+03  0.57840607072E+03  0.12500601718E+03 0.  0.
          2    1    1    2  501    0 -0.38472386534E+02 -0.80441178713E+02 -0.12665023978E+03  0.15489090030E+03  0.00000000000E+00 0. -1.
          1    1    1    2  502    0 -0.32675111059E+02 -0.54072456468E+02  0.19363791635E+04  0.19374095484E+04  0.00000000000E+00 0. -1.
         22    1    3    3    0    0  0.29000327457E+02  0.14313294466E+03  0.47747913954E+03  0.49931391683E+03  0.00000000000E+00 0.  1.
         22    1    3    3    0    0  0.42147170136E+02 -0.86193094754E+01  0.66369363124E+02  0.79092153895E+02  0.00000000000E+00 0.  1.
</event>
<event>
 7    1  0.5553952E-006  0.6758751E+02  0.7818608E-02  0.1443684E+00
          2   -1    0    0  502    0  0.00000000000E+00  0.00000000000E+00  0.28302742446E+04  0.28302742446E+04  0.00000000000E+00 0. -1.
          1   -1    0    0  501    0 -0.00000000000E+00 -0.00000000000E+00 -0.61611452516E+03  0.61611452516E+03  0.00000000000E+00 0. -1.
         25    2    1    2    0    0 -0.20994253251E+02 -0.34405492399E+02  0.10606390487E+04  0.10687399930E+04  0.12500193787E+03 0.  0.
          2    1    1    2  501    0 -0.35496045401E+02 -0.11930110424E+02 -0.61073446491E+03  0.61188142921E+03  0.00000000000E+00 0. -1.
          1    1    1    2  502    0  0.56490298652E+02  0.46335602823E+02  0.17642551357E+04  0.17657673475E+04  0.00000000000E+00 0. -1.
         22    1    3    3    0    0 -0.27399965715E+02  0.30841732177E+02  0.14493959196E+03  0.15069656891E+03  0.00000000000E+00 0. -1.
         22    1    3    3    0    0  0.64057124640E+01 -0.65247224576E+02  0.91569945670E+03  0.91804342407E+03  0.00000000000E+00 0. -1.
</event>
<event>
 7    1  0.5553952E-006  0.7962140E+02  0.7818608E-02  0.1411570E+00
          2   -1    0    0  502    0  0.00000000000E+00  0.00000000000E+00  0.38764336504E+03  0.38764336504E+03  0.00000000000E+00 0. -1.
          1   -1    0    0  501    0 -0.00000000000E+00 -0.00000000000E+00 -0.64191765959E+03  0.64191765959E+03  0.00000000000E+00 0. -1.
         25    2    1    2    0    0  0.52403037313E+02 -0.32898169376E+02  0.11484913407E+03  0.18067799782E+03  0.12500338967E+03 0.  0.
          2    1    1    2  501    0 -0.37623493959E+02  0.70695286749E+02 -0.60462733100E+03  0.60990782931E+03  0.00000000000E+00 0. -1.
          1    1    1    2  502    0 -0.14779543354E+02 -0.37797117373E+02  0.23550390238E+03  0.23897519750E+03  0.00000000000E+00 0. -1.
         22    1    3    3    0    0  0.52199196162E+02 -0.36970479763E+02  0.14067361130E+03  0.15453361243E+03  0.00000000000E+00 0. -1.
         22    1    3    3    0    0  0.20384115083E+00  0.40723103873E+01 -0.25824477230E+02  0.26144385388E+02  0.00000000000E+00 0. -1.
</event>
<event>
 7    1  0.5553952E-006  0.7894890E+02  0.7818608E-02  0.1436345E+00
          2   -1    0    0  502    0  0.00000000000E+00  0.00000000000E+00  0.15370959726E+04  0.15370959726E+04  0.00000000000E+00 0. -1.
          1   -1    0    0  501    0 -0.00000000000E+00 -0.00000000000E+00 -0.19547659617E+04  0.19547659617E+04  0.00000000000E+00 0. -1.
         25    2    1    2    0    0 -0.22609933368E+02 -0.73318535849E+02  0.18799781133E+03  0.23843975012E+03  0.12499408221E+03 0.  0.
          2    1    1    2  501    0  0.53063562633E+02  0.58504972749E+02 -0.19285199000E+04  0.19301366735E+04  0.00000000000E+00 0. -1.
          1    1    1    2  502    0 -0.30453629266E+02  0.14813563100E+02  0.13228520996E+04  0.13232855107E+04  0.00000000000E+00 0. -1.
         22    1    3    3    0    0 -0.85271842333E+01  0.24735499202E+02  0.10796246011E+03  0.11108758069E+03  0.00000000000E+00 0. -1.
         22    1    3    3    0    0 -0.14082749134E+02 -0.98054035052E+02  0.80035351219E+02  0.12735216943E+03  0.00000000000E+00 0. -1.
</event>
<event>
 7    1  0.5553952E-006  0.6249252E+02  0.7818608E-02  0.1388806E+00
          2   -1    0    0  502    0  0.00000000000E+00  0.00000000000E+00  0.94410465304E+03  0.94410465304E+03  0.00000000000E+00 0. -1.
          1   -1    0    0  501    0 -0.00000000000E+00 -0.00000000000E+00 -0.32534199222E+03  0.32534199222E+03  0.00000000000E+00 0. -1.
         25    2    1    2    0    0 -0.38139717834E+02  0.13658899466E+02  0.51529650314E+02  0.14114617997E+03  0.12500294256E+03 0.  0.
          2    1    1    2  501    0  0.40987994205E+02  0.48768682211E+02 -0.27574547445E+03  0.28300877497E+03  0.00000000000E+00 0. -1.
          1    1    1    2  502    0 -0.28482763714E+01 -0.62427581677E+02  0.84297848495E+03  0.84529169032E+03  0.00000000000E+00 0. -1.
         22    1    3    3    0    0 -0.60246176560E+02  0.54115419419E+02  0.15076909545E+02  0.82373500656E+02  0.00000000000E+00 0.  1.
         22    1    3    3    0    0  0.22106458726E+02 -0.40456519953E+02  0.36452740769E+02  0.58772679314E+02  0.00000000000E+00 0.  1.
</event>
<event>
 7    1  0.5553952E-006  0.1703574E+03  0.7818608E-02  0.1276686E+00
          2   -1    0    0  502    0  0.00000000000E+00  0.00000000000E+00  0.23682416975E+04  0.23682416975E+04  0.00000000000E+00 0. -1.
          1   -1    0    0  501    0 -0.00000000000E+00 -0.00000000000E+00 -0.14080477170E+04  0.14080477170E+04  0.00000000000E+00 0. -1.
         25    2    1    2    0    0  0.11915592113E+03  0.71450268662E+02  0.96191644473E+03  0.97990406865E+03  0.12500185070E+03 0.  0.
          2    1    1    2  501    0  0.60655244453E+02  0.35045470703E+01 -0.13915980730E+04  0.13929237371E+04  0.00000000000E+00 0. -1.
          1    1    1    2  502    0 -0.17981116558E+03 -0.74954815732E+02  0.13898756087E+04  0.14034616088E+04  0.00000000000E+00 0. -1.
         22    1    3    3    0    0  0.12910281538E+03  0.72377983750E+02  0.60476360101E+03  0.62261153424E+03  0.00000000000E+00 0.  1.
         22    1    3    3    0    0 -0.99468942522E+01 -0.92771508838E+00  0.35715284372E+03  0.35729253440E+03  0.00000000000E+00 0.  1.
</event>
<event>
 7    1  0.5553952E-006  0.1366998E+03  0.7818608E-02  0.1279885E+00
          2   -1    0    0  502    0  0.00000000000E+00  0.00000000000E+00  0.14265182377E+04  0.14265182377E+04  0.00000000000E+00 0. -1.
          1   -1    0    0  501    0 -0.00000000000E+00 -0.00000000000E+00 -0.82317269009E+03  0.82317269009E+03  0.00000000000E+00 0. -1.
         25    2    1    2    0    0 -0.13771169956E+03  0.37673344514E+02 -0.20880595099E+03  0.28215041662E+03  0.12500055738E+03 0.  0.
          2    1    1    2  501    0  0.42036625979E+02  0.60219128621E+02 -0.57197077970E+03  0.57666627628E+03  0.00000000000E+00 0. -1.
          1    1    1    2  502    0  0.95675073576E+02 -0.97892473135E+02  0.13841222783E+04  0.13908742349E+04  0.00000000000E+00 0. -1.
         22    1    3    3    0    0 -0.47217223011E+02  0.77092238734E+02 -0.88192597287E+02  0.12629573880E+03  0.00000000000E+00 0.  1.
         22    1    3    3    0    0 -0.90494476544E+02 -0.39418894221E+02 -0.12061335371E+03  0.15585467782E+03  0.00000000000E+00 0.  1.
</event>
<event>
 7    1  0.5553952E-006  0.3125117E+02  0.7818608E-02  0.1641058E+00
          2   -1    0    0  502    0  0.00000000000E+00  0.00000000000E+00  0.62661146924E+03  0.62661146924E+03  0.00000000000E+00 0. -1.
          1   -1    0    0  501    0 -0.00000000000E+00 -0.00000000000E+00 -0.18282921890E+02  0.18282921890E+02  0.00000000000E+00 0. -1.
         25    2    1    2    0    0  0.14040331745E+02 -0.29001957191E+02  0.39229562068E+03  0.41298724871E+03  0.12499747659E+03 0.  0.
          2    1    1    2  501    0 -0.22299411974E+02 -0.18985907007E+01  0.12023131305E+02  0.25405198433E+02  0.00000000000E+00 0. -1.
          1    1    1    2  502    0  0.82590802289E+01  0.30900547892E+02  0.20400979537E+03  0.20650194399E+03  0.00000000000E+00 0. -1.
         22    1    3    3    0    0 -0.50445154510E+02  0.13020664587E+02  0.15517668418E+03  0.16368889588E+03  0.00000000000E+00 0.  1.
         22    1    3    3    0    0  0.64485486255E+02 -0.42022621778E+02  0.23711893650E+03  0.24929835283E+03  0.00000000000E+00 0.  1.
</event>
<event>
 7    1  0.5553952E-006  0.3986951E+02  0.7818608E-02  0.1537815E+00
          2   -1    0    0  502    0  0.00000000000E+00  0.00000000000E+00  0.56937549376E+01  0.56937549376E+01  0.00000000000E+00 0. -1.
          1   -1    0    0  501    0 -0.00000000000E+00 -0.00000000000E+00 -0.27239630755E+04  0.27239630755E+04  0.00000000000E+00 0. -1.
         25    2    1    2    0    0  0.35751396643E+02 -0.50767902762E+02 -0.20440558574E+04  0.20488174943E+04  0.12503293367E+03 0.  0.
          2    1    1    2  501    0 -0.30575278756E+02  0.12282303314E+02 -0.54303941457E+03  0.54403814978E+03  0.00000000000E+00 0. -1.
          1    1    1    2  502    0 -0.51761178869E+01  0.38485599448E+02 -0.13117404864E+03  0.13680118639E+03  0.00000000000E+00 0. -1.
         22    1    3    3    0    0 -0.31159347447E+02  0.23936896251E+02 -0.59156513406E+03  0.59286860920E+03  0.00000000000E+00 0.  1.
         22    1    3    3    0    0  0.66910744090E+02 -0.74704799014E+02 -0.14524907233E+04  0.14559488851E+04  0.00000000000E+00 0.  1.
</event>
<event>
 7    1  0.5553952E-006  0.4519222E+02  0.7818608E-02  0.1544906E+00
          2   -1    0    0  502    0  0.00000000000E+00  0.00000000000E+00  0.35261949252E+03  0.35261949252E+03  0.00000000000E+00 0. -1.
          1   -1    0    0  501    0 -0.00000000000E+00 -0.00000000000E+00 -0.10429104390E+04  0.10429104390E+04  0.00000000000E+00 0. -1.
         25    2    1    2    0    0 -0.62278292127E+01  0.31339856374E+02  0.90220987199E+01  0.12933480156E+03  0.12500048070E+03 0.  0.
          2    1    1    2  501    0 -0.19890170479E+02 -0.40745928808E+02 -0.98154978187E+03  0.98259647052E+03  0.00000000000E+00 0. -1.
          1    1    1    2  502    0  0.26117999692E+02  0.94060724338E+01  0.28223673667E+03  0.28359865943E+03  0.00000000000E+00 0. -1.
         22    1    3    3    0    0  0.58720253927E+02  0.83278813530E+01 -0.30264236273E+01  0.59385023946E+02  0.00000000000E+00 0.  1.
         22    1    3    3    0    0 -0.64948083140E+02  0.23011975021E+02  0.12048522347E+02  0.69949777617E+02  0.00000000000E+00 0.  1.
</event>
<event>
 7    1  0.5553952E-006  0.9920287E+02  0.7818608E-02  0.1297522E+00
          2   -1    0    0  502    0  0.00000000000E+00  0.00000000000E+00  0.44465470737E+03  0.44465470737E+03  0.00000000000E+00 0. -1.
          1   -1    0    0  501    0 -0.00000000000E+00 -0.00000000000E+00 -0.34960028528E+03  0.34960028528E+03  0.00000000000E+00 0. -1.
         25    2    1    2    0    0  0.10281833274E+03  0.13491000422E+02 -0.18400335984E+03  0.24542980747E+03  0.12499974927E+03 0.  0.
          2    1    1    2  501    0 -0.48590731185E+02  0.70667269666E+02 -0.11431705887E+03  0.14291015397E+03  0.00000000000E+00 0. -1.
          1    1    1    2  502    0 -0.54227601560E+02 -0.84158270089E+02  0.39337484080E+03  0.40591503122E+03  0.00000000000E+00 0. -1.
         22    1    3    3    0    0  0.11914857800E+03  0.81980374560E+01 -0.19229574024E+03  0.22636528703E+03  0.00000000000E+00 0.  1.
         22    1    3    3    0    0 -0.16330245251E+02  0.52929629664E+01  0.82923803961E+01  0.19064520439E+02  0.00000000000E+00 0.  1.
</event>
<event>
 7    1  0.5553952E-006  0.4357412E+02  0.7818608E-02  0.1535288E+00
          2   -1    0    0  502    0  0.00000000000E+00  0.00000000000E+00  0.11671919832E+04  0.11671919832E+04  0.00000000000E+00 0. -1.
          1   -1    0    0  501    0 -0.00000000000E+00 -0.00000000000E+00 -0.83165862074E+03  0.83165862074E+03  0.00000000000E+00 0. -1.
         25    2    1    2    0    0  0.65964554888E+02 -0.23890683406E+02 -0.16003066870E+01  0.14336392615E+03  0.12501426752E+03 0.  0.
          2    1    1    2  501    0 -0.43236072807E+02  0.33263373429E+01 -0.75834274137E+03  0.75958155315E+03  0.00000000000E+00 0. -1.
          1    1    1    2  502    0 -0.22728482081E+02  0.20564346063E+02  0.10954764105E+04  0.10959051246E+04  0.00000000000E+00 0. -1.
         22    1    3    3    0    0  0.44634740445E+02  0.36226704919E+02  0.37414765964E+02  0.68589349873E+02  0.00000000000E+00 0. -1.
         22    1    3    3    0    0  0.21329814443E+02 -0.60117388325E+02 -0.39015072651E+02  0.74774576276E+02  0.00000000000E+00 0. -1.
</event>
<event>
 7    1  0.5553952E-006  0.5595664E+02  0.7818608E-02  0.1531410E+00
          2   -1    0    0  502    0  0.00000000000E+00  0.00000000000E+00  0.88078279552E+03  0.88078279552E+03  0.00000000000E+00 0. -1.
          1   -1    0    0  501    0 -0.00000000000E+00 -0.00000000000E+00 -0.63062321487E+03  0.63062321487E+03  0.00000000000E+00 0. -1.
         25    2    1    2    0    0 -0.93686158851E+01 -0.39883440071E+02 -0.43626011450E+03  0.45565996981E+03  0.12499864329E+03 0.  0.
          2    1    1    2  501    0  0.81984205538E+01  0.64339331189E+02 -0.17878946408E+03  0.19019052580E+03  0.00000000000E+00 0. -1.
          1    1    1    2  502    0  0.11701953314E+01 -0.24455891117E+02  0.86520915922E+03  0.86555551478E+03  0.00000000000E+00 0. -1.
         22    1    3    3    0    0 -0.19550377983E+01  0.38502913907E+02 -0.60500657166E+02  0.71739989334E+02  0.00000000000E+00 0. -1.
         22    1    3    3    0    0 -0.74135780868E+01 -0.78386353979E+02 -0.37575945733E+03  0.38391998047E+03  0.00000000000E+00 0. -1.
</event>
<event>
 7    1  0.5553952E-006  0.8181043E+02  0.7818608E-02  0.1426665E+00
          2   -1    0    0  502    0  0.00000000000E+00  0.00000000000E+00  0.58189941248E+03  0.58189941248E+03  0.00000000000E+00 0. -1.
          1   -1    0    0  501    0 -0.00000000000E+00 -0.00000000000E+00 -0.16163875433E+03  0.16163875433E+03  0.00000000000E+00 0. -1.
         25    2    1    2    0    0  0.67112811740E+02  0.50109380828E+02  0.76084392719E+02  0.16860867153E+03  0.12499987901E+03 0.  0.
          2    1    1    2  501    0 -0.27491619883E+02  0.21924618680E+02 -0.10890956976E+03  0.11444549993E+03  0.00000000000E+00 0. -1.
          1    1    1    2  502    0 -0.39621191858E+02 -0.72033999509E+02  0.45308583519E+03  0.46048399536E+03  0.00000000000E+00 0. -1.
         22    1    3    3    0    0  0.61872991432E+01 -0.36103963643E+02  0.46067876363E+02  0.58855994546E+02  0.00000000000E+00 0.  1.
         22    1    3    3    0    0  0.60925512597E+02  0.86213344471E+02  0.30016516356E+02  0.10975267698E+03  0.00000000000E+00 0.  1.
</event>
<event>
 7    1  0.5553952E-006  0.5062184E+02  0.7818608E-02  0.1443149E+00
          2   -1    0    0  502    0  0.00000000000E+00  0.00000000000E+00  0.87387473535E+03  0.87387473535E+03  0.00000000000E+00 0. -1.
          1   -1    0    0  501    0 -0.00000000000E+00 -0.00000000000E+00 -0.32573266696E+03  0.32573266696E+03  0.00000000000E+00 0. -1.
         25    2    1    2    0    0  0.39738704311E+02 -0.11797928885E+02  0.26141841045E+03  0.29271630800E+03  0.12499958359E+03 0.  0.
          2    1    1    2  501    0 -0.75421796116E+01  0.50308667524E+02 -0.30693095325E+03  0.31111807496E+03  0.00000000000E+00 0. -1.
          1    1    1    2  502    0 -0.32196524699E+02 -0.38510738638E+02  0.59365461119E+03  0.59577301935E+03  0.00000000000E+00 0. -1.
         22    1    3    3    0    0  0.66657047609E+02 -0.41281797644E+02  0.22646622290E+03  0.23965454081E+03  0.00000000000E+00 0.  1.
         22    1    3    3    0    0 -0.26918343298E+02  0.29483868758E+02  0.34952187547E+02  0.53061767189E+02  0.00000000000E+00 0.  1.
</event>
<event>
 7    1  0.5553952E-006  0.7806089E+02  0.7818608E-02  0.1357698E+00
          2   -1    0    0  502    0  0.00000000000E+00  0.00000000000E+00  0.21661594453E+03  0.21661594453E+03  0.00000000000E+00 0. -1.
          1   -1    0    0  501    0 -0.00000000000E+00 -0.00000000000E+00 -0.13925142417E+03  0.13925142417E+03  0.00000000000E+00 0. -1.
         25    2    1    2    0    0  0.43975920337E+02  0.11538077857E+02  0.84751492533E+01  0.13328062051E+03  0.12499954736E+03 0.  0.
          2    1    1    2  501    0 -0.60856403544E+01 -0.79786373524E+02 -0.39322209569E+02  0.89157930573E+02  0.00000000000E+00 0. -1.
          1    1    1    2  502    0 -0.37890279982E+02  0.68248295668E+02  0.10821158068E+03  0.13342881762E+03  0.00000000000E+00 0. -1.
         22    1    3    3    0    0 -0.35237890098E+02  0.33405506807E+02 -0.86986951830E+01  0.49328532124E+02  0.00000000000E+00 0. -1.
         22    1    3    3    0    0  0.79213810434E+02 -0.21867428951E+02  0.17173844436E+02  0.83952088391E+02  0.00000000000E+00 0. -1.
</event>
<event>
 7    1  0.5553952E-006  0.8873188E+02  0.7818608E-02  0.1491733E+00
          2   -1    0    0  502    0  0.00000000000E+00  0.00000000000E+00  0.12299157118E+04  0.12299157118E+04  0.00000000000E+00 0. -1.
          1   -1    0    0  501    0 -0.00000000000E+00 -0.00000000000E+00 -0.58406667085E+03  0.58406667085E+03  0.00000000000E+00 0. -1.
         25    2    1    2    0    0  0.54578562662E+02 -0.75101677654E+02  0.30181052129E+03  0.33960750097E+03  0.12499832985E+03 0.  0.
          2    1    1    2  501    0  0.11692005509E+02  0.16464683748E+02 -0.56283367917E+03  0.56319582670E+03  0.00000000000E+00 0. -1.
          1    1    1    2  502    0 -0.66270568171E+02  0.58636993906E+02  0.90687219877E+03  0.91117905494E+03  0.00000000000E+00 0. -1.
         22    1    3    3    0    0  0.65876227879E+02 -0.64108835497E+02  0.30892666612E+03  0.32231243418E+03  0.00000000000E+00 0.  1.
         22    1    3    3    0    0 -0.11297665217E+02 -0.10992842157E+02 -0.71161448273E+01  0.17295066789E+02  0.00000000000E+00 0.  1.
</event>
<event>
 7    1  0.5553952E-006  0.8182414E+02  0.7818608E-02  0.1406850E+00
          2   -1    0    0  502    0  0.00000000000E+00  0.00000000000E+00  0.32750708445E+03  0.32750708445E+03  0.00000000000E+00 0. -1.
          1   -1    0    0  501    0 -0.00000000000E+00 -0.00000000000E+00 -0.74246516280E+03  0.74246516280E+03  0.00000000000E+00 0. -1.
         25    2    1    2    0    0 -0.12052505879E+02 -0.96595330710E+02 -0.59419679348E+01  0.15853971404E+03  0.12499445240E+03 0.  0.
          2    1    1    2  501    0  0.42771875070E+02  0.69480062020E+02 -0.65600933828E+03  0.66106366125E+03  0.00000000000E+00 0. -1.
          1    1    1    2  502    0 -0.30719369191E+02  0.27115268690E+02  0.24699322786E+03  0.25036887196E+03  0.00000000000E+00 0. -1.
         22    1    3    3    0    0  0.42417808239E+02 -0.49396950690E+01  0.22392463984E+02  0.48219223205E+02  0.00000000000E+00 0. -1.
         22    1    3    3    0    0 -0.54470314118E+02 -0.91655635641E+02 -0.28334431919E+02  0.11032049083E+03  0.00000000000E+00 0. -1.
</event>
<event>
 7    1  0.5553952E-006  0.7392414E+02  0.7818608E-02  0.1381581E+00
          2   -1    0    0  502    0  0.00000000000E+00  0.00000000000E+00  0.23182940955E+04  0.23182940955E+04  0.00000000000E+00 0. -1.
          1   -1    0    0  501    0 -0.00000000000E+00 -0.00000000000E+00 -0.15873532761E+02  0.15873532761E+02  0.00000000000E+00 0. -1.
         25    2    1    2    0    0  0.10290503739E+03 -0.51862314166E+02  0.10402939733E+04  0.10540945518E+04  0.12499850752E+03 0.  0.
          2    1    1    2  501    0 -0.47436982452E+02  0.50139503416E+02  0.13537784489E+03  0.15195854038E+03  0.00000000000E+00 0. -1.
          1    1    1    2  502    0 -0.55468054941E+02  0.17228107499E+01  0.11267487445E+04  0.11281145361E+04  0.00000000000E+00 0. -1.
         22    1    3    3    0    0  0.81890994745E+02  0.26869099204E+01  0.87386555261E+03  0.87769833004E+03  0.00000000000E+00 0. -1.
         22    1    3    3    0    0  0.21014042648E+02 -0.54549224086E+02  0.16642842065E+03  0.17639622172E+03  0.00000000000E+00 0. -1.
</event>
<event>
 7    1  0.5553952E-006  0.1180869E+03  0.7818608E-02  0.1281323E+00
          2   -1    0    0  502    0  0.00000000000E+00  0.00000000000E+00  0.46832190127E+03  0.46832190127E+03  0.00000000000E+00 0. -1.
          1   -1    0    0  501    0 -0.00000000000E+00 -0.00000000000E+00 -0.33175010838E+04  0.33175010838E+04  0.00000000000E+00 0. -1.
         25    2    1    2    0    0 -0.12000223284E+03  0.32492579640E+02 -0.94815623595E+02  0.20018037634E+03  0.12500350785E+03 0.  0.
          2    1    1    2  501    0  0.11879112643E+02 -0.83014966697E+02 -0.31608684889E+04  0.31619807403E+04  0.00000000000E+00 0. -1.
          1    1    1    2  502    0  0.10812312020E+03  0.50522387057E+02  0.40650492994E+03  0.42366186845E+03  0.00000000000E+00 0. -1.
         22    1    3    3    0    0 -0.18840961700E+02 -0.17944775032E+02 -0.82462087711E+02  0.86469605633E+02  0.00000000000E+00 0.  1.
         22    1    3    3    0    0 -0.10116127114E+03  0.50437354672E+02 -0.12353535884E+02  0.11371077070E+03  0.00000000000E+00 0.  1.
</event>
<event>
 7    1  0.5553952E-006  0.6100942E+02  0.7818608E-02  0.1523351E+00
          2   -1    0    0  502    0  0.00000000000E+00  0.00000000000E+00  0.27577285151E+04  0.27577285151E+04  0.00000000000E+00 0. -1.
          1   -1    0    0  501    0 -0.00000000000E+00 -0.00000000000E+00 -0.16865893554E+02  0.16865893554E+02  0.00000000000E+00 0. -1.
         25    2    1    2    0    0 -0.44171353667E+02 -0.37201212186E+02  0.52050462596E+03  0.53841141319E+03  0.12500698196E+03 0.  0.
          2    1    1    2  501    0  0.16102473530E+02 -0.17371673647E+02  0.11249783860E+02  0.26222553956E+02  0.00000000000E+00 0. -1.
          1    1    1    2  502    0  0.28068880137E+02  0.54572885833E+02  0.22091082117E+04  0.22099604415E+04  0.00000000000E+00 0. -1.
         22    1    3    3    0    0 -0.44357620016E+02  0.11437184770E+02  0.45244644491E+03  0.45475948935E+03  0.00000000000E+00 0. -1.
         22    1    3    3    0    0  0.18626634893E+00 -0.48638396956E+02  0.68058181049E+02  0.83651923835E+02  0.00000000000E+00 0. -1.
</event>
<event>
 7    1  0.5553952E-006  0.1099885E+03  0.7818608E-02  0.1362506E+00
          2   -1    0    0  502    0  0.00000000000E+00  0.00000000000E+00  0.15760623800E+04  0.15760623800E+04  0.00000000000E+00 0. -1.
          1   -1    0    0  501    0 -0.00000000000E+00 -0.00000000000E+00 -0.42095240083E+03  0.42095240083E+03  0.00000000000E+00 0. -1.
         25    2    1    2    0    0  0.44687639031E+02  0.89055491938E+02 -0.83284035788E+02  0.18025640465E+03  0.12501309961E+03 0.  0.
          2    1    1    2  501    0 -0.85909788022E+02 -0.74677800042E+02 -0.27765411322E+03  0.30008177566E+03  0.00000000000E+00 0. -1.
          1    1    1    2  502    0  0.41222148991E+02 -0.14377691896E+02  0.15160481281E+04  0.15166766005E+04  0.00000000000E+00 0. -1.
         22    1    3    3    0    0 -0.11057955061E+02 -0.42893961979E+01  0.24463156792E+02  0.27186822729E+02  0.00000000000E+00 0.  1.
         22    1    3    3    0    0  0.55745594092E+02  0.93344888136E+02 -0.10774719258E+03  0.15306958192E+03  0.00000000000E+00 0.  1.
</event>
<event>
 7    1  0.5553952E-006  0.3095967E+02  0.7818608E-02  0.1593799E+00
          2   -1    0    0  502    0  0.00000000000E+00  0.00000000000E+00  0.13191466646E+04  0.13191466646E+04  0.00000000000E+00 0. -1.
          1   -1    0    0  501    0 -0.00000000000E+00 -0.00000000000E+00 -0.98815504261E+01  0.98815504261E+01  0.00000000000E+00 0. -1.
         25    2    1    2    0    0  0.13391427085E+02  0.13407106535E+02  0.48128148350E+03  0.49761697880E+03  0.12502683872E+03 0.  0.
          2    1    1    2  501    0 -0.43219552550E+02 -0.14003836397E+02  0.52519986368E+03  0.52716120302E+03  0.00000000000E+00 0. -1.
          1    1    1    2  502    0  0.29828125465E+02  0.59672986148E+00  0.30278376698E+03  0.30425003320E+03  0.00000000000E+00 0. -1.
         22    1    3    3    0    0 -0.17377135707E+02 -0.51419921884E+02  0.22754238842E+03  0.23392629553E+03  0.00000000000E+00 0.  1.
         22    1    3    3    0    0  0.30768562792E+02  0.64827028420E+02  0.25373909509E+03  0.26369068327E+03  0.00000000000E+00 0.  1.
</event>
<event>
 7    1  0.5553952E-006  0.4097838E+02  0.7818608E-02  0.1542984E+00
          2   -1    0    0  502    0  0.00000000000E+00  0.00000000000E+00  0.94554187859E+03  0.94554187859E+03  0.00000000000E+00 0. -1.
          1   -1    0    0  501    0 -0.00000000000E+00 -0.00000000000E+00 -0.87687817157E+02  0.87687817157E+02  0.00000000000E+00 0. -1.
         25    2    1    2    0    0 -0.10444338567E+02  0.67795398690E+01  0.29141427717E+03  0.31733695522E+03  0.12500166335E+03 0.  0.
          2    1    1    2  501    0  0.20667445015E+02 -0.36043492129E+02 -0.68543702690E+02  0.80153077213E+02  0.00000000000E+00 0. -1.
          1    1    1    2  502    0 -0.10223106448E+02  0.29263952260E+02  0.63498348696E+03  0.63573966332E+03  0.00000000000E+00 0. -1.
         22    1    3    3    0    0 -0.64489391537E+02 -0.56959337551E+01  0.11004892476E+03  0.12767964256E+03  0.00000000000E+00 0.  1.
         22    1    3    3    0    0  0.54045052969E+02  0.12475473624E+02  0.18136535240E+03  0.18965731266E+03  0.00000000000E+00 0.  1.
</event>
<event>
 7    1  0.5553952E-006  0.8469385E+02  0.7818608E-02  0.1350572E+00
          2   -1    0    0  502    0  0.00000000000E+00  0.00000000000E+00  0.46255343858E+02  0.46255343858E+02  0.00000000000E+00 0. -1.
          1   -1    0    0  501    0 -0.00000000000E+00 -0.00000000000E+00 -0.19396178177E+04  0.19396178177E+04  0.00000000000E+00 0. -1.
         25    2    1    2    0    0 -0.10129103455E+03 -0.24859887674E+02 -0.92508568487E+03  0.93929938109E+03  0.12498766049E+03 0.  0.
          2    1    1    2  501    0  0.53053931980E+02  0.64931829034E+02 -0.97931612765E+03  0.98289925221E+03  0.00000000000E+00 0. -1.
          1    1    1    2  502    0  0.48237102566E+02 -0.40071941361E+02  0.11039338690E+02  0.63674528244E+02  0.00000000000E+00 0. -1.
         22    1    3    3    0    0 -0.30359844189E+02 -0.31434236072E+02 -0.79511249549E+02  0.90729654146E+02  0.00000000000E+00 0.  1.
         22    1    3    3    0    0 -0.70931190357E+02  0.65743483985E+01 -0.84557443532E+03  0.84856972694E+03  0.00000000000E+00 0.  1.
</event>
<event>
 7    1  0.5553952E-006  0.2127041E+03  0.7818608E-02  0.1179615E+00
          2   -1    0    0  502    0  0.00000000000E+00  0.00000000000E+00  0.77167854086E+03  0.77167854086E+03  0.00000000000E+00 0. -1.
          1   -1    0    0  501    0 -0.00000000000E+00 -0.00000000000E+00 -0.89990091595E+03  0.89990091595E+03  0.00000000000E+00 0. -1.
         25    2    1    2    0    0  0.28875245423E+03  0.63568096197E+02 -0.20112159789E+03  0.37880641866E+03  0.12500209201E+03 0.  0.
          2    1    1    2  501    0 -0.16521321750E+03 -0.11334992156E+03 -0.58664411577E+03  0.61991526075E+03  0.00000000000E+00 0. -1.
          1    1    1    2  502    0 -0.12353923673E+03  0.49781825359E+02  0.65954333856E+03  0.67285777739E+03  0.00000000000E+00 0. -1.
         22    1    3    3    0    0  0.14015182587E+03  0.91051119935E+02 -0.13025670691E+03  0.21189537615E+03  0.00000000000E+00 0. -1.
         22    1    3    3    0    0  0.14860062836E+03 -0.27483023738E+02 -0.70864890977E+02  0.16691104252E+03  0.00000000000E+00 0. -1.
</event>
<event>
 7    1  0.5553952E-006  0.8016785E+02  0.7818608E-02  0.1346291E+00
          2   -1    0    0  502    0  0.00000000000E+00  0.00000000000E+00  0.14582634854E+04  0.14582634854E+04  0.00000000000E+00 0. -1.
          1   -1    0    0  501    0 -0.00000000000E+00 -0.00000000000E+00 -0.19150940844E+02  0.19150940844E+02  0.00000000000E+00 0. -1.
         25    2    1    2    0    0 -0.75517252318E+02  0.57560989128E+01  0.43059595203E+03  0.45472888822E+03  0.12501799792E+03 0.  0.
          2    1    1    2  501    0  0.78775012777E+02  0.62887448810E+02  0.61898872587E+03  0.62714222997E+03  0.00000000000E+00 0. -1.
          1    1    1    2  502    0 -0.32577604584E+01 -0.68643547723E+02  0.38952786667E+03  0.39554330808E+03  0.00000000000E+00 0. -1.
         22    1    3    3    0    0 -0.33301545415E+02 -0.31009833907E+01  0.14584585610E+02  0.36487246572E+02  0.00000000000E+00 0. -1.
         22    1    3    3    0    0 -0.42215706904E+02  0.88570823035E+01  0.41601136642E+03  0.41824164165E+03  0.00000000000E+00 0. -1.
</event>
<event>
 7    1  0.5553952E-006  0.9371079E+02  0.7818608E-02  0.1415053E+00
          2   -1    0    0  502    0  0.00000000000E+00  0.00000000000E+00  0.16489467375E+03  0.16489467375E+03  0.00000000000E+00 0. -1.
          1   -1    0    0  501    0 -0.00000000000E+00 -0.00000000000E+00 -0.12667159476E+04  0.12667159476E+04  0.00000000000E+00 0. -1.
         25    2    1    2    0    0 -0.10463610820E+03  0.19720884190E+02 -0.85003711687E+02  0.18490136226E+03  0.12500101740E+03 0.  0.
          2    1    1    2  501    0  0.23201892039E+02  0.24250531052E+02 -0.11128409539E+04  0.11133469381E+04  0.00000000000E+00 0. -1.
          1    1    1    2  502    0  0.81434216166E+02 -0.43971415242E+02  0.96023391646E+02  0.13336232101E+03  0.00000000000E+00 0. -1.
         22    1    3    3    0    0 -0.98800833076E+02  0.51323517778E+02 -0.99803226564E+02  0.14952054082E+03  0.00000000000E+00 0.  1.
         22    1    3    3    0    0 -0.58352751287E+01 -0.31602633588E+02  0.14799514876E+02  0.35380821445E+02  0.00000000000E+00 0.  1.
</event>
<event>
 7    1  0.5553952E-006  0.5271703E+02  0.7818608E-02  0.1517856E+00
          2   -1    0    0  502    0  0.00000000000E+00  0.00000000000E+00  0.17268144635E+04  0.17268144635E+04  0.00000000000E+00 0. -1.
          1   -1    0    0  501    0 -0.00000000000E+00 -0.00000000000E+00 -0.35472536393E+02  0.35472536393E+02  0.00000000000E+00 0. -1.
         25    2    1    2    0    0  0.24474885660E+02  0.24320946528E+02  0.45838321936E+03  0.47637166526E+03  0.12499703677E+03 0.  0.
          2    1    1    2  501    0 -0.80488098519E+01  0.27274978667E+02 -0.18084420391E+02  0.33700950465E+02  0.00000000000E+00 0. -1.
          1    1    1    2  502    0 -0.16426075808E+02 -0.51595925195E+02  0.12510431282E+04  0.12522143842E+04  0.00000000000E+00 0. -1.
         22    1    3    3    0    0 -0.23572019808E+01  0.31351614798E+02  0.44402718563E+03  0.44513887915E+03  0.00000000000E+00 0. -1.
         22    1    3    3    0    0  0.26832087641E+02 -0.70306682704E+01  0.14356033726E+02  0.31232786104E+02  0.00000000000E+00 0. -1.
</event>
<event>
 7    1  0.5553952E-006  0.4884697E+02  0.7818608E-02  0.1505035E+00
          2   -1    0    0  502    0  0.00000000000E+00  0.00000000000E+00  0.79273407822E+03  0.79273407822E+03  0.00000000000E+00 0. -1.
          1   -1    0    0  501    0 -0.00000000000E+00 -0.00000000000E+00 -0.77889113559E+03  0.77889113559E+03  0.00000000000E+00 0. -1.
         25    2    1    2    0    0  0.30322432992E+00 -0.22946331398E+02 -0.10770394219E+03  0.16659564405E+03  0.12500937319E+03 0.  0.
          2    1    1    2  501    0  0.27537888039E+02  0.41526510552E+02 -0.64040616703E+03  0.64234168877E+03  0.00000000000E+00 0. -1.
          1    1    1    2  502    0 -0.27841112369E+02 -0.18580179154E+02  0.76195305185E+03  0.76268788100E+03  0.00000000000E+00 0. -1.
         22    1    3    3    0    0  0.82615063125E+00 -0.72620504600E+02 -0.40914147081E+02  0.83356989177E+02  0.00000000000E+00 0. -1.
         22    1    3    3    0    0 -0.52292630134E+00  0.49674173203E+02 -0.66789795105E+02  0.83238654875E+02  0.00000000000E+00 0. -1.
</event>
<event>
 7    1  0.5553952E-006  0.1860296E+03  0.7818608E-02  0.1299395E+00
          2   -1    0    0  502    0  0.00000000000E+00  0.00000000000E+00  0.71454450909E+03  0.71454450909E+03  0.00000000000E+00 0. -1.
          1   -1    0    0  501    0 -0.00000000000E+00 -0.00000000000E+00 -0.22415644765E+04  0.22415644765E+04  0.00000000000E+00 0. -1.
         25    2    1    2    0    0  0.20315486145E+02  0.21906102009E+03 -0.24914436314E+03  0.35510400035E+03  0.12500195151E+03 0.  0.
          2    1    1    2  501    0  0.68608354331E+01 -0.18325852852E+03 -0.19343349449E+04  0.19430086048E+04  0.00000000000E+00 0. -1.
          1    1    1    2  502    0 -0.27176321578E+02 -0.35802491563E+02  0.65645934059E+03  0.65799638047E+03  0.00000000000E+00 0. -1.
         22    1    3    3    0    0  0.36446306623E+02  0.31585355207E+02 -0.74539601945E+01  0.48800916514E+02  0.00000000000E+00 0. -1.
         22    1    3    3    0    0 -0.16130820477E+02  0.18747566488E+03 -0.24169040294E+03  0.30630308383E+03  0.00000000000E+00 0. -1.
</event>
<event>
 7    1  0.5553952E-006  0.5437526E+02  0.7818608E-02  0.1539699E+00
          2   -1    0    0  502    0  0.00000000000E+00  0.00000000000E+00  0.19711431969E+04  0.19711431969E+04  0.00000000000E+00 0. -1.
          1   -1    0    0  501    0 -0.00000000000E+00 -0.00000000000E+00 -0.10254963282E+03  0.10254963282E+03  0.00000000000E+00 0. -1.
         25    2    1    2    0    0  0.45882153982E+02  0.48573824696E+02  0.14783139167E+03  0.20480190941E+03  0.12500045294E+03 0.  0.
          2    1    1    2  501    0 -0.23843939505E+02  0.99784443294E+00 -0.71720875492E+02  0.75587122752E+02  0.00000000000E+00 0. -1.
          1    1    1    2  502    0 -0.22038214477E+02 -0.49571669129E+02  0.17924830479E+04  0.17933037976E+04  0.00000000000E+00 0. -1.
         22    1    3    3    0    0  0.56566594561E+02 -0.23466539105E+02  0.35084661734E+02  0.70578973971E+02  0.00000000000E+00 0.  1.
         22    1    3    3    0    0 -0.10684440580E+02  0.72040363801E+02  0.11274672993E+03  0.13422293544E+03  0.00000000000E+00 0.  1.
</event>
<event>
 7    1  0.5553952E-006  0.8490979E+02  0.7818608E-02  0.1473297E+00
          2   -1    0    0  502    0  0.00000000000E+00  0.00000000000E+00  0.36080844431E+03  0.36080844431E+03  0.00000000000E+00 0. -1.
          1   -1    0    0  501    0 -0.00000000000E+00 -0.00000000000E+00 -0.70735567463E+03  0.70735567463E+03  0.00000000000E+00 0. -1.
         25    2    1    2    0    0 -0.99371973567E+02 -0.19974166590E+02  0.18493536456E+02  0.16198122223E+03  0.12498859549E+03 0.  0.
          2    1    1    2  501    0  0.21589181589E+02 -0.10545224729E+02 -0.62892616853E+03  0.62938495373E+03  0.00000000000E+00 0. -1.
          1    1    1    2  502    0  0.77782791978E+02  0.30519391320E+02  0.26388540175E+03  0.27679794297E+03  0.00000000000E+00 0. -1.
         22    1    3    3    0    0 -0.10719913253E+03 -0.58143755162E+02  0.14611804916E+02  0.12282448910E+03  0.00000000000E+00 0.  1.
         22    1    3    3    0    0  0.78271589669E+01  0.38169588571E+02  0.38817315397E+01  0.39156733124E+02  0.00000000000E+00 0.  1.
</event>
<event>
 7    1  0.5553952E-006  0.9259240E+02  0.7818608E-02  0.1412114E+00
          2   -1    0    0  502    0  0.00000000000E+00  0.00000000000E+00  0.76090995992E+03  0.76090995992E+03  0.00000000000E+00 0. -1.
          1   -1    0    0  501    0 -0.00000000000E+00 -0.00000000000E+00 -0.20434624612E+03  0.20434624612E+03  0.00000000000E+00 0. -1.
         25    2    1    2    0    0  0.11417770877E+03 -0.28482126325E+02  0.21790117890E+03  0.27740579709E+03  0.12500108717E+03 0.  0.
          2    1    1    2  501    0 -0.24720351465E+02  0.24424257879E+02 -0.16890552169E+03  0.17244336870E+03  0.00000000000E+00 0. -1.
          1    1    1    2  502    0 -0.89457357305E+02  0.40578684458E+01  0.50756805659E+03  0.51540704026E+03  0.00000000000E+00 0. -1.
         22    1    3    3    0    0  0.73584009838E+02  0.13575876644E+02  0.29988155364E+02  0.80611416019E+02  0.00000000000E+00 0.  1.
         22    1    3    3    0    0  0.40593698932E+02 -0.42058002969E+02  0.18791302353E+03  0.19679438107E+03  0.00000000000E+00 0.  1.
</event>
<event>
 7    1  0.5553952E-006  0.6789083E+02  0.7818608E-02  0.1374748E+00
          2   -1    0    0  502    0  0.00000000000E+00  0.00000000000E+00  0.29321777327E+04  0.29321777327E+04  0.00000000000E+00 0. -1.
          1   -1    0    0  501    0 -0.00000000000E+00 -0.00000000000E+00 -0.53749368315E+02  0.53749368315E+02  0.00000000000E+00 0. -1.
         25    2    1    2    0    0 -0.61688319280E+02 -0.14710189915E+02  0.10328521681E+04  0.10423195400E+04  0.12499833550E+03 0.  0.
          2    1    1    2  501    0  0.44674633101E+02 -0.51120856801E+02 -0.24589148525E+02  0.72206586042E+02  0.00000000000E+00 0. -1.
          1    1    1    2  502    0  0.17013686179E+02  0.65831046715E+02  0.18701653448E+04  0.18714009750E+04  0.00000000000E+00 0. -1.
         22    1    3    3    0    0 -0.29175120133E+02 -0.30633063442E+02  0.96034938329E+03  0.96128066151E+03  0.00000000000E+00 0.  1.
         22    1    3    3    0    0 -0.32513199147E+02  0.15922873527E+02  0.72502784808E+02  0.81038878479E+02  0.00000000000E+00 0.  1.
</event>
<event>
 7    1  0.5553952E-006  0.5818966E+02  0.7818608E-02  0.1466028E+00
          2   -1    0    0  502    0  0.00000000000E+00  0.00000000000E+00  0.17909343861E+04  0.17909343861E+04  0.00000000000E+00 0. -1.
          1   -1    0    0  501    0 -0.00000000000E+00 -0.00000000000E+00 -0.42784508310E+03  0.42784508310E+03  0.00000000000E+00 0. -1.
         25    2    1    2    0    0  0.20798167111E+02 -0.73625166055E+02  0.91293842522E+02  0.17266363402E+03  0.12499974399E+03 0.  0.
          2    1    1    2  501    0 -0.39978893818E+02  0.42061579848E+02 -0.38477870543E+03  0.38912997906E+03  0.00000000000E+00 0. -1.
          1    1    1    2  502    0  0.19180726707E+02  0.31563586206E+02  0.16565741660E+04  0.16569858562E+04  0.00000000000E+00 0. -1.
         22    1    3    3    0    0  0.45174366503E+02 -0.65027887647E+02  0.14680192003E+01  0.79192832006E+02  0.00000000000E+00 0.  1.
         22    1    3    3    0    0 -0.24376199392E+02 -0.85972784080E+01  0.89825823322E+02  0.93470802009E+02  0.00000000000E+00 0.  1.
</event>
<event>
 7    1  0.5553952E-006  0.1565579E+03  0.7818608E-02  0.1299740E+00
          2   -1    0    0  502    0  0.00000000000E+00  0.00000000000E+00  0.71058205750E+03  0.71058205750E+03  0.00000000000E+00 0. -1.
          1   -1    0    0  501    0 -0.00000000000E+00 -0.00000000000E+00 -0.88524225468E+03  0.88524225468E+03  0.00000000000E+00 0. -1.
         25    2    1    2    0    0  0.20587283728E+03 -0.21442309035E+02  0.21900100458E+03  0.32624044323E+03  0.12501195562E+03 0.  0.
          2    1    1    2  501    0 -0.15290057669E+03  0.26780844381E+02 -0.82271925621E+03  0.83723519665E+03  0.00000000000E+00 0. -1.
          1    1    1    2  502    0 -0.52972260585E+02 -0.53385353460E+01  0.42905805445E+03  0.43234867230E+03  0.00000000000E+00 0. -1.
         22    1    3    3    0    0  0.29905007277E+02 -0.46869384095E+02  0.19277858970E+02  0.58844578953E+02  0.00000000000E+00 0.  1.
         22    1    3    3    0    0  0.17596783000E+03  0.25427075060E+02  0.19972314561E+03  0.26739586428E+03  0.00000000000E+00 0.  1.
</event>
<event>
 7    1  0.5553952E-006  0.8169224E+02  0.7818608E-02  0.1366757E+00
          2   -1    0    0  502    0  0.00000000000E+00  0.00000000000E+00  0.10868864022E+04  0.10868864022E+04  0.00000000000E+00 0. -1.
          1   -1    0    0  501    0 -0.00000000000E+00 -0.00000000000E+00 -0.37506988199E+02  0.37506988199E+02  0.00000000000E+00 0. -1.
         25    2    1    2    0    0  0.28464632892E+02 -0.23172606085E+02  0.24090675952E+03  0.27387235325E+03  0.12499117606E+03 0.  0.
          2    1    1    2  501    0  0.56670521764E+02 -0.26208049120E+01  0.24967627564E+02  0.61982248117E+02  0.00000000000E+00 0. -1.
          1    1    1    2  502    0 -0.85135154656E+02  0.25793410997E+02  0.78350502688E+03  0.78853878900E+03  0.00000000000E+00 0. -1.
         22    1    3    3    0    0 -0.12744592913E+02  0.32386127041E+02  0.15515911355E+02  0.38105503256E+02  0.00000000000E+00 0. -1.
         22    1    3    3    0    0  0.41209225805E+02 -0.55558733126E+02  0.22539084817E+03  0.23576685000E+03  0.00000000000E+00 0. -1.
</event>
<event>
 7    1  0.5553952E-006  0.5395319E+02  0.7818608E-02  0.1537135E+00
          2   -1    0    0  502    0  0.00000000000E+00  0.00000000000E+00  0.42319572857E+03  0.42319572857E+03  0.00000000000E+00 0. -1.
          1   -1    0    0  501    0 -0.00000000000E+00 -0.00000000000E+00 -0.16990174335E+03  0.16990174335E+03  0.00000000000E+00 0. -1.
         25    2    1    2    0    0 -0.45961736330E+02  0.23945093250E+02  0.70321230060E+02  0.15249982164E+03  0.12500108601E+03 0.  0.
          2    1    1    2  501    0  0.14005743969E+02  0.20049743421E+02 -0.12524986118E+03  0.12761536272E+03  0.00000000000E+00 0. -1.
          1    1    1    2  502    0  0.31955992361E+02 -0.43994836671E+02  0.30822261635E+03  0.31298228757E+03  0.00000000000E+00 0. -1.
         22    1    3    3    0    0 -0.36557756683E+02 -0.47821812896E+02  0.16844280184E+02  0.62507000706E+02  0.00000000000E+00 0.  1.
         22    1    3    3    0    0 -0.94039796478E+01  0.71766906146E+02  0.53476949876E+02  0.89992820930E+02  0.00000000000E+00 0.  1.
</event>
<event>
 7    1  0.5553952E-006  0.5608800E+02  0.7818608E-02  0.1473490E+00
          2   -1    0    0  502    0  0.00000000000E+00  0.00000000000E+00  0.33943527324E+04  0.33943527324E+04  0.00000000000E+00 0. -1.
          1   -1    0    0  501    0 -0.00000000000E+00 -0.00000000000E+00 -0.20852671484E+03  0.20852671484E+03  0.00000000000E+00 0. -1.
         25    2    1    2    0    0  0.33395055347E+02 -0.18591154528E+02  0.51278088647E+02  0.14039847512E+03  0.12498571395E+03 0.  0.
          2    1    1    2  501    0  0.21863497520E+02  0.29006830344E+02 -0.16171207140E+03  0.16574137313E+03  0.00000000000E+00 0. -1.
          1    1    1    2  502    0 -0.55258552867E+02 -0.10415675817E+02  0.32962600003E+04  0.32967395990E+04  0.00000000000E+00 0. -1.
         22    1    3    3    0    0  0.66346881725E+02 -0.53844885484E+01 -0.12194604902E+02  0.67672814485E+02  0.00000000000E+00 0. -1.
         22    1    3    3    0    0 -0.32951826379E+02 -0.13206665979E+02  0.63472693549E+02  0.72725660632E+02  0.00000000000E+00 0. -1.
</event>
<event>
 7    1  0.5553952E-006  0.4483049E+02  0.7818608E-02  0.1523433E+00
          2   -1    0    0  502    0  0.00000000000E+00  0.00000000000E+00  0.32556737949E+04  0.32556737949E+04  0.00000000000E+00 0. -1.
          1   -1    0    0  501    0 -0.00000000000E+00 -0.00000000000E+00 -0.59795192631E+02  0.59795192631E+02  0.00000000000E+00 0. -1.
         25    2    1    2    0    0  0.31640098823E+02 -0.35367395991E+01  0.11485349674E+03  0.17271295249E+03  0.12499933545E+03 0.  0.
          2    1    1    2  501    0 -0.40529279882E+01 -0.31961654537E+02 -0.22250821251E+02  0.39154471422E+02  0.00000000000E+00 0. -1.
          1    1    1    2  502    0 -0.27587170834E+02  0.35498394136E+02  0.31032759267E+04  0.31036015636E+04  0.00000000000E+00 0. -1.
         22    1    3    3    0    0  0.80069796188E+02 -0.42138828666E+01  0.65141143437E+02  0.10330681313E+03  0.00000000000E+00 0.  1.
         22    1    3    3    0    0 -0.48429697366E+02  0.67714326750E+00  0.49712353306E+02  0.69406139362E+02  0.00000000000E+00 0.  1.
</event>
<event>
 7    1  0.5553952E-006  0.7027484E+02  0.7818608E-02  0.1392004E+00
          2   -1    0    0  502    0  0.00000000000E+00  0.00000000000E+00  0.73323993599E+02  0.73323993599E+02  0.00000000000E+00 0. -1.
          1   -1    0    0  501    0 -0.00000000000E+00 -0.00000000000E+00 -0.22218280531E+04  0.22218280531E+04  0.00000000000E+00 0. -1.
         25    2    1    2    0    0  0.40001030131E+02 -0.15539067796E+02 -0.26200333477E+03  0.29344704644E+03  0.12499550632E+03 0.  0.
          2    1    1    2  501    0 -0.25744816314E+02  0.67275896648E+02 -0.19307845108E+04  0.19321277569E+04  0.00000000000E+00 0. -1.
          1    1    1    2  502    0 -0.14256213817E+02 -0.51736828853E+02  0.44283786031E+02  0.69577243388E+02  0.00000000000E+00 0. -1.
         22    1    3    3    0    0 -0.42377320349E+02 -0.25052493120E+02 -0.98427736009E+02  0.11005218720E+03  0.00000000000E+00 0.  1.
         22    1    3    3    0    0  0.82378350480E+02  0.95134253241E+01 -0.16357559876E+03  0.18339485925E+03  0.00000000000E+00 0.  1.
</event>
<event>
 7    1  0.5553952E-006  0.7380881E+02  0.7818608E-02  0.1445586E+00
          2   -1    0    0  502    0  0.00000000000E+00  0.00000000000E+00  0.29055771728E+03  0.29055771728E+03  0.00000000000E+00 0. -1.
          1   -1    0    0  501    0 -0.00000000000E+00 -0.00000000000E+00 -0.93603173193E+03  0.93603173193E+03  0.00000000000E+00 0. -1.
         25    2    1    2    0    0 -0.63998889003E+02 -0.67317259882E+02 -0.39426978874E+03  0.42391301519E+03  0.12500442736E+03 0.  0.
          2    1    1    2  501    0  0.33809723256E+02  0.14834259231E+00 -0.52146620827E+03  0.52256112155E+03  0.00000000000E+00 0. -1.
          1    1    1    2  502    0  0.30189165747E+02  0.67168917290E+02  0.27026198235E+03  0.28011531247E+03  0.00000000000E+00 0. -1.
         22    1    3    3    0    0 -0.52600293916E+02 -0.93125889385E+02 -0.37447130959E+03  0.38944573935E+03  0.00000000000E+00 0.  1.
         22    1    3    3    0    0 -0.11398595087E+02  0.25808629503E+02 -0.19798479147E+02  0.34467275833E+02  0.00000000000E+00 0.  1.
</event>
<event>
 7    1  0.5553952E-006  0.1550933E+03  0.7818608E-02  0.1287291E+00
          2   -1    0    0  502    0  0.00000000000E+00  0.00000000000E+00  0.19705539339E+04  0.19705539339E+04  0.00000000000E+00 0. -1.
          1   -1    0    0  501    0 -0.00000000000E+00 -0.00000000000E+00 -0.55657672147E+03  0.55657672147E+03  0.00000000000E+00 0. -1.
         25    2    1    2    0    0  0.10514146736E+02 -0.17733455238E+03 -0.11335078328E+03  0.24501418062E+03  0.12500183154E+03 0.  0.
          2    1    1    2  501    0 -0.53214017735E+02  0.28466814134E+02 -0.37180915402E+03  0.37667510962E+03  0.00000000000E+00 0. -1.
          1    1    1    2  502    0  0.42699870998E+02  0.14886773824E+03  0.18991371498E+04  0.19054413652E+04  0.00000000000E+00 0. -1.
         22    1    3    3    0    0 -0.39771819195E+02 -0.90210980095E+01 -0.13524180013E+02  0.42966047717E+02  0.00000000000E+00 0.  1.
         22    1    3    3    0    0  0.50285965931E+02 -0.16831345437E+03 -0.99826603266E+02  0.20204813290E+03  0.00000000000E+00 0.  1.
</event>
<event>
 7    1  0.5553952E-006  0.2914022E+02  0.7818608E-02  0.1651505E+00
          2   -1    0    0  502    0  0.00000000000E+00  0.00000000000E+00  0.14104230360E+04  0.14104230360E+04  0.00000000000E+00 0. -1.
          1   -1    0    0  501    0 -0.00000000000E+00 -0.00000000000E+00 -0.92278108411E+02  0.92278108411E+02  0.00000000000E+00 0. -1.
         25    2    1    2    0    0  0.47253429647E+02  0.17134038909E+02  0.87436908609E+03  0.88468759463E+03  0.12499751793E+03 0.  0.
          2    1    1    2  501    0 -0.21028127688E+02 -0.83359935646E+01 -0.85283100618E+02  0.88231956760E+02  0.00000000000E+00 0. -1.
          1    1    1    2  502    0 -0.26225301959E+02 -0.87980453445E+01  0.52905894213E+03  0.52978159302E+03  0.00000000000E+00 0. -1.
         22    1    3    3    0    0 -0.13715743808E+02  0.55555499800E+02  0.26733914689E+03  0.27339486946E+03  0.00000000000E+00 0. -1.
         22    1    3    3    0    0  0.60969173455E+02 -0.38421460891E+02  0.60702993919E+03  0.61129272517E+03  0.00000000000E+00 0. -1.
</event>
<event>
 7    1  0.5553952E-006  0.6999027E+02  0.7818608E-02  0.1465245E+00
          2   -1    0    0  502    0  0.00000000000E+00  0.00000000000E+00  0.17170949822E+04  0.17170949822E+04  0.00000000000E+00 0. -1.
          1   -1    0    0  501    0 -0.00000000000E+00 -0.00000000000E+00 -0.12206950613E+04  0.12206950613E+04  0.00000000000E+00 0. -1.
         25    2    1    2    0    0  0.20361365943E+02 -0.96782880932E+02  0.61358156150E+03  0.63394611018E+03  0.12499530686E+03 0.  0.
          2    1    1    2  501    0 -0.23092656246E+02  0.66022718540E+02 -0.12092839715E+04  0.12113050788E+04  0.00000000000E+00 0. -1.
          1    1    1    2  502    0  0.27312903035E+01  0.30760162392E+02  0.10921023309E+04  0.10925388545E+04  0.00000000000E+00 0. -1.
         22    1    3    3    0    0  0.13451368235E+02 -0.10470150928E+03  0.26564244767E+03  0.28584830830E+03  0.00000000000E+00 0. -1.
         22    1    3    3    0    0  0.69099977077E+01  0.79186283465E+01  0.34793911383E+03  0.34809780188E+03  0.00000000000E+00 0. -1.
</event>
<event>
 7    1  0.5553952E-006  0.3130542E+02  0.7818608E-02  0.1589918E+00
          2   -1    0    0  502    0  0.00000000000E+00  0.00000000000E+00  0.20378398557E+04  0.20378398557E+04  0.00000000000E+00 0. -1.
          1   -1    0    0  501    0 -0.00000000000E+00 -0.00000000000E+00 -0.51529764040E+02  0.51529764040E+02  0.00000000000E+00 0. -1.
         25    2    1    2    0    0  0.54226886409E-01 -0.13747331949E+02  0.28503838917E+03  0.31154598521E+03  0.12500010209E+03 0.  0.
          2    1    1    2  501    0 -0.30096573508E+02  0.10576990819E+02 -0.31474396780E+02  0.44814217882E+02  0.00000000000E+00 0. -1.
          1    1    1    2  502    0  0.30042346621E+02  0.31703411303E+01  0.17327460993E+04  0.17330094167E+04  0.00000000000E+00 0. -1.
         22    1    3    3    0    0  0.74290749308E+01  0.51833810244E+02  0.75656561085E+02  0.92010055287E+02  0.00000000000E+00 0.  1.
         22    1    3    3    0    0 -0.73748480444E+01 -0.65581142193E+02  0.20938182808E+03  0.21953592992E+03  0.00000000000E+00 0.  1.
</event>
<event>
 7    1  0.5553952E-006  0.6644842E+02  0.7818608E-02  0.1380722E+00
          2   -1    0    0  502    0  0.00000000000E+00  0.00000000000E+00  0.62941278884E+02  0.62941278884E+02  0.00000000000E+00 0. -1.
          1   -1    0    0  501    0 -0.00000000000E+00 -0.00000000000E+00 -0.38662025189E+04  0.38662025189E+04  0.00000000000E+00 0. -1.
         25    2    1    2    0    0  0.17504057896E+02 -0.10757288503E+03 -0.90894160169E+03  0.92394620202E+03  0.12499372509E+03 0.  0.
          2    1    1    2  501    0  0.24724426769E+02  0.57043893075E+02 -0.29297568571E+04  0.29304164456E+04  0.00000000000E+00 0. -1.
          1    1    1    2  502    0 -0.42228484665E+02  0.50528991953E+02  0.35437218765E+02  0.74781150156E+02  0.00000000000E+00 0. -1.
         22    1    3    3    0    0 -0.33431812070E+02 -0.17355333005E+02 -0.52255399268E+03  0.52390988624E+03  0.00000000000E+00 0. -1.
         22    1    3    3    0    0  0.50935869966E+02 -0.90217552023E+02 -0.38638760902E+03  0.40003631578E+03  0.00000000000E+00 0. -1.
</event>
<event>
 7    1  0.5553952E-006  0.5123450E+02  0.7818608E-02  0.1558662E+00
          2   -1    0    0  502    0  0.00000000000E+00  0.00000000000E+00  0.13180005034E+04  0.13180005034E+04  0.00000000000E+00 0. -1.
          1   -1    0    0  501    0 -0.00000000000E+00 -0.00000000000E+00 -0.46952720285E+03  0.46952720285E+03  0.00000000000E+00 0. -1.
         25    2    1    2    0    0 -0.27143519855E+01  0.33776566287E+02 -0.10915649095E+03  0.16936832117E+03  0.12498905777E+03 0.  0.
          2    1    1    2  501    0  0.19298793277E+02 -0.48863847389E+02 -0.32807712111E+03  0.33225700353E+03  0.00000000000E+00 0. -1.
          1    1    1    2  502    0 -0.16584441291E+02  0.15087281101E+02  0.12857069126E+04  0.12859023815E+04  0.00000000000E+00 0. -1.
         22    1    3    3    0    0  0.38753166976E+02 -0.64155504831E+01  0.67647640571E+01  0.39858866911E+02  0.00000000000E+00 0.  1.
         22    1    3    3    0    0 -0.41467518962E+02  0.40192116770E+02 -0.11592125501E+03  0.12950945426E+03  0.00000000000E+00 0.  1.
</event>
<event>
 7    1  0.5553952E-006  0.9984675E+02  0.7818608E-02  0.1325148E+00
          2   -1    0    0  502    0  0.00000000000E+00  0.00000000000E+00  0.17820052837E+04  0.17820052837E+04  0.00000000000E+00 0. -1.
          1   -1    0    0  501    0 -0.00000000000E+00 -0.00000000000E+00 -0.21308393545E+02  0.21308393545E+02  0.00000000000E+00 0. -1.
         25    2    1    2    0    0  0.46579133050E+02  0.24522159045E+02  0.56495821714E+03  0.58101188001E+03  0.12500426265E+03 0.  0.
          2    1    1    2  501    0  0.62202027670E+02  0.23085102995E+02  0.99138401459E+02  0.11929139479E+03  0.00000000000E+00 0. -1.
          1    1    1    2  502    0 -0.10878116072E+03 -0.47607262039E+02  0.10966002716E+04  0.11030104025E+04  0.00000000000E+00 0. -1.
         22    1    3    3    0    0  0.62275165370E+02  0.63830570157E+02  0.44386074528E+03  0.45273049280E+03  0.00000000000E+00 0.  1.
         22    1    3    3    0    0 -0.15696032320E+02 -0.39308411112E+02  0.12109747186E+03  0.12828138721E+03  0.00000000000E+00 0.  1.
</event>
<event>
 7    1  0.5553952E-006  0.2399259E+03  0.7818608E-02  0.1207125E+00
          2   -1    0    0  502    0  0.00000000000E+00  0.00000000000E+00  0.84606055356E+03  0.84606055356E+03  0.00000000000E+00 0. -1.
          1   -1    0    0  501    0 -0.00000000000E+00 -0.00000000000E+00 -0.10943746643E+04  0.10943746643E+04  0.00000000000E+00 0. -1.
         25    2    1    2    0    0 -0.26170171065E+03  0.24147354763E+02  0.14635902247E+03  0.32575434302E+03  0.12499619371E+03 0.  0.
          2    1    1    2  501    0  0.46060127054E+02  0.74141954777E+02 -0.97964608444E+03  0.98352682501E+03  0.00000000000E+00 0. -1.
          1    1    1    2  502    0  0.21564158360E+03 -0.98289309539E+02  0.58497295122E+03  0.63115404982E+03  0.00000000000E+00 0. -1.
         22    1    3    3    0    0 -0.22728386681E+03 -0.24320166794E+02  0.13424719487E+03  0.26508816639E+03  0.00000000000E+00 0.  1.
         22    1    3    3    0    0 -0.34417843834E+02  0.48467521556E+02  0.12111827597E+02  0.60666176637E+02  0.00000000000E+00 0.  1.
</event>
<event>
 7    1  0.5553952E-006  0.9482967E+02  0.7818608E-02  0.1306501E+00
          2   -1    0    0  502    0  0.00000000000E+00  0.00000000000E+00  0.35107043674E+03  0.35107043674E+03  0.00000000000E+00 0. -1.
          1   -1    0    0  501    0 -0.00000000000E+00 -0.00000000000E+00 -0.13969717014E+04  0.13969717014E+04  0.00000000000E+00 0. -1.
         25    2    1    2    0    0  0.72616523699E+02 -0.14588658029E+03 -0.18136449789E+03  0.27400880216E+03  0.12502675212E+03 0.  0.
          2    1    1    2  501    0 -0.10040216153E+02  0.91953108724E+02 -0.11618142940E+04  0.11654907266E+04  0.00000000000E+00 0. -1.
          1    1    1    2  502    0 -0.62576307546E+02  0.53933471568E+02  0.29727752719E+03  0.30854260937E+03  0.00000000000E+00 0. -1.
         22    1    3    3    0    0  0.10000682911E+02  0.16545836750E+02 -0.56661238754E+02  0.59868809488E+02  0.00000000000E+00 0. -1.
         22    1    3    3    0    0  0.62615840788E+02 -0.16243241704E+03 -0.12470325913E+03  0.21413999267E+03  0.00000000000E+00 0. -1.
</event>
<event>
 7    1  0.5553952E-006  0.1446565E+03  0.7818608E-02  0.1356435E+00
          2   -1    0    0  502    0  0.00000000000E+00  0.00000000000E+00  0.11633510178E+03  0.11633510178E+03  0.00000000000E+00 0. -1.
          1   -1    0    0  501    0 -0.00000000000E+00 -0.00000000000E+00 -0.12319174932E+04  0.12319174932E+04  0.00000000000E+00 0. -1.
         25    2    1    2    0    0 -0.87041697999E+02  0.10504532712E+03 -0.49229848922E+03  0.52592180650E+03  0.12500066452E+03 0.  0.
          2    1    1    2  501    0  0.67089874682E+02 -0.13372084399E+03 -0.71170474206E+03  0.72725920777E+03  0.00000000000E+00 0. -1.
          1    1    1    2  502    0  0.19951823317E+02  0.28675516872E+02  0.88420839910E+02  0.95071580674E+02  0.00000000000E+00 0. -1.
         22    1    3    3    0    0 -0.23619770627E+02 -0.18922405605E+02 -0.28140083868E+02  0.41325722238E+02  0.00000000000E+00 0. -1.
         22    1    3    3    0    0 -0.63421927371E+02  0.12396773272E+03 -0.46415840535E+03  0.48459608427E+03  0.00000000000E+00 0. -1.
</event>
<event>
 7    1  0.5553952E-006  0.2589983E+03  0.7818608E-02  0.1287153E+00
          2   -1    0    0  502    0  0.00000000000E+00  0.00000000000E+00  0.66592495676E+03  0.66592495676E+03  0.00000000000E+00 0. -1.
          1   -1    0    0  501    0 -0.00000000000E+00 -0.00000000000E+00 -0.37658043005E+04  0.37658043005E+04  0.00000000000E+00 0. -1.
         25    2    1    2    0    0  0.16094328625E+03  0.19615914372E+03 -0.14187753140E+03  0.31644171849E+03  0.12499990493E+03 0.  0.
          2    1    1    2  501    0 -0.19081637107E+03 -0.17573861772E+03 -0.35313165213E+04  0.35408320100E+04  0.00000000000E+00 0. -1.
          1    1    1    2  502    0  0.29873084818E+02 -0.20420526002E+02  0.57331470895E+03  0.57445552881E+03  0.00000000000E+00 0. -1.
         22    1    3    3    0    0  0.58381404912E+02  0.21163232615E+02  0.10193787407E+02  0.62929994088E+02  0.00000000000E+00 0. -1.
         22    1    3    3    0    0  0.10256188134E+03  0.17499591111E+03 -0.15207131880E+03  0.25351172440E+03  0.00000000000E+00 0. -1.
</event>
<event>
 7    1  0.5553952E-006  0.8063176E+02  0.7818608E-02  0.1354757E+00
          2   -1    0    0  502    0  0.00000000000E+00  0.00000000000E+00  0.79062664092E+03  0.79062664092E+03  0.00000000000E+00 0. -1.
          1   -1    0    0  501    0 -0.00000000000E+00 -0.00000000000E+00 -0.30570412631E+03  0.30570412631E+03  0.00000000000E+00 0. -1.
         25    2    1    2    0    0 -0.11142349879E+03  0.63484275662E+02  0.33593343149E+03  0.38068657104E+03  0.12500218252E+03 0.  0.
          2    1    1    2  501    0  0.63235853220E+02 -0.64915615093E+01 -0.27647237353E+03  0.28368624716E+03  0.00000000000E+00 0. -1.
          1    1    1    2  502    0  0.48187645572E+02 -0.56992714153E+02  0.42546145664E+03  0.43195794904E+03  0.00000000000E+00 0. -1.
         22    1    3    3    0    0  0.94156395540E+01  0.33546218794E+02  0.17934485712E+02  0.39187355631E+02  0.00000000000E+00 0.  1.
         22    1    3    3    0    0 -0.12083913835E+03  0.29938056868E+02  0.31799894578E+03  0.34149921540E+03  0.00000000000E+00 0.  1.
</event>
<event>
 7    1  0.5553952E-006  0.1439508E+03  0.7818608E-02  0.1366339E+00
          2   -1    0    0  502    0  0.00000000000E+00  0.00000000000E+00  0.15740755450E+04  0.15740755450E+04  0.00000000000E+00 0. -1.
          1   -1    0    0  501    0 -0.00000000000E+00 -0.00000000000E+00 -0.68705900235E+03  0.68705900235E+03  0.00000000000E+00 0. -1.
         25    2    1    2    0    0  0.73300323945E+02  0.88337775447E+02  0.42609593841E+02  0.17497782492E+03  0.12500064665E+03 0.  0.
          2    1    1    2  501    0  0.10861696664E+02  0.30426338110E+02 -0.61683608070E+03  0.61768154332E+03  0.00000000000E+00 0. -1.
          1    1    1    2  502    0 -0.84162020609E+02 -0.11876411356E+03  0.14612430295E+04  0.14684751791E+04  0.00000000000E+00 0. -1.
         22    1    3    3    0    0 -0.72148124204E+01  0.82415236001E+01  0.59198115823E+02  0.60202933039E+02  0.00000000000E+00 0.  1.
         22    1    3    3    0    0  0.80515136366E+02  0.80096251847E+02 -0.16588521981E+02  0.11477489188E+03  0.00000000000E+00 0.  1.
</event>
<event>
 7    1  0.5553952E-006  0.4991925E+02  0.7818608E-02  0.1545495E+00
          2   -1    0    0  502    0  0.00000000000E+00  0.00000000000E+00  0.63211779715E+03  0.63211779715E+03  0.00000000000E+00 0. -1.
          1   -1    0    0  501    0 -0.00000000000E+00 -0.00000000000E+00 -0.64115947122E+02  0.64115947122E+02  0.00000000000E+00 0. -1.
         25    2    1    2    0    0  0.68983589165E+01  0.69944507438E+02  0.85634481000E+02  0.16702849296E+03  0.12500172658E+03 0.  0.
          2    1    1    2  501    0 -0.13576575134E+02 -0.21035133934E+02 -0.15138102038E+02  0.29256834848E+02  0.00000000000E+00 0. -1.
          1    1    1    2  502    0  0.66782162178E+01 -0.48909373504E+02  0.49750547107E+03  0.49994841647E+03  0.00000000000E+00 0. -1.
         22    1    3    3    0    0 -0.54368202552E+02  0.59096179121E+02  0.57373814220E+02  0.98691511254E+02  0.00000000000E+00 0.  1.
         22    1    3    3    0    0  0.61266561468E+02  0.10848328317E+02  0.28260666780E+02  0.68336981703E+02  0.00000000000E+00 0.  1.
</event>
<event>
 7    1  0.5553952E-006  0.4963166E+02  0.7818608E-02  0.1479751E+00
          2   -1    0    0  502    0  0.00000000000E+00  0.00000000000E+00  0.71864127356E+03  0.71864127356E+03  0.00000000000E+00 0. -1.
          1   -1    0    0  501    0 -0.00000000000E+00 -0.00000000000E+00 -0.10826503663E+04  0.10826503663E+04  0.00000000000E+00 0. -1.
         25    2    1    2    0    0 -0.12993848142E+02  0.17322494908E+02 -0.22112697062E+03  0.25493126629E+03  0.12499561782E+03 0.  0.
          2    1    1    2  501    0 -0.78304342521E+01 -0.50610150867E+02 -0.84329458857E+03  0.84484819120E+03  0.00000000000E+00 0. -1.
          1    1    1    2  502    0  0.20824282394E+02  0.33287655959E+02  0.70041246648E+03  0.70151218234E+03  0.00000000000E+00 0. -1.
         22    1    3    3    0    0 -0.39476490336E+02  0.28902663041E+02 -0.21874651380E+02  0.53593447296E+02  0.00000000000E+00 0. -1.
         22    1    3    3    0    0  0.26482642194E+02 -0.11580168133E+02 -0.19925231924E+03  0.20133781899E+03  0.00000000000E+00 0. -1.
</event>
<event>
 7    1  0.5553952E-006  0.7104592E+02  0.7818608E-02  0.1366559E+00
          2   -1    0    0  502    0  0.00000000000E+00  0.00000000000E+00  0.12292569122E+04  0.12292569122E+04  0.00000000000E+00 0. -1.
          1   -1    0    0  501    0 -0.00000000000E+00 -0.00000000000E+00 -0.74557227534E+02  0.74557227534E+02  0.00000000000E+00 0. -1.
         25    2    1    2    0    0  0.40456849813E+02 -0.26498729919E+02  0.30634418325E+03  0.33438087124E+03  0.12499947621E+03 0.  0.
          2    1    1    2  501    0  0.41109692787E+01  0.74279528746E+02 -0.36014893075E+02  0.82652410626E+02  0.00000000000E+00 0. -1.
          1    1    1    2  502    0 -0.44567819091E+02 -0.47780798827E+02  0.88437039453E+03  0.88678085791E+03  0.00000000000E+00 0. -1.
         22    1    3    3    0    0 -0.17092369025E+01  0.47219331782E+02  0.13730225837E+03  0.14520501691E+03  0.00000000000E+00 0.  1.
         22    1    3    3    0    0  0.42166086715E+02 -0.73718061701E+02  0.16904192489E+03  0.18917585433E+03  0.00000000000E+00 0.  1.
</event>
<event>
 7    1  0.5553952E-006  0.3804691E+02  0.7818608E-02  0.1542062E+00
          2   -1    0    0  502    0  0.00000000000E+00  0.00000000000E+00  0.15046479853E+04  0.15046479853E+04  0.00000000000E+00 0. -1.
          1   -1    0    0  501    0 -0.00000000000E+00 -0.00000000000E+00 -0.73715858006E+01  0.73715858006E+01  0.00000000000E+00 0. -1.
         25    2    1    2    0    0  0.95063999094E+01 -0.81855755733E+01  0.10001561586E+04  0.10080157176E+04  0.12500388016E+03 0.  0.
          2    1    1    2  501    0 -0.13589399699E+02 -0.35537240186E+02  0.19128555631E+03  0.19503264157E+03  0.00000000000E+00 0. -1.
          1    1    1    2  502    0  0.40829997896E+01  0.43722815759E+02  0.30583468460E+03  0.30897121194E+03  0.00000000000E+00 0. -1.
         22    1    3    3    0    0  0.36416222719E+02  0.28176634164E+02  0.84870457515E+03  0.84995265743E+03  0.00000000000E+00 0.  1.
         22    1    3    3    0    0 -0.26909822810E+02 -0.36362209737E+02  0.15145158341E+03  0.15806306013E+03  0.00000000000E+00 0.  1.
</event>
<event>
 7    1  0.5553952E-006  0.1440391E+03  0.7818608E-02  0.1372712E+00
          2   -1    0    0  502    0  0.00000000000E+00  0.00000000000E+00  0.21646358329E+04  0.21646358329E+04  0.00000000000E+00 0. -1.
          1   -1    0    0  501    0 -0.00000000000E+00 -0.00000000000E+00 -0.36860596425E+03  0.36860596425E+03  0.00000000000E+00 0. -1.
         25    2    1    2    0    0 -0.19095161589E+02 -0.13328346162E+03  0.33156483063E+02  0.18669063333E+03  0.12499973547E+03 0.  0.
          2    1    1    2  501    0 -0.30535562039E+02 -0.23657014585E+01 -0.28848875011E+03  0.29010993783E+03  0.00000000000E+00 0. -1.
          1    1    1    2  502    0  0.49630723627E+02  0.13564916308E+03  0.20513621357E+04  0.20564412260E+04  0.00000000000E+00 0. -1.
         22    1    3    3    0    0  0.52568520495E+02 -0.73353438312E+02  0.13953631671E+02  0.91317468734E+02  0.00000000000E+00 0.  1.
         22    1    3    3    0    0 -0.71663682083E+02 -0.59930023305E+02  0.19202851392E+02  0.95373164594E+02  0.00000000000E+00 0.  1.
</event>
<event>
 7    1  0.5553952E-006  0.1113988E+03  0.7818608E-02  0.1302064E+00
          2   -1    0    0  502    0  0.00000000000E+00  0.00000000000E+00  0.13888581985E+04  0.13888581985E+04  0.00000000000E+00 0. -1.
          1   -1    0    0  501    0 -0.00000000000E+00 -0.00000000000E+00 -0.15981104172E+04  0.15981104172E+04  0.00000000000E+00 0. -1.
         25    2    1    2    0    0 -0.53624541926E+02  0.16277267320E+03  0.96477296458E+02  0.23303085634E+03  0.12499990655E+03 0.  0.
          2    1    1    2  501    0  0.64147502054E+02 -0.90292810476E+02 -0.15267301489E+04  0.15307425130E+04  0.00000000000E+00 0. -1.
          1    1    1    2  502    0 -0.10522960128E+02 -0.72479862721E+02  0.12210006337E+04  0.12231952463E+04  0.00000000000E+00 0. -1.
         22    1    3    3    0    0 -0.49092322086E+02  0.52461366624E+02  0.99327652164E+02  0.12258969598E+03  0.00000000000E+00 0.  1.
         22    1    3    3    0    0 -0.45322198406E+01  0.11031130657E+03 -0.28503557059E+01  0.11044116036E+03  0.00000000000E+00 0.  1.
</event>
<event>
 7    1  0.5553952E-006  0.1289599E+03  0.7818608E-02  0.1313713E+00
          2   -1    0    0  502    0  0.00000000000E+00  0.00000000000E+00  0.96777153901E+03  0.96777153901E+03  0.00000000000E+00 0. -1.
          1   -1    0    0  501    0 -0.00000000000E+00 -0.00000000000E+00 -0.77020608247E+03  0.77020608247E+03  0.00000000000E+00 0. -1.
         25    2    1    2    0    0  0.10144075638E+03  0.11131501195E+03  0.13704414207E+03  0.23892876191E+03  0.12499838979E+03 0.  0.
          2    1    1    2  501    0 -0.56312177021E+02  0.81582912622E+01 -0.71289343066E+03  0.71516058510E+03  0.00000000000E+00 0. -1.
          1    1    1    2  502    0 -0.45128579363E+02 -0.11947330321E+03  0.77341474514E+03  0.78388827447E+03  0.00000000000E+00 0. -1.
         22    1    3    3    0    0  0.66423091458E+02 -0.11492494084E+02  0.56418442928E+02  0.87904181935E+02  0.00000000000E+00 0. -1.
         22    1    3    3    0    0  0.35017664926E+02  0.12280750603E+03  0.80625699140E+02  0.15102457997E+03  0.00000000000E+00 0. -1.
</event>
<event>
 7    1  0.5553952E-006  0.8655961E+02  0.7818608E-02  0.1350087E+00
          2   -1    0    0  502    0  0.00000000000E+00  0.00000000000E+00  0.30573290280E+02  0.30573290280E+02  0.00000000000E+00 0. -1.
          1   -1    0    0  501    0 -0.00000000000E+00 -0.00000000000E+00 -0.79700443055E+03  0.79700443055E+03  0.00000000000E+00 0. -1.
         25    2    1    2    0    0  0.38011918990E+02  0.24463720854E+02 -0.27794211330E+03  0.30809024248E+03  0.12499759815E+03 0.  0.
          2    1    1    2  501    0 -0.92173750821E+02 -0.53833563013E+02 -0.38017463870E+03  0.39487568773E+03  0.00000000000E+00 0. -1.
          1    1    1    2  502    0  0.54161831831E+02  0.29369842160E+02 -0.10831438827E+03  0.12461179062E+03  0.00000000000E+00 0. -1.
         22    1    3    3    0    0 -0.75768324088E+01  0.33056603126E+02 -0.88787689014E+01  0.35056810134E+02  0.00000000000E+00 0. -1.
         22    1    3    3    0    0  0.45588751399E+02 -0.85928822723E+01 -0.26906334440E+03  0.27303343234E+03  0.00000000000E+00 0. -1.
</event>
<event>
 7    1  0.5553952E-006  0.6198023E+02  0.7818608E-02  0.1402821E+00
          2   -1    0    0  502    0  0.00000000000E+00  0.00000000000E+00  0.36565973360E+04  0.36565973360E+04  0.00000000000E+00 0. -1.
          1   -1    0    0  501    0 -0.00000000000E+00 -0.00000000000E+00 -0.39772359554E+03  0.39772359554E+03  0.00000000000E+00 0. -1.
         25    2    1    2    0    0 -0.85509995778E+02  0.77505327870E+02 -0.35786354633E+02  0.17385300599E+03  0.12500067715E+03 0.  0.
          2    1    1    2  501    0  0.45387571041E+02 -0.38676976571E+02 -0.28964916260E+03  0.29572381967E+03  0.00000000000E+00 0. -1.
          1    1    1    2  502    0  0.40122424737E+02 -0.38828351298E+02  0.35843092577E+04  0.35847441059E+04  0.00000000000E+00 0. -1.
         22    1    3    3    0    0 -0.98063137577E+02  0.21371914896E+02  0.92628787711E+01  0.10079156027E+03  0.00000000000E+00 0. -1.
         22    1    3    3    0    0  0.12553141799E+02  0.56133412973E+02 -0.45049233404E+02  0.73061445724E+02  0.00000000000E+00 0. -1.
</event>
<event>
 7    1  0.5553952E-006  0.7665448E+02  0.7818608E-02  0.1423641E+00
          2   -1    0    0  502    0  0.00000000000E+00  0.00000000000E+00  0.73348645943E+03  0.73348645943E+03  0.00000000000E+00 0. -1.
          1   -1    0    0  501    0 -0.00000000000E+00 -0.00000000000E+00 -0.29578570756E+04  0.29578570756E+04  0.00000000000E+00 0. -1.
         25    2    1    2    0    0  0.50966561130E+02 -0.21625815863E+02 -0.45806411146E+03  0.47803057298E+03  0.12500092895E+03 0.  0.
          2    1    1    2  501    0 -0.29610231779E+01 -0.38290820140E+02 -0.24876242924E+04  0.24879207332E+04  0.00000000000E+00 0. -1.
          1    1    1    2  502    0 -0.48005537952E+02  0.59916636003E+02  0.72131778765E+03  0.72539222888E+03  0.00000000000E+00 0. -1.
         22    1    3    3    0    0  0.56692955360E+02  0.34128706843E+02 -0.13739271050E+03  0.15249792364E+03  0.00000000000E+00 0.  1.
         22    1    3    3    0    0 -0.57263942306E+01 -0.55754522706E+02 -0.32067140096E+03  0.32553264934E+03  0.00000000000E+00 0.  1.
</event>
<event>
 7    1  0.5553952E-006  0.3988463E+02  0.7818608E-02  0.1593988E+00
          2   -1    0    0  502    0  0.00000000000E+00  0.00000000000E+00  0.84763840087E+02  0.84763840087E+02  0.00000000000E+00 0. -1.
          1   -1    0    0  501    0 -0.00000000000E+00 -0.00000000000E+00 -0.16715776996E+04  0.16715776996E+04  0.00000000000E+00 0. -1.
         25    2    1    2    0    0  0.45825359331E+02 -0.42196166714E+01 -0.72678013885E+03  0.73888560523E+03  0.12499919465E+03 0.  0.
          2    1    1    2  501    0 -0.32477107699E+02  0.23111353309E+02 -0.93661222387E+03  0.93746005519E+03  0.00000000000E+00 0. -1.
          1    1    1    2  502    0 -0.13348251631E+02 -0.18891736638E+02  0.76578503245E+02  0.79995879231E+02  0.00000000000E+00 0. -1.
         22    1    3    3    0    0  0.78428081283E+02 -0.15653515294E+02 -0.29259194097E+03  0.30332497490E+03  0.00000000000E+00 0. -1.
         22    1    3    3    0    0 -0.32602721953E+02  0.11433898622E+02 -0.43418819788E+03  0.43556063033E+03  0.00000000000E+00 0. -1.
</event>
<event>
 7    1  0.5553952E-006  0.4930486E+02  0.7818608E-02  0.1458575E+00
          2   -1    0    0  502    0  0.00000000000E+00  0.00000000000E+00  0.18859178187E+04  0.18859178187E+04  0.00000000000E+00 0. -1.
          1   -1    0    0  501    0 -0.00000000000E+00 -0.00000000000E+00 -0.43453316432E+03  0.43453316432E+03  0.00000000000E+00 0. -1.
         25    2    1    2    0    0 -0.94432912765E+01  0.55312088262E+02  0.32266587340E+03  0.35054860281E+03  0.12498981645E+03 0.  0.
          2    1    1    2  501    0  0.43143318344E+02 -0.23991862422E+02 -0.41880022692E+03  0.42169963890E+03  0.00000000000E+00 0. -1.
          1    1    1    2  502    0 -0.33700027068E+02 -0.31320225841E+02  0.15475190079E+04  0.15482027413E+04  0.00000000000E+00 0. -1.
         22    1    3    3    0    0  0.24426370318E+02 -0.30049009909E+02  0.52753572399E+02  0.65441041895E+02  0.00000000000E+00 0.  1.
         22    1    3    3    0    0 -0.33869661595E+02  0.85361098171E+02  0.26991230100E+03  0.28510756091E+03  0.00000000000E+00 0.  1.
</event>
<event>
 7    1  0.5553952E-006  0.7805520E+02  0.7818608E-02  0.1395885E+00
          2   -1    0    0  502    0  0.00000000000E+00  0.00000000000E+00  0.12855499672E+04  0.12855499672E+04  0.00000000000E+00 0. -1.
          1   -1    0    0  501    0 -0.00000000000E+00 -0.00000000000E+00 -0.56373224605E+03  0.56373224605E+03  0.00000000000E+00 0. -1.
         25    2    1    2    0    0 -0.32449747337E+02 -0.60640855406E+01  0.97258178678E+03  0.98113698412E+03  0.12499876158E+03 0.  0.
          2    1    1    2  501    0  0.13035421311E+02 -0.76959024402E+02 -0.55076233078E+03  0.55626590642E+03  0.00000000000E+00 0. -1.
          1    1    1    2  502    0  0.19414326027E+02  0.83023109943E+02  0.29999826517E+03  0.31187932273E+03  0.00000000000E+00 0. -1.
         22    1    3    3    0    0 -0.32422725156E+01  0.50185854228E+02  0.21049879628E+03  0.21642290898E+03  0.00000000000E+00 0. -1.
         22    1    3    3    0    0 -0.29207474822E+02 -0.56249939769E+02  0.76208299050E+03  0.76471407514E+03  0.00000000000E+00 0. -1.
</event>
<event>
 7    1  0.5553952E-006  0.7895420E+02  0.7818608E-02  0.1421602E+00
          2   -1    0    0  502    0  0.00000000000E+00  0.00000000000E+00  0.65883274341E+03  0.65883274341E+03  0.00000000000E+00 0. -1.
          1   -1    0    0  501    0 -0.00000000000E+00 -0.00000000000E+00 -0.72945580842E+02  0.72945580842E+02  0.00000000000E+00 0. -1.
         25    2    1    2    0    0  0.49985413038E+02  0.66749631387E+02  0.13705375261E+03  0.20338133012E+03  0.12500471803E+03 0.  0.
          2    1    1    2  501    0 -0.71291415271E+02 -0.35437313254E+02  0.16681604488E+01  0.79630721592E+02  0.00000000000E+00 0. -1.
          1    1    1    2  502    0  0.21306002233E+02 -0.31312318133E+02  0.44716524951E+03  0.44876627254E+03  0.00000000000E+00 0. -1.
         22    1    3    3    0    0  0.86400919964E+02  0.16238445875E+02  0.83569900023E+02  0.12129606047E+03  0.00000000000E+00 0. -1.
         22    1    3    3    0    0 -0.36415506926E+02  0.50511185512E+02  0.53483852582E+02  0.82085269650E+02  0.00000000000E+00 0. -1.
</event>
<event>
 7    1  0.5553952E-006  0.1122725E+03  0.7818608E-02  0.1386540E+00
          2   -1    0    0  502    0  0.00000000000E+00  0.00000000000E+00  0.31748552193E+04  0.31748552193E+04  0.00000000000E+00 0. -1.
          1   -1    0    0  501    0 -0.00000000000E+00 -0.00000000000E+00 -0.33340417652E+02  0.33340417652E+02  0.00000000000E+00 0. -1.
         25    2    1    2    0    0  0.62432776145E+02 -0.10897255621E+03  0.14943865343E+04  0.15048586396E+04  0.12504215986E+03 0.  0.
          2    1    1    2  501    0 -0.79513665791E+02  0.78309176318E+02  0.83664754416E+02  0.13947953712E+03  0.00000000000E+00 0. -1.
          1    1    1    2  502    0  0.17080889646E+02  0.30663379894E+02  0.15634635130E+04  0.15638574603E+04  0.00000000000E+00 0. -1.
         22    1    3    3    0    0 -0.38221350986E+02 -0.35768448743E+02  0.39672663551E+03  0.40016531199E+03  0.00000000000E+00 0. -1.
         22    1    3    3    0    0  0.10065412713E+03 -0.73204107469E+02  0.10976598987E+04  0.11046933276E+04  0.00000000000E+00 0. -1.
</event>
<event>
 7    1  0.5553952E-006  0.8818873E+02  0.7818608E-02  0.1398502E+00
          2   -1    0    0  502    0  0.00000000000E+00  0.00000000000E+00  0.25020018105E+04  0.25020018105E+04  0.00000000000E+00 0. -1.
          1   -1    0    0  501    0 -0.00000000000E+00 -0.00000000000E+00 -0.36487202249E+02  0.36487202249E+02  0.00000000000E+00 0. -1.
         25    2    1    2    0    0  0.56899409613E+02  0.61792372998E+02  0.19215698896E+04  0.19274629182E+04  0.12500648149E+03 0.  0.
          2    1    1    2  501    0 -0.83086223363E+02 -0.30760182503E+02  0.27186114603E+02  0.92674668424E+02  0.00000000000E+00 0. -1.
          1    1    1    2  502    0  0.26186813750E+02 -0.31032190495E+02  0.51675860406E+03  0.51835142610E+03  0.00000000000E+00 0. -1.
         22    1    3    3    0    0 -0.35505111595E+02  0.27610598846E+02  0.90871761013E+03  0.90983001329E+03  0.00000000000E+00 0. -1.
         22    1    3    3    0    0  0.92404521208E+02  0.34181774152E+02  0.10128522794E+04  0.10176329049E+04  0.00000000000E+00 0. -1.
</event>
<event>
 7    1  0.5553952E-006  0.7474884E+02  0.7818608E-02  0.1462700E+00
          2   -1    0    0  502    0  0.00000000000E+00  0.00000000000E+00  0.91300774811E+03  0.91300774811E+03  0.00000000000E+00 0. -1.
          1   -1    0    0  501    0 -0.00000000000E+00 -0.00000000000E+00 -0.19923355105E+04  0.19923355105E+04  0.00000000000E+00 0. -1.
         25    2    1    2    0    0 -0.66974828059E+02 -0.21895057111E+02 -0.10510722647E+03  0.17785674809E+03  0.12498188935E+03 0.  0.
          2    1    1    2  501    0 -0.75978222358E+01  0.28454769280E+02 -0.18491378543E+04  0.18493723813E+04  0.00000000000E+00 0. -1.
          1    1    1    2  502    0  0.74572650294E+02 -0.65597121690E+01  0.87491731833E+03  0.87811412920E+03  0.00000000000E+00 0. -1.
         22    1    3    3    0    0 -0.39848347022E+02  0.26935895179E+02 -0.11169406430E+03  0.12161002101E+03  0.00000000000E+00 0. -1.
         22    1    3    3    0    0 -0.27126481037E+02 -0.48830952290E+02  0.65868378306E+01  0.56246727083E+02  0.00000000000E+00 0. -1.
</event>
<event>
 7    1  0.5553952E-006  0.7354898E+02  0.7818608E-02  0.1362150E+00
          2   -1    0    0  502    0  0.00000000000E+00  0.00000000000E+00  0.37122902138E+04  0.37122902138E+04  0.00000000000E+00 0. -1.
          1   -1    0    0  501    0 -0.00000000000E+00 -0.00000000000E+00 -0.80757873579E+03  0.80757873579E+03  0.00000000000E+00 0. -1.
         25    2    1    2    0    0  0.99134887001E+01  0.33668631305E+02  0.94619451974E+03  0.95506068009E+03  0.12499991795E+03 0.  0.
          2    1    1    2  501    0 -0.57699207250E+02  0.30964294920E+02 -0.80122477886E+03  0.80389621988E+03  0.00000000000E+00 0. -1.
          1    1    1    2  502    0  0.47785718550E+02 -0.64632926226E+02  0.27597417371E+04  0.27609120496E+04  0.00000000000E+00 0. -1.
         22    1    3    3    0    0  0.43000035603E+01 -0.16685034944E+02  0.80268765115E+03  0.80287255884E+03  0.00000000000E+00 0. -1.
         22    1    3    3    0    0  0.56134851398E+01  0.50353666250E+02  0.14350686858E+03  0.15218812125E+03  0.00000000000E+00 0. -1.
</event>
<event>
 7    1  0.5553952E-006  0.5981589E+02  0.7818608E-02  0.1407256E+00
          2   -1    0    0  502    0  0.00000000000E+00  0.00000000000E+00  0.31317591205E+03  0.31317591205E+03  0.00000000000E+00 0. -1.
          1   -1    0    0  501    0 -0.00000000000E+00 -0.00000000000E+00 -0.11944642646E+04  0.11944642646E+04  0.00000000000E+00 0. -1.
         25    2    1    2    0    0 -0.69783689738E+02  0.24923727789E+02  0.84326625676E+02  0.16801075626E+03  0.12500271541E+03 0.  0.
          2    1    1    2  501    0  0.22904976208E+02 -0.55323242037E+02 -0.11476509379E+04  0.11492118927E+04  0.00000000000E+00 0. -1.
          1    1    1    2  502    0  0.46878713530E+02  0.30399514248E+02  0.18203595966E+03  0.19041752771E+03  0.00000000000E+00 0. -1.
         22    1    3    3    0    0 -0.66603375199E+02  0.23124566208E+02  0.11620675633E+03  0.13592190908E+03  0.00000000000E+00 0.  1.
         22    1    3    3    0    0 -0.31803145389E+01  0.17991615816E+01 -0.31880130655E+02  0.32088847183E+02  0.00000000000E+00 0.  1.
</event>
<event>
 7    1  0.5553952E-006  0.1531427E+03  0.7818608E-02  0.1345583E+00
          2   -1    0    0  502    0  0.00000000000E+00  0.00000000000E+00  0.42786135773E+03  0.42786135773E+03  0.00000000000E+00 0. -1.
          1   -1    0    0  501    0 -0.00000000000E+00 -0.00000000000E+00 -0.57104285883E+03  0.57104285883E+03  0.00000000000E+00 0. -1.
         25    2    1    2    0    0  0.25235415963E+02  0.18589603145E+03  0.25169654077E+03  0.33788981576E+03  0.12499687290E+03 0.  0.
          2    1    1    2  501    0 -0.25522397608E+02 -0.14970347575E+03 -0.51428720408E+03  0.53624047937E+03  0.00000000000E+00 0. -1.
          1    1    1    2  502    0  0.28698164543E+00 -0.36192555697E+02  0.11940916222E+03  0.12477392142E+03  0.00000000000E+00 0. -1.
         22    1    3    3    0    0 -0.19685019707E+02 -0.70980783381E+01  0.54304677987E+02  0.58196913734E+02  0.00000000000E+00 0.  1.
         22    1    3    3    0    0  0.44920435670E+02  0.19299410979E+03  0.19739186278E+03  0.27969290203E+03  0.00000000000E+00 0.  1.
</event>
<event>
 7    1  0.5553952E-006  0.5899025E+02  0.7818608E-02  0.1483938E+00
          2   -1    0    0  502    0  0.00000000000E+00  0.00000000000E+00  0.52336875750E+03  0.52336875750E+03  0.00000000000E+00 0. -1.
          1   -1    0    0  501    0 -0.00000000000E+00 -0.00000000000E+00 -0.15716194559E+03  0.15716194559E+03  0.00000000000E+00 0. -1.
         25    2    1    2    0    0 -0.33810799323E+02  0.26658211850E+02 -0.13072806383E+02  0.13285118654E+03  0.12499883635E+03 0.  0.
          2    1    1    2  501    0  0.25501332831E+02 -0.57638466759E+02 -0.71755212917E+02  0.95505609297E+02  0.00000000000E+00 0. -1.
          1    1    1    2  502    0  0.83094664919E+01  0.30980254909E+02  0.45103483121E+03  0.45217390725E+03  0.00000000000E+00 0. -1.
         22    1    3    3    0    0  0.14147190733E+02  0.31949003976E+02 -0.57486679810E+02  0.67272581459E+02  0.00000000000E+00 0. -1.
         22    1    3    3    0    0 -0.47957990056E+02 -0.52907921259E+01  0.44413873427E+02  0.65578605081E+02  0.00000000000E+00 0. -1.
</event>
<event>
 7    1  0.5553952E-006  0.1042500E+03  0.7818608E-02  0.1359104E+00
          2   -1    0    0  502    0  0.00000000000E+00  0.00000000000E+00  0.13098228838E+04  0.13098228838E+04  0.00000000000E+00 0. -1.
          1   -1    0    0  501    0 -0.00000000000E+00 -0.00000000000E+00 -0.38016654956E+03  0.38016654956E+03  0.00000000000E+00 0. -1.
         25    2    1    2    0    0 -0.13423372921E+03 -0.99661722368E+01  0.14989221799E+03  0.23708343543E+03  0.12499143850E+03 0.  0.
          2    1    1    2  501    0  0.10056063973E+03 -0.23386410934E+02 -0.32813473711E+03  0.34399385485E+03  0.00000000000E+00 0. -1.
          1    1    1    2  502    0  0.33673089477E+02  0.33352583171E+02  0.11078988533E+04  0.11089121430E+04  0.00000000000E+00 0. -1.
         22    1    3    3    0    0 -0.60273898194E+02  0.42767992412E+02  0.16540372389E+02  0.75733928310E+02  0.00000000000E+00 0. -1.
         22    1    3    3    0    0 -0.73959831017E+02 -0.52734164649E+02  0.13335184560E+03  0.16134950712E+03  0.00000000000E+00 0. -1.
</event>
<event>
 7    1  0.5553952E-006  0.4813961E+02  0.7818608E-02  0.1508374E+00
          2   -1    0    0  502    0  0.00000000000E+00  0.00000000000E+00  0.47325806381E+03  0.47325806381E+03  0.00000000000E+00 0. -1.
          1   -1    0    0  501    0 -0.00000000000E+00 -0.00000000000E+00 -0.67658920225E+03  0.67658920225E+03  0.00000000000E+00 0. -1.
         25    2    1    2    0    0 -0.39849302146E+02  0.62622524389E+02 -0.37171247137E+03  0.39913036189E+03  0.12500134786E+03 0.  0.
          2    1    1    2  501    0  0.29230771953E+02 -0.15741532093E+02 -0.28895769546E+03  0.29085870045E+03  0.00000000000E+00 0. -1.
          1    1    1    2  502    0  0.10618530193E+02 -0.46880992297E+02  0.45733902840E+03  0.45985820372E+03  0.00000000000E+00 0. -1.
         22    1    3    3    0    0 -0.19863818114E+02 -0.25191774721E+02 -0.22283479366E+03  0.22513227678E+03  0.00000000000E+00 0.  1.
         22    1    3    3    0    0 -0.19985484032E+02  0.87814299110E+02 -0.14887767772E+03  0.17399808511E+03  0.00000000000E+00 0.  1.
</event>
<event>
 7    1  0.5553952E-006  0.4618640E+02  0.7818608E-02  0.1478927E+00
          2   -1    0    0  502    0  0.00000000000E+00  0.00000000000E+00  0.45313147194E+03  0.45313147194E+03  0.00000000000E+00 0. -1.
          1   -1    0    0  501    0 -0.00000000000E+00 -0.00000000000E+00 -0.22012091771E+04  0.22012091771E+04  0.00000000000E+00 0. -1.
         25    2    1    2    0    0 -0.49909632716E+02 -0.52679293109E+02  0.10851061973E+02  0.14493512274E+03  0.12498945914E+03 0.  0.
          2    1    1    2  501    0  0.41766558113E+02  0.75324891911E+01 -0.21325530870E+04  0.21329753521E+04  0.00000000000E+00 0. -1.
          1    1    1    2  502    0  0.81430746034E+01  0.45146803918E+02  0.37362431993E+03  0.37643017415E+03  0.00000000000E+00 0. -1.
         22    1    3    3    0    0 -0.83550067480E+02 -0.28228468580E+02 -0.23194678911E+02  0.91189107595E+02  0.00000000000E+00 0. -1.
         22    1    3    3    0    0  0.33640434763E+02 -0.24450824529E+02  0.34045740884E+02  0.53746015141E+02  0.00000000000E+00 0. -1.
</event>
<event>
 7    1  0.5553952E-006  0.2088538E+03  0.7818608E-02  0.1245561E+00
          2   -1    0    0  502    0  0.00000000000E+00  0.00000000000E+00  0.62443488703E+03  0.62443488703E+03  0.00000000000E+00 0. -1.
          1   -1    0    0  501    0 -0.00000000000E+00 -0.00000000000E+00 -0.34400680020E+03  0.34400680020E+03  0.00000000000E+00 0. -1.
         25    2    1    2    0    0  0.33335686008E+02  0.15219817370E+03  0.16538351884E+03  0.25933494828E+03  0.12500941988E+03 0.  0.
          2    1    1    2  501    0 -0.72361792545E+02 -0.20697317916E+03 -0.25310310917E+03  0.33486610725E+03  0.00000000000E+00 0. -1.
          1    1    1    2  502    0  0.39026106538E+02  0.54775005459E+02  0.36814767716E+03  0.37424063170E+03  0.00000000000E+00 0. -1.
         22    1    3    3    0    0 -0.25417392973E+02 -0.86766939159E+01  0.34827758256E+02  0.43980696084E+02  0.00000000000E+00 0. -1.
         22    1    3    3    0    0  0.58753078981E+02  0.16087486761E+03  0.13055576058E+03  0.21535425220E+03  0.00000000000E+00 0. -1.
</event>
<event>
 7    1  0.5553952E-006  0.9009574E+02  0.7818608E-02  0.1369578E+00
          2   -1    0    0  502    0  0.00000000000E+00  0.00000000000E+00  0.12724401700E+03  0.12724401700E+03  0.00000000000E+00 0. -1.
          1   -1    0    0  501    0 -0.00000000000E+00 -0.00000000000E+00 -0.31338046621E+03  0.31338046621E+03  0.00000000000E+00 0. -1.
         25    2    1    2    0    0 -0.24841531998E+02 -0.10339437244E+03 -0.20095428778E+03  0.25945195464E+03  0.12500077209E+03 0.  0.
          2    1    1    2  501    0  0.47399790516E+02  0.16680458335E+02 -0.49766071121E+02  0.70722271358E+02  0.00000000000E+00 0. -1.
          1    1    1    2  502    0 -0.22558258518E+02  0.86713914107E+02  0.64583909692E+02  0.11045025721E+03  0.00000000000E+00 0. -1.
         22    1    3    3    0    0 -0.65722574644E+02 -0.10416809886E+03 -0.15374387139E+03  0.19699651679E+03  0.00000000000E+00 0. -1.
         22    1    3    3    0    0  0.40881042646E+02  0.77372642260E+00 -0.47210416390E+02  0.62455437842E+02  0.00000000000E+00 0. -1.
</event>
<event>
 7    1  0.5553952E-006  0.1947017E+03  0.7818608E-02  0.1236497E+00
          2   -1    0    0  502    0  0.00000000000E+00  0.00000000000E+00  0.84239522284E+03  0.84239522284E+03  0.00000000000E+00 0. -1.
          1   -1    0    0  501    0 -0.00000000000E+00 -0.00000000000E+00 -0.28713973236E+03  0.28713973236E+03  0.00000000000E+00 0. -1.
         25    2    1    2    0    0 -0.13018721594E+03 -0.79431870958E+02  0.60913192513E+01  0.19728262560E+03  0.12500078750E+03 0.  0.
          2    1    1    2  501    0  0.20926052372E+03  0.77898064780E+02 -0.12335611324E+03  0.25509764005E+03  0.00000000000E+00 0. -1.
          1    1    1    2  502    0 -0.79073307779E+02  0.15338061775E+01  0.67252028447E+03  0.67715468955E+03  0.00000000000E+00 0. -1.
         22    1    3    3    0    0 -0.45673107143E+02  0.18875328142E+02  0.39659643219E+02  0.63365590258E+02  0.00000000000E+00 0.  1.
         22    1    3    3    0    0 -0.84514108798E+02 -0.98307199100E+02 -0.33568323967E+02  0.13391703534E+03  0.00000000000E+00 0.  1.
</event>
<event>
 7    1  0.5773900E-006  0.6996210E+02  0.7818608E-02  0.1362238E+00
          2   -1    0    0  502    0  0.00000000000E+00  0.00000000000E+00  0.17105562966E+04  0.17105562966E+04  0.00000000000E+00 0. -1.
          1   -1    0    0  501    0 -0.00000000000E+00 -0.00000000000E+00 -0.19743545956E+04  0.19743545956E+04  0.00000000000E+00 0. -1.
         25    2    1    2    0    0 -0.14113623621E+02 -0.27110718966E+02 -0.83855455366E+02  0.15359396541E+03  0.12500073344E+03 0.  0.
          2    1    1    2  501    0 -0.50827014626E+02  0.49795983618E+02 -0.18542412558E+04  0.18556060089E+04  0.00000000000E+00 0. -1.
          1    1    1    2  502    0  0.64940638247E+02 -0.22685264652E+02  0.16742984121E+04  0.16757109179E+04  0.00000000000E+00 0. -1.
         22    1    3    3    0    0  0.12774226144E+02  0.46160823805E+02 -0.16992412058E+02  0.50820710103E+02  0.00000000000E+00 0.  1.
         22    1    3    3    0    0 -0.26887849765E+02 -0.73271542771E+02 -0.66863043308E+02  0.10277325530E+03  0.00000000000E+00 0.  1.
</event>
<event>
 7    1  0.5553952E-006  0.1430949E+03  0.7818608E-02  0.1267637E+00
          2   -1    0    0  502    0  0.00000000000E+00  0.00000000000E+00  0.16840559743E+04  0.16840559743E+04  0.00000000000E+00 0. -1.
          1   -1    0    0  501    0 -0.00000000000E+00 -0.00000000000E+00 -0.12619036020E+04  0.12619036020E+04  0.00000000000E+00 0. -1.
         25    2    1    2    0    0 -0.73557789093E+02  0.14783661898E+03  0.29214524565E+03  0.35810654616E+03  0.12500015840E+03 0.  0.
          2    1    1    2  501    0  0.78742993463E+02 -0.53117487228E+01 -0.12239065192E+04  0.12264484667E+04  0.00000000000E+00 0. -1.
          1    1    1    2  502    0 -0.51852043699E+01 -0.14252487026E+03  0.13539136459E+04  0.13614045635E+04  0.00000000000E+00 0. -1.
         22    1    3    3    0    0 -0.16375597245E+01  0.97821486675E+02  0.72902179812E+02  0.12201005155E+03  0.00000000000E+00 0. -1.
         22    1    3    3    0    0 -0.71920229368E+02  0.50015132304E+02  0.21924306584E+03  0.23609649461E+03  0.00000000000E+00 0. -1.
</event>
<event>
 7    1  0.6552318E-006  0.1009002E+03  0.7818608E-02  0.1321479E+00
          2   -1    0    0  502    0  0.00000000000E+00  0.00000000000E+00  0.11593029347E+04  0.11593029347E+04  0.00000000000E+00 0. -1.
          1   -1    0    0  501    0 -0.00000000000E+00 -0.00000000000E+00 -0.28587413956E+04  0.28587413956E+04  0.00000000000E+00 0. -1.
         25    2    1    2    0    0  0.94690555631E+02 -0.88750349474E+02 -0.38227573940E+03  0.42261354649E+03  0.12499817154E+03 0.  0.
          2    1    1    2  501    0 -0.67320738456E+02 -0.83071605164E+01 -0.24535953146E+04  0.24545327577E+04  0.00000000000E+00 0. -1.
          1    1    1    2  502    0 -0.27369817175E+02  0.97057509991E+02  0.11364325931E+04  0.11408980261E+04  0.00000000000E+00 0. -1.
         22    1    3    3    0    0  0.55409273444E+02 -0.10138648958E+03 -0.35454835074E+03  0.37289937096E+03  0.00000000000E+00 0. -1.
         22    1    3    3    0    0  0.39281282187E+02  0.12636140104E+02 -0.27727388666E+02  0.49714175536E+02  0.00000000000E+00 0. -1.
</event>
<event>
 7    1  0.5553952E-006  0.6321752E+02  0.7818608E-02  0.1414001E+00
          2   -1    0    0  502    0  0.00000000000E+00  0.00000000000E+00  0.46807560019E+03  0.46807560019E+03  0.00000000000E+00 0. -1.
          1   -1    0    0  501    0 -0.00000000000E+00 -0.00000000000E+00 -0.67099547036E+03  0.67099547036E+03  0.00000000000E+00 0. -1.
         25    2    1    2    0    0  0.24027067454E+02  0.28025384033E+02 -0.43896459578E+03  0.45790606836E+03  0.12500131589E+03 0.  0.
          2    1    1    2  501    0 -0.59545373508E+02 -0.63441127972E+02 -0.21260506825E+03  0.22972014119E+03  0.00000000000E+00 0. -1.
          1    1    1    2  502    0  0.35518306055E+02  0.35415743939E+02  0.44864979386E+03  0.45144486099E+03  0.00000000000E+00 0. -1.
         22    1    3    3    0    0  0.63678951689E+02 -0.53112268461E+01 -0.13261277351E+03  0.14720518237E+03  0.00000000000E+00 0.  1.
         22    1    3    3    0    0 -0.39651884236E+02  0.33336610879E+02 -0.30635182227E+03  0.31070088599E+03  0.00000000000E+00 0.  1.
</event>
<event>
 7    1  0.5553952E-006  0.1635000E+03  0.7818608E-02  0.1249498E+00
          2   -1    0    0  502    0  0.00000000000E+00  0.00000000000E+00  0.19643290785E+04  0.19643290785E+04  0.00000000000E+00 0. -1.
          1   -1    0    0  501    0 -0.00000000000E+00 -0.00000000000E+00 -0.48202919110E+03  0.48202919110E+03  0.00000000000E+00 0. -1.
         25    2    1    2    0    0 -0.64906729025E+02 -0.12420508783E+03  0.12313430047E+04  0.12455804106E+04  0.12500070722E+03 0.  0.
          2    1    1    2  501    0 -0.97814583336E+01 -0.82004904946E+02 -0.45453756479E+03  0.46197930599E+03  0.00000000000E+00 0. -1.
          1    1    1    2  502    0  0.74688187358E+02  0.20620999278E+03  0.70549444745E+03  0.73879855294E+03  0.00000000000E+00 0. -1.
         22    1    3    3    0    0 -0.56630482215E+02 -0.11515495031E+03  0.12251302463E+04  0.12318326975E+04  0.00000000000E+00 0. -1.
         22    1    3    3    0    0 -0.82762468099E+01 -0.90501375230E+01  0.62127583720E+01  0.13747713156E+02  0.00000000000E+00 0. -1.
</event>
<event>
 7    1  0.5553952E-006  0.1122480E+03  0.7818608E-02  0.1375359E+00
          2   -1    0    0  502    0  0.00000000000E+00  0.00000000000E+00  0.64870062160E+03  0.64870062160E+03  0.00000000000E+00 0. -1.
          1   -1    0    0  501    0 -0.00000000000E+00 -0.00000000000E+00 -0.47072649373E+02  0.47072649373E+02  0.00000000000E+00 0. -1.
         25    2    1    2    0    0  0.25358680419E+02 -0.86144566617E+02  0.15089879298E+03  0.21553697337E+03  0.12498716788E+03 0.  0.
          2    1    1    2  501    0 -0.20277718698E+02 -0.32673662193E+02  0.55636822500E+02  0.67632906892E+02  0.00000000000E+00 0. -1.
          1    1    1    2  502    0 -0.50809617205E+01  0.11881822881E+03  0.39509235675E+03  0.41260339072E+03  0.00000000000E+00 0. -1.
         22    1    3    3    0    0  0.12350377396E+02 -0.89564937541E+02  0.32043248319E+02  0.95922779470E+02  0.00000000000E+00 0.  1.
         22    1    3    3    0    0  0.13008303022E+02  0.34203709241E+01  0.11885554466E+03  0.11961419390E+03  0.00000000000E+00 0.  1.
</event>
<event>
 7    1  0.5553952E-006  0.5941243E+02  0.7818608E-02  0.1437177E+00
          2   -1    0    0  502    0  0.00000000000E+00  0.00000000000E+00  0.60082597988E+03  0.60082597988E+03  0.00000000000E+00 0. -1.
          1   -1    0    0  501    0 -0.00000000000E+00 -0.00000000000E+00 -0.62545596157E+03  0.62545596157E+03  0.00000000000E+00 0. -1.
         25    2    1    2    0    0  0.44741383883E+02  0.91008322969E+02  0.13539245979E+03  0.21033253328E+03  0.12499740041E+03 0.  0.
          2    1    1    2  501    0 -0.24464475569E+02 -0.37436023410E+02 -0.58521224367E+03  0.58691850930E+03  0.00000000000E+00 0. -1.
          1    1    1    2  502    0 -0.20276908315E+02 -0.53572299559E+02  0.42518980220E+03  0.42903089887E+03  0.00000000000E+00 0. -1.
         22    1    3    3    0    0  0.25838496063E+02  0.10285582884E+03  0.14997312579E+03  0.18368148482E+03  0.00000000000E+00 0. -1.
         22    1    3    3    0    0  0.18902887820E+02 -0.11847505874E+02 -0.14580666001E+02  0.26651048467E+02  0.00000000000E+00 0. -1.
</event>
<event>
 7    1  0.5553952E-006  0.4627989E+03  0.7818608E-02  0.1103140E+00
          2   -1    0    0  502    0  0.00000000000E+00  0.00000000000E+00  0.23682048412E+04  0.23682048412E+04  0.00000000000E+00 0. -1.
          1   -1    0    0  501    0 -0.00000000000E+00 -0.00000000000E+00 -0.42474759329E+03  0.42474759329E+03  0.00000000000E+00 0. -1.
         25    2    1    2    0    0 -0.45703841538E+03  0.12453553313E+03  0.12122466224E+04  0.13075016842E+04  0.12500227313E+03 0.  0.
          2    1    1    2  501    0  0.72424217897E+02  0.13565730478E+03 -0.30963480766E+03  0.34571937434E+03  0.00000000000E+00 0. -1.
          1    1    1    2  502    0  0.38461419748E+03 -0.26019283791E+03  0.10408454331E+04  0.11397313760E+04  0.00000000000E+00 0. -1.
         22    1    3    3    0    0 -0.15273758149E+03 -0.51637953936E+01  0.48617708207E+03  0.50963083571E+03  0.00000000000E+00 0. -1.
         22    1    3    3    0    0 -0.30430083389E+03  0.12969932852E+03  0.72606954038E+03  0.79787084844E+03  0.00000000000E+00 0. -1.
</event>
<event>
 7    1  0.5553952E-006  0.1999547E+03  0.7818608E-02  0.1173064E+00
          2   -1    0    0  502    0  0.00000000000E+00  0.00000000000E+00  0.30385691863E+03  0.30385691863E+03  0.00000000000E+00 0. -1.
          1   -1    0    0  501    0 -0.00000000000E+00 -0.00000000000E+00 -0.87098422159E+03  0.87098422159E+03  0.00000000000E+00 0. -1.
         25    2    1    2    0    0 -0.13184590920E+03 -0.14355056991E+03 -0.44201833312E+01  0.23159351013E+03  0.12500362402E+03 0.  0.
          2    1    1    2  501    0 -0.68626133135E+01  0.20712015292E+03 -0.70486955518E+03  0.73470194162E+03  0.00000000000E+00 0. -1.
          1    1    1    2  502    0  0.13870852251E+03 -0.63569583008E+02  0.14216243554E+03  0.20854568847E+03  0.00000000000E+00 0. -1.
         22    1    3    3    0    0 -0.74842133766E+02 -0.10298626723E+03 -0.61419733126E+02  0.14135027358E+03  0.00000000000E+00 0.  1.
         22    1    3    3    0    0 -0.57003775429E+02 -0.40564302686E+02  0.56999549795E+02  0.90243236546E+02  0.00000000000E+00 0.  1.
</event>
<event>
 7    1  0.5553952E-006  0.7828425E+02  0.7818608E-02  0.1383637E+00
          2   -1    0    0  502    0  0.00000000000E+00  0.00000000000E+00  0.76248971637E+03  0.76248971637E+03  0.00000000000E+00 0. -1.
          1   -1    0    0  501    0 -0.00000000000E+00 -0.00000000000E+00 -0.40721802971E+04  0.40721802971E+04  0.00000000000E+00 0. -1.
         25    2    1    2    0    0 -0.12505588433E+01 -0.10559610982E+03  0.49632263815E+03  0.52260453958E+03  0.12500896505E+03 0.  0.
          2    1    1    2  501    0 -0.35691185008E+02  0.69662094689E+02 -0.40560336514E+04  0.40567888347E+04  0.00000000000E+00 0. -1.
          1    1    1    2  502    0  0.36941743852E+02  0.35934015135E+02  0.25002043248E+03  0.25527663923E+03  0.00000000000E+00 0. -1.
         22    1    3    3    0    0 -0.29715239101E+02  0.31380709159E+01  0.25084242753E+03  0.25261584743E+03  0.00000000000E+00 0. -1.
         22    1    3    3    0    0  0.28464680257E+02 -0.10873418074E+03  0.24548021062E+03  0.26998869215E+03  0.00000000000E+00 0. -1.
</event>
<event>
 7    1  0.5553952E-006  0.2261577E+03  0.7818608E-02  0.1207437E+00
          2   -1    0    0  502    0  0.00000000000E+00  0.00000000000E+00  0.95485751422E+03  0.95485751422E+03  0.00000000000E+00 0. -1.
          1   -1    0    0  501    0 -0.00000000000E+00 -0.00000000000E+00 -0.23504074305E+03  0.23504074305E+03  0.00000000000E+00 0. -1.
         25    2    1    2    0    0 -0.15509662706E+02 -0.28630276118E+03 -0.19840042390E+02  0.31342513304E+03  0.12502746116E+03 0.  0.
          2    1    1    2  501    0 -0.52560945928E+02  0.75859042756E+02 -0.11893724028E+02  0.93052179319E+02  0.00000000000E+00 0. -1.
          1    1    1    2  502    0  0.68070608634E+02  0.21044371842E+03  0.75155053759E+03  0.78342094492E+03  0.00000000000E+00 0. -1.
         22    1    3    3    0    0  0.28406695192E+02 -0.25156617189E+03 -0.34601312515E+02  0.25551855118E+03  0.00000000000E+00 0.  1.
         22    1    3    3    0    0 -0.43916357898E+02 -0.34736589286E+02  0.14761270126E+02  0.57906581854E+02  0.00000000000E+00 0.  1.
</event>
<event>
 7    1  0.5553952E-006  0.5109273E+02  0.7818608E-02  0.1448869E+00
          2   -1    0    0  502    0  0.00000000000E+00  0.00000000000E+00  0.12843404794E+04  0.12843404794E+04  0.00000000000E+00 0. -1.
          1   -1    0    0  501    0 -0.00000000000E+00 -0.00000000000E+00 -0.20372663724E+03  0.20372663724E+03  0.00000000000E+00 0. -1.
         25    2    1    2    0    0 -0.90855293276E+02 -0.34422876476E+02  0.23865654851E+03  0.28639435009E+03  0.12500062749E+03 0.  0.
          2    1    1    2  501    0  0.44288349724E+02  0.24226513771E+02 -0.17574657248E+03  0.18285305475E+03  0.00000000000E+00 0. -1.
          1    1    1    2  502    0  0.46566943552E+02  0.10196362705E+02  0.10177038661E+04  0.10188197118E+04  0.00000000000E+00 0. -1.
         22    1    3    3    0    0 -0.90138805705E+02 -0.39878313027E+02  0.78136309200E+02  0.12577983526E+03  0.00000000000E+00 0.  1.
         22    1    3    3    0    0 -0.71648757118E+00  0.54554365518E+01  0.16052023931E+03  0.16061451482E+03  0.00000000000E+00 0.  1.
</event>
<event>
 7    1  0.5553952E-006  0.1116843E+03  0.7818608E-02  0.1384740E+00
          2   -1    0    0  502    0  0.00000000000E+00  0.00000000000E+00  0.14622757118E+04  0.14622757118E+04  0.00000000000E+00 0. -1.
          1   -1    0    0  501    0 -0.00000000000E+00 -0.00000000000E+00 -0.67720960734E+02  0.67720960734E+02  0.00000000000E+00 0. -1.
         25    2    1    2    0    0  0.13745575384E+03  0.18596422945E+02  0.39564512251E+03  0.43749146067E+03  0.12499521586E+03 0.  0.
          2    1    1    2  501    0 -0.33681857322E+02  0.12137998305E+02 -0.36691100437E+02  0.51264367418E+02  0.00000000000E+00 0. -1.
          1    1    1    2  502    0 -0.10377389651E+03 -0.30734421251E+02  0.10356007290E+04  0.10412408444E+04  0.00000000000E+00 0. -1.
         22    1    3    3    0    0  0.12131903463E+03 -0.11909816636E+02  0.38095540616E+03  0.39998396640E+03  0.00000000000E+00 0. -1.
         22    1    3    3    0    0  0.16136719208E+02  0.30506239581E+02  0.14689716351E+02  0.37507494273E+02  0.00000000000E+00 0. -1.
</event>
<event>
 7    1  0.5553952E-006  0.8590559E+02  0.7818608E-02  0.1345160E+00
          2   -1    0    0  502    0  0.00000000000E+00  0.00000000000E+00  0.34667017316E+03  0.34667017316E+03  0.00000000000E+00 0. -1.
          1   -1    0    0  501    0 -0.00000000000E+00 -0.00000000000E+00 -0.19383584836E+03  0.19383584836E+03  0.00000000000E+00 0. -1.
         25    2    1    2    0    0 -0.87638309120E+02  0.11524754060E+03  0.16121697964E+03  0.25015708605E+03  0.12500073734E+03 0.  0.
          2    1    1    2  501    0  0.38566079636E+02 -0.72993816025E+02 -0.12916972262E+03  0.15329793514E+03  0.00000000000E+00 0. -1.
          1    1    1    2  502    0  0.49072229483E+02 -0.42253724578E+02  0.12078706778E+03  0.13705100032E+03  0.00000000000E+00 0. -1.
         22    1    3    3    0    0 -0.10102261120E+03  0.49506548200E+02  0.14039840124E+03  0.17991158206E+03  0.00000000000E+00 0. -1.
         22    1    3    3    0    0  0.13384302077E+02  0.65740992404E+02  0.20818578395E+02  0.70245503990E+02  0.00000000000E+00 0. -1.
</event>
<event>
 7    1  0.5553952E-006  0.1242625E+03  0.7818608E-02  0.1310526E+00
          2   -1    0    0  502    0  0.00000000000E+00  0.00000000000E+00  0.64119802174E+03  0.64119802174E+03  0.00000000000E+00 0. -1.
          1   -1    0    0  501    0 -0.00000000000E+00 -0.00000000000E+00 -0.19157192288E+04  0.19157192288E+04  0.00000000000E+00 0. -1.
         25    2    1    2    0    0 -0.85680994696E+02 -0.13126714531E+03 -0.22265282384E+03  0.29961704884E+03  0.12499519870E+03 0.  0.
          2    1    1    2  501    0 -0.14716740168E+02  0.58969015891E+02 -0.16476690348E+04  0.16487896093E+04  0.00000000000E+00 0. -1.
          1    1    1    2  502    0  0.10039773486E+03  0.72298129417E+02  0.59580065160E+03  0.60851059245E+03  0.00000000000E+00 0. -1.
         22    1    3    3    0    0 -0.63175698707E+02 -0.11838489339E+03 -0.83449257465E+02  0.15801876617E+03  0.00000000000E+00 0. -1.
         22    1    3    3    0    0 -0.22505295989E+02 -0.12882251919E+02 -0.13920356638E+03  0.14159828267E+03  0.00000000000E+00 0. -1.
</event>
<event>
 7    1  0.5553952E-006  0.5800007E+02  0.7818608E-02  0.1477022E+00
          2   -1    0    0  502    0  0.00000000000E+00  0.00000000000E+00  0.98698716718E+03  0.98698716718E+03  0.00000000000E+00 0. -1.
          1   -1    0    0  501    0 -0.00000000000E+00 -0.00000000000E+00 -0.15256394243E+04  0.15256394243E+04  0.00000000000E+00 0. -1.
         25    2    1    2    0    0  0.58363755166E+02 -0.32253086401E+02 -0.12323302751E+02  0.14220879923E+03  0.12499955715E+03 0.  0.
          2    1    1    2  501    0 -0.29154128843E+02  0.50147425569E+02 -0.14474741138E+04  0.14486359231E+04  0.00000000000E+00 0. -1.
          1    1    1    2  502    0 -0.29209626323E+02 -0.17894339167E+02  0.92114515941E+03  0.92178186918E+03  0.00000000000E+00 0. -1.
         22    1    3    3    0    0  0.47895215771E+02 -0.68390920357E+02 -0.42768021251E+02  0.93810304993E+02  0.00000000000E+00 0. -1.
         22    1    3    3    0    0  0.10468539395E+02  0.36137833956E+02  0.30444718500E+02  0.48398494239E+02  0.00000000000E+00 0. -1.
</event>
<event>
 7    1  0.5553952E-006  0.4869700E+02  0.7818608E-02  0.1466264E+00
          2   -1    0    0  502    0  0.00000000000E+00  0.00000000000E+00  0.99449842610E+02  0.99449842610E+02  0.00000000000E+00 0. -1.
          1   -1    0    0  501    0 -0.00000000000E+00 -0.00000000000E+00 -0.11239795823E+04  0.11239795823E+04  0.00000000000E+00 0. -1.
         25    2    1    2    0    0 -0.60456056031E+02 -0.64475523999E+02 -0.11221452072E+03  0.18981399851E+03  0.12500090985E+03 0.  0.
          2    1    1    2  501    0  0.22128092452E+02  0.42745153696E+02 -0.96428324645E+03  0.96548380619E+03  0.00000000000E+00 0. -1.
          1    1    1    2  502    0  0.38327963580E+02  0.21730370303E+02  0.51968027504E+02  0.68131620180E+02  0.00000000000E+00 0. -1.
         22    1    3    3    0    0 -0.81225504667E+02 -0.81285635733E+02 -0.11545902632E+03  0.16289789423E+03  0.00000000000E+00 0.  1.
         22    1    3    3    0    0  0.20769448635E+02  0.16810111733E+02  0.32445056023E+01  0.26916104282E+02  0.00000000000E+00 0.  1.
</event>
<event>
 7    1  0.5553952E-006  0.5080874E+02  0.7818608E-02  0.1445938E+00
          2   -1    0    0  502    0  0.00000000000E+00  0.00000000000E+00  0.65578901158E+03  0.65578901158E+03  0.00000000000E+00 0. -1.
          1   -1    0    0  501    0 -0.00000000000E+00 -0.00000000000E+00 -0.72359339168E+03  0.72359339168E+03  0.00000000000E+00 0. -1.
         25    2    1    2    0    0 -0.53177746134E+01  0.56331159315E+01 -0.25985611337E+02  0.12791371619E+03  0.12500662411E+03 0.  0.
          2    1    1    2  501    0 -0.42954130073E+02 -0.23551350888E+02 -0.64461683231E+03  0.64647550914E+03  0.00000000000E+00 0. -1.
          1    1    1    2  502    0  0.48271904687E+02  0.17918234956E+02  0.60279806355E+03  0.60499317793E+03  0.00000000000E+00 0. -1.
         22    1    3    3    0    0  0.19552782433E+02 -0.18633453601E+02 -0.68131865039E+02  0.73290299001E+02  0.00000000000E+00 0.  1.
         22    1    3    3    0    0 -0.24870557046E+02  0.24266569533E+02  0.42146253702E+02  0.54623417193E+02  0.00000000000E+00 0.  1.
</event>
<event>
 7    1  0.5553952E-006  0.8629930E+02  0.7818608E-02  0.1339854E+00
          2   -1    0    0  502    0  0.00000000000E+00  0.00000000000E+00  0.41864622584E+03  0.41864622584E+03  0.00000000000E+00 0. -1.
          1   -1    0    0  501    0 -0.00000000000E+00 -0.00000000000E+00 -0.13061105856E+04  0.13061105856E+04  0.00000000000E+00 0. -1.
         25    2    1    2    0    0 -0.59660353926E+02 -0.10609457105E+03 -0.36413766286E+02  0.17824654455E+03  0.12502180782E+03 0.  0.
          2    1    1    2  501    0 -0.15597354442E+02  0.65653965579E+02 -0.11925644247E+04  0.11944721126E+04  0.00000000000E+00 0. -1.
          1    1    1    2  502    0  0.75257708368E+02  0.40440605475E+02  0.34151383118E+03  0.35203815437E+03  0.00000000000E+00 0. -1.
         22    1    3    3    0    0 -0.25747212110E+02 -0.49550316708E+02  0.46250904861E+02  0.72507234245E+02  0.00000000000E+00 0.  1.
         22    1    3    3    0    0 -0.33913141816E+02 -0.56544254345E+02 -0.82664671147E+02  0.10573931030E+03  0.00000000000E+00 0.  1.
</event>
<event>
 7    1  0.5553952E-006  0.9539585E+02  0.7818608E-02  0.1362777E+00
          2   -1    0    0  502    0  0.00000000000E+00  0.00000000000E+00  0.10629240034E+04  0.10629240034E+04  0.00000000000E+00 0. -1.
          1   -1    0    0  501    0 -0.00000000000E+00 -0.00000000000E+00 -0.24144336860E+03  0.24144336860E+03  0.00000000000E+00 0. -1.
         25    2    1    2    0    0  0.13196371980E+03 -0.46365888332E+02  0.71307816632E+03  0.73733932454E+03  0.12499835713E+03 0.  0.
          2    1    1    2  501    0 -0.81768963948E+02  0.48015469657E+02 -0.21750361413E+03  0.23727509551E+03  0.00000000000E+00 0. -1.
          1    1    1    2  502    0 -0.50194755852E+02 -0.16495813251E+01  0.32590608263E+03  0.32975295196E+03  0.00000000000E+00 0. -1.
         22    1    3    3    0    0 -0.80388682477E+01 -0.31501818185E+02  0.51177891912E+02  0.60631382734E+02  0.00000000000E+00 0.  1.
         22    1    3    3    0    0  0.14000258805E+03 -0.14864070147E+02  0.66190027441E+03  0.67670794181E+03  0.00000000000E+00 0.  1.
</event>
<event>
 7    1  0.5553952E-006  0.2957978E+03  0.7818608E-02  0.1181751E+00
          2   -1    0    0  502    0  0.00000000000E+00  0.00000000000E+00  0.11885848013E+04  0.11885848013E+04  0.00000000000E+00 0. -1.
          1   -1    0    0  501    0 -0.00000000000E+00 -0.00000000000E+00 -0.15543098190E+04  0.15543098190E+04  0.00000000000E+00 0. -1.
         25    2    1    2    0    0 -0.10805606627E+03 -0.19834773259E+03  0.12644126521E+03  0.28745482140E+03  0.12499977727E+03 0.  0.
          2    1    1    2  501    0 -0.58589265381E+02 -0.72875535053E+02 -0.14464465724E+04  0.14494658438E+04  0.00000000000E+00 0. -1.
          1    1    1    2  502    0  0.16664533165E+03  0.27122326764E+03  0.95428028948E+03  0.10059739551E+04  0.00000000000E+00 0. -1.
         22    1    3    3    0    0 -0.12564532637E+03 -0.18383782491E+03  0.13792120908E+03  0.26192623737E+03  0.00000000000E+00 0. -1.
         22    1    3    3    0    0  0.17589260098E+02 -0.14509907675E+02 -0.11479943871E+02  0.25528584035E+02  0.00000000000E+00 0. -1.
</event>
<event>
 7    1  0.5553952E-006  0.1223194E+03  0.7818608E-02  0.1337139E+00
          2   -1    0    0  502    0  0.00000000000E+00  0.00000000000E+00  0.22554843355E+04  0.22554843355E+04  0.00000000000E+00 0. -1.
          1   -1    0    0  501    0 -0.00000000000E+00 -0.00000000000E+00 -0.47003152533E+03  0.47003152533E+03  0.00000000000E+00 0. -1.
         25    2    1    2    0    0 -0.10362581923E+03 -0.58883998609E+02  0.30483082202E+03  0.35036090597E+03  0.12500119471E+03 0.  0.
          2    1    1    2  501    0  0.74136154216E+02  0.97697349924E+02 -0.43854403979E+03  0.45536997747E+03  0.00000000000E+00 0. -1.
          1    1    1    2  502    0  0.29489665009E+02 -0.38813351315E+02  0.19191660279E+04  0.19197849774E+04  0.00000000000E+00 0. -1.
         22    1    3    3    0    0 -0.11343040170E+03 -0.18216525062E+02  0.27763420191E+03  0.30046471987E+03  0.00000000000E+00 0.  1.
         22    1    3    3    0    0  0.98045824783E+01 -0.40667473547E+02  0.27196620109E+02  0.49896186103E+02  0.00000000000E+00 0.  1.
</event>
<event>
 7    1  0.5553952E-006  0.1223919E+03  0.7818608E-02  0.1324825E+00
          2   -1    0    0  502    0  0.00000000000E+00  0.00000000000E+00  0.65232087225E+03  0.65232087225E+03  0.00000000000E+00 0. -1.
          1   -1    0    0  501    0 -0.00000000000E+00 -0.00000000000E+00 -0.20882262165E+03  0.20882262165E+03  0.00000000000E+00 0. -1.
         25    2    1    2    0    0  0.12307722209E+03 -0.36271929400E+02  0.14528172042E+03  0.23064159182E+03  0.12500044052E+03 0.  0.
          2    1    1    2  501    0 -0.12163763619E+03 -0.17990312369E+02 -0.14149236295E+03  0.18745520705E+03  0.00000000000E+00 0. -1.
          1    1    1    2  502    0 -0.14395858970E+01  0.54262241769E+02  0.43970889312E+03  0.44304669503E+03  0.00000000000E+00 0. -1.
         22    1    3    3    0    0  0.60690441912E+02 -0.79525766876E+02  0.10368721664E+03  0.14407885421E+03  0.00000000000E+00 0.  1.
         22    1    3    3    0    0  0.62386780174E+02  0.43253837477E+02  0.41594503779E+02  0.86562737604E+02  0.00000000000E+00 0.  1.
</event>
<event>
 7    1  0.5553952E-006  0.1268036E+03  0.7818608E-02  0.1285715E+00
          2   -1    0    0  502    0  0.00000000000E+00  0.00000000000E+00  0.28450978011E+03  0.28450978011E+03  0.00000000000E+00 0. -1.
          1   -1    0    0  501    0 -0.00000000000E+00 -0.00000000000E+00 -0.45092191067E+03  0.45092191067E+03  0.00000000000E+00 0. -1.
         25    2    1    2    0    0 -0.18182251589E+03  0.76531148716E+02 -0.22265707940E+03  0.32267226308E+03  0.12499908138E+03 0.  0.
          2    1    1    2  501    0  0.67465689690E+02 -0.32573020325E+02 -0.15295962675E+03  0.17032107431E+03  0.00000000000E+00 0. -1.
          1    1    1    2  502    0  0.11435682620E+03 -0.43958128391E+02  0.20920457559E+03  0.24243835339E+03  0.00000000000E+00 0. -1.
         22    1    3    3    0    0 -0.46252592411E+02  0.57717300242E+02 -0.15108811713E+03  0.16822071273E+03  0.00000000000E+00 0. -1.
         22    1    3    3    0    0 -0.13556992348E+03  0.18813848474E+02 -0.71568962264E+02  0.15445155035E+03  0.00000000000E+00 0. -1.
</event>
<event>
 7    1  0.5553952E-006  0.4889518E+02  0.7818608E-02  0.1458515E+00
          2   -1    0    0  502    0  0.00000000000E+00  0.00000000000E+00  0.53621996629E+02  0.53621996629E+02  0.00000000000E+00 0. -1.
          1   -1    0    0  501    0 -0.00000000000E+00 -0.00000000000E+00 -0.88824476497E+03  0.88824476497E+03  0.00000000000E+00 0. -1.
         25    2    1    2    0    0 -0.78708912259E+02  0.48692646115E+02 -0.26829442177E+03  0.31011959262E+03  0.12500479319E+03 0.  0.
          2    1    1    2  501    0  0.42816511613E+02 -0.19266692136E+02 -0.58113587488E+03  0.58302947110E+03  0.00000000000E+00 0. -1.
          1    1    1    2  502    0  0.35892400646E+02 -0.29425953979E+02  0.14807528316E+02  0.48717697878E+02  0.00000000000E+00 0. -1.
         22    1    3    3    0    0 -0.13723581684E+02  0.72968885963E+02 -0.19753030313E+03  0.21102373248E+03  0.00000000000E+00 0. -1.
         22    1    3    3    0    0 -0.64985330575E+02 -0.24276239848E+02 -0.70764118637E+02  0.99095860143E+02  0.00000000000E+00 0. -1.
</event>
<event>
 7    1  0.5553952E-006  0.1059822E+03  0.7818608E-02  0.1369860E+00
          2   -1    0    0  502    0  0.00000000000E+00  0.00000000000E+00  0.14056417629E+03  0.14056417629E+03  0.00000000000E+00 0. -1.
          1   -1    0    0  501    0 -0.00000000000E+00 -0.00000000000E+00 -0.90562728155E+03  0.90562728155E+03  0.00000000000E+00 0. -1.
         25    2    1    2    0    0  0.13435122514E+03  0.15813522313E+02 -0.14839067622E+03  0.23652455280E+03  0.12499500832E+03 0.  0.
          2    1    1    2  501    0 -0.38181070093E+02  0.18932049812E+02 -0.68523182283E+03  0.68655580082E+03  0.00000000000E+00 0. -1.
          1    1    1    2  502    0 -0.96170155052E+02 -0.34745572125E+02  0.68559393793E+02  0.12311110422E+03  0.00000000000E+00 0. -1.
         22    1    3    3    0    0 -0.13488547996E+02  0.25967632184E+02 -0.38431046881E+01  0.29513188610E+02  0.00000000000E+00 0. -1.
         22    1    3    3    0    0  0.14783977314E+03 -0.10154109872E+02 -0.14454757153E+03  0.20701136419E+03  0.00000000000E+00 0. -1.
</event>
<event>
 7    1  0.5553952E-006  0.6925164E+02  0.7818608E-02  0.1396585E+00
          2   -1    0    0  502    0  0.00000000000E+00  0.00000000000E+00  0.12419329086E+04  0.12419329086E+04  0.00000000000E+00 0. -1.
          1   -1    0    0  501    0 -0.00000000000E+00 -0.00000000000E+00 -0.23422486221E+04  0.23422486221E+04  0.00000000000E+00 0. -1.
         25    2    1    2    0    0  0.48987488917E+01 -0.20068936134E+02 -0.81974624187E+02  0.15090281764E+03  0.12500024570E+03 0.  0.
          2    1    1    2  501    0  0.42047082611E+02 -0.31440584697E+02 -0.22244942550E+04  0.22251137405E+04  0.00000000000E+00 0. -1.
          1    1    1    2  502    0 -0.46945831503E+02  0.51509520831E+02  0.12061531657E+04  0.12081649726E+04  0.00000000000E+00 0. -1.
         22    1    3    3    0    0  0.11066812835E+02  0.39418322131E+02  0.91052523394E+01  0.41942628507E+02  0.00000000000E+00 0. -1.
         22    1    3    3    0    0 -0.61680639430E+01 -0.59487258265E+02 -0.91079876527E+02  0.10896018914E+03  0.00000000000E+00 0. -1.
</event>
<event>
 7    1  0.5553952E-006  0.1109869E+03  0.7818608E-02  0.1334161E+00
          2   -1    0    0  502    0  0.00000000000E+00  0.00000000000E+00  0.95482661120E+02  0.95482661120E+02  0.00000000000E+00 0. -1.
          1   -1    0    0  501    0 -0.00000000000E+00 -0.00000000000E+00 -0.10264015040E+04  0.10264015040E+04  0.00000000000E+00 0. -1.
         25    2    1    2    0    0  0.19766440265E+02 -0.63698897350E+02 -0.24320846786E+03  0.28146803261E+03  0.12500253140E+03 0.  0.
          2    1    1    2  501    0  0.36511556405E+02 -0.41314443270E+02 -0.71587048524E+03  0.71799061875E+03  0.00000000000E+00 0. -1.
          1    1    1    2  502    0 -0.56277996670E+02  0.10501334062E+03  0.28160110204E+02  0.12242551378E+03  0.00000000000E+00 0. -1.
         22    1    3    3    0    0  0.14702302750E+02  0.30399100970E+02 -0.20154361753E+02  0.39325072710E+02  0.00000000000E+00 0.  1.
         22    1    3    3    0    0  0.50641375153E+01 -0.94097998321E+02 -0.22305410611E+03  0.24214295990E+03  0.00000000000E+00 0.  1.
</event>
<event>
 7    1  0.5553952E-006  0.2461718E+03  0.7818608E-02  0.1199921E+00
          2   -1    0    0  502    0  0.00000000000E+00  0.00000000000E+00  0.49550891171E+03  0.49550891171E+03  0.00000000000E+00 0. -1.
          1   -1    0    0  501    0 -0.00000000000E+00 -0.00000000000E+00 -0.11307493112E+04  0.11307493112E+04  0.00000000000E+00 0. -1.
         25    2    1    2    0    0 -0.18777791552E+03  0.21279117858E+03 -0.56004344314E+03  0.64016753062E+03  0.12500071128E+03 0.  0.
          2    1    1    2  501    0  0.91141604811E+02  0.12157290684E+02 -0.49318288676E+03  0.50168112546E+03  0.00000000000E+00 0. -1.
          1    1    1    2  502    0  0.96636310706E+02 -0.22494846926E+03  0.41798593044E+03  0.48440956681E+03  0.00000000000E+00 0. -1.
         22    1    3    3    0    0 -0.14146508742E+03  0.17874956645E+03 -0.31719860689E+03  0.39061328022E+03  0.00000000000E+00 0. -1.
         22    1    3    3    0    0 -0.46312828093E+02  0.34041612125E+02 -0.24284483625E+03  0.24955425041E+03  0.00000000000E+00 0. -1.
</event>
<event>
 7    1  0.5553952E-006  0.1023061E+04  0.7818608E-02  0.1101666E+00
          2   -1    0    0  502    0  0.00000000000E+00  0.00000000000E+00  0.12939908697E+04  0.12939908697E+04  0.00000000000E+00 0. -1.
          1   -1    0    0  501    0 -0.00000000000E+00 -0.00000000000E+00 -0.35582014812E+04  0.35582014812E+04  0.00000000000E+00 0. -1.
         25    2    1    2    0    0 -0.73320146232E+03 -0.66884728035E+03 -0.11093099608E+04  0.14936983685E+04  0.12500063319E+03 0.  0.
          2    1    1    2  501    0  0.73490997282E+03  0.73972768725E+03 -0.21348967676E+04  0.23759364318E+04  0.00000000000E+00 0. -1.
          1    1    1    2  502    0 -0.17085105076E+01 -0.70880406900E+02  0.97999611694E+03  0.98255755063E+03  0.00000000000E+00 0. -1.
         22    1    3    3    0    0 -0.68355254501E+03 -0.57232936056E+03 -0.99858988346E+03  0.13386510875E+04  0.00000000000E+00 0. -1.
         22    1    3    3    0    0 -0.49648917307E+02 -0.96517919794E+02 -0.11072007733E+03  0.15504728103E+03  0.00000000000E+00 0. -1.
</event>
<event>
 7    1  0.5553952E-006  0.1918405E+03  0.7818608E-02  0.1225295E+00
          2   -1    0    0  502    0  0.00000000000E+00  0.00000000000E+00  0.15406427896E+04  0.15406427896E+04  0.00000000000E+00 0. -1.
          1   -1    0    0  501    0 -0.00000000000E+00 -0.00000000000E+00 -0.10810234931E+04  0.10810234931E+04  0.00000000000E+00 0. -1.
         25    2    1    2    0    0 -0.68463625172E+02 -0.10166963477E+03  0.12574683817E+03  0.21556490885E+03  0.12502791692E+03 0.  0.
          2    1    1    2  501    0 -0.82878040432E+02 -0.35328788498E+02 -0.10265258845E+04  0.10304718746E+04  0.00000000000E+00 0. -1.
          1    1    1    2  502    0  0.15134166560E+03  0.13699842327E+03  0.13603983428E+04  0.13756294991E+04  0.00000000000E+00 0. -1.
         22    1    3    3    0    0 -0.63588139650E+02 -0.38926484546E+02 -0.43731274052E+00  0.74558124612E+02  0.00000000000E+00 0. -1.
         22    1    3    3    0    0 -0.48754855218E+01 -0.62743150228E+02  0.12618415091E+03  0.14100678423E+03  0.00000000000E+00 0. -1.
</event>
<event>
 7    1  0.5553952E-006  0.1225170E+03  0.7818608E-02  0.1264732E+00
          2   -1    0    0  502    0  0.00000000000E+00  0.00000000000E+00  0.16293868319E+04  0.16293868319E+04  0.00000000000E+00 0. -1.
          1   -1    0    0  501    0 -0.00000000000E+00 -0.00000000000E+00 -0.60470407428E+03  0.60470407428E+03  0.00000000000E+00 0. -1.
         25    2    1    2    0    0 -0.46181473422E+02  0.18164385163E+02  0.18895018112E+03  0.23192653209E+03  0.12500028785E+03 0.  0.
          2    1    1    2  501    0 -0.36855386430E+02  0.87364231980E+02 -0.57615514787E+03  0.58390545721E+03  0.00000000000E+00 0. -1.
          1    1    1    2  502    0  0.83036859852E+02 -0.10552861714E+03  0.14118877243E+04  0.14182589169E+04  0.00000000000E+00 0. -1.
         22    1    3    3    0    0 -0.73989578991E+01  0.97125364128E+01  0.19174699167E+03  0.19213533448E+03  0.00000000000E+00 0. -1.
         22    1    3    3    0    0 -0.38782515523E+02  0.84518487505E+01 -0.27968105487E+01  0.39791197605E+02  0.00000000000E+00 0. -1.
</event>
<event>
 7    1  0.5553952E-006  0.2718314E+03  0.7818608E-02  0.1282016E+00
          2   -1    0    0  502    0  0.00000000000E+00  0.00000000000E+00  0.33994186979E+03  0.33994186979E+03  0.00000000000E+00 0. -1.
          1   -1    0    0  501    0 -0.00000000000E+00 -0.00000000000E+00 -0.10863713497E+04  0.10863713497E+04  0.00000000000E+00 0. -1.
         25    2    1    2    0    0  0.30331943734E+03 -0.10956536770E+02 -0.51539424827E+03  0.61104756271E+03  0.12500066390E+03 0.  0.
          2    1    1    2  501    0 -0.35540793149E+02 -0.68320611915E+01 -0.46065234473E+03  0.46207186426E+03  0.00000000000E+00 0. -1.
          1    1    1    2  502    0 -0.26777864419E+03  0.17788597961E+02  0.22961711304E+03  0.35319379256E+03  0.00000000000E+00 0. -1.
         22    1    3    3    0    0  0.24931799673E+03  0.12930544404E+02 -0.48297846743E+03  0.54368636407E+03  0.00000000000E+00 0.  1.
         22    1    3    3    0    0  0.54001440609E+02 -0.23887081174E+02 -0.32415780842E+02  0.67361198641E+02  0.00000000000E+00 0.  1.
</event>
<event>
 7    1  0.5553952E-006  0.6581018E+02  0.7818608E-02  0.1506733E+00
          2   -1    0    0  502    0  0.00000000000E+00  0.00000000000E+00  0.21243009093E+04  0.21243009093E+04  0.00000000000E+00 0. -1.
          1   -1    0    0  501    0 -0.00000000000E+00 -0.00000000000E+00 -0.19892091846E+02  0.19892091846E+02  0.00000000000E+00 0. -1.
         25    2    1    2    0    0 -0.20086728983E+02  0.49917665897E+02  0.32742890105E+03  0.35458392711E+03  0.12499930428E+03 0.  0.
          2    1    1    2  501    0  0.12141501070E+02 -0.73154885403E+02  0.21487374893E+03  0.22730987943E+03  0.00000000000E+00 0. -1.
          1    1    1    2  502    0  0.79452279124E+01  0.23237219505E+02  0.15621061675E+04  0.15622991946E+04  0.00000000000E+00 0. -1.
         22    1    3    3    0    0 -0.32839209391E+01  0.89330679042E+02  0.25748216679E+03  0.27255792149E+03  0.00000000000E+00 0.  1.
         22    1    3    3    0    0 -0.16802808044E+02 -0.39413013145E+02  0.69946734260E+02  0.82026005614E+02  0.00000000000E+00 0.  1.
</event>
<event>
 7    1  0.5553952E-006  0.9026624E+02  0.7818608E-02  0.1360457E+00
          2   -1    0    0  502    0  0.00000000000E+00  0.00000000000E+00  0.15604365362E+04  0.15604365362E+04  0.00000000000E+00 0. -1.
          1   -1    0    0  501    0 -0.00000000000E+00 -0.00000000000E+00 -0.15531234623E+04  0.15531234623E+04  0.00000000000E+00 0. -1.
         25    2    1    2    0    0  0.33368535866E+02  0.41291536769E+02  0.37968744000E+03  0.40325172408E+03  0.12502380046E+03 0.  0.
          2    1    1    2  501    0 -0.85893141029E+02 -0.28254464266E+02 -0.15393875950E+04  0.15420408924E+04  0.00000000000E+00 0. -1.
          1    1    1    2  502    0  0.52524605163E+02 -0.13037072503E+02  0.11670132289E+04  0.11682673820E+04  0.00000000000E+00 0. -1.
         22    1    3    3    0    0 -0.34927256862E+02  0.55969325984E+02  0.18429351903E+03  0.19574621293E+03  0.00000000000E+00 0.  1.
         22    1    3    3    0    0  0.68295792728E+02 -0.14677789214E+02  0.19539392098E+03  0.20750551114E+03  0.00000000000E+00 0.  1.
</event>
<event>
 7    1  0.5553952E-006  0.3965431E+02  0.7818608E-02  0.1532925E+00
          2   -1    0    0  502    0  0.00000000000E+00  0.00000000000E+00  0.22644740615E+04  0.22644740615E+04  0.00000000000E+00 0. -1.
          1   -1    0    0  501    0 -0.00000000000E+00 -0.00000000000E+00 -0.85436800520E+02  0.85436800520E+02  0.00000000000E+00 0. -1.
         25    2    1    2    0    0 -0.18238932722E+02 -0.13507459715E+02  0.78191658768E+02  0.14917749408E+03  0.12499951642E+03 0.  0.
          2    1    1    2  501    0  0.39500412888E+02 -0.13289359500E+02 -0.41089274244E+02  0.58525363324E+02  0.00000000000E+00 0. -1.
          1    1    1    2  502    0 -0.21261480166E+02  0.26796819215E+02  0.21419348764E+04  0.21422080046E+04  0.00000000000E+00 0. -1.
         22    1    3    3    0    0  0.32218162889E+02 -0.47342833352E+02  0.10497089066E+02  0.58219779874E+02  0.00000000000E+00 0. -1.
         22    1    3    3    0    0 -0.50457095611E+02  0.33835373637E+02  0.67694569702E+02  0.90957714208E+02  0.00000000000E+00 0. -1.
</event>
<event>
 7    1  0.5553952E-006  0.2710114E+03  0.7818608E-02  0.1104345E+00
          2   -1    0    0  502    0  0.00000000000E+00  0.00000000000E+00  0.17318436512E+04  0.17318436512E+04  0.00000000000E+00 0. -1.
          1   -1    0    0  501    0 -0.00000000000E+00 -0.00000000000E+00 -0.45027493610E+03  0.45027493610E+03  0.00000000000E+00 0. -1.
         25    2    1    2    0    0  0.20419568652E+03  0.23960544604E+03  0.67114787152E+03  0.75177855097E+03  0.12499950437E+03 0.  0.
          2    1    1    2  501    0  0.83850886671E+02 -0.24458490491E+03 -0.34573635897E+03  0.43172488557E+03  0.00000000000E+00 0. -1.
          1    1    1    2  502    0 -0.28804657319E+03  0.49794588721E+01  0.95615720255E+03  0.99861515076E+03  0.00000000000E+00 0. -1.
         22    1    3    3    0    0  0.20364390032E+03  0.15996582398E+03  0.52163749637E+03  0.58237924122E+03  0.00000000000E+00 0.  1.
         22    1    3    3    0    0  0.55178620480E+00  0.79639622057E+02  0.14951037514E+03  0.16939930975E+03  0.00000000000E+00 0.  1.
</event>
<event>
 7    1  0.5553952E-006  0.6882809E+02  0.7818608E-02  0.1370742E+00
          2   -1    0    0  502    0  0.00000000000E+00  0.00000000000E+00  0.48598118717E+03  0.48598118717E+03  0.00000000000E+00 0. -1.
          1   -1    0    0  501    0 -0.00000000000E+00 -0.00000000000E+00 -0.16094646561E+04  0.16094646561E+04  0.00000000000E+00 0. -1.
         25    2    1    2    0    0 -0.13307438523E+03 -0.46439905112E+01 -0.17334398292E+03  0.25180041019E+03  0.12499980602E+03 0.  0.
          2    1    1    2  501    0  0.65140362063E+02  0.79274564611E+00 -0.13935362601E+04  0.13950581362E+04  0.00000000000E+00 0. -1.
          1    1    1    2  502    0  0.67934023172E+02  0.38512448651E+01  0.44339677411E+03  0.44858729684E+03  0.00000000000E+00 0. -1.
         22    1    3    3    0    0 -0.94840040483E+02 -0.54207970287E+02 -0.14873204692E+03  0.18453823209E+03  0.00000000000E+00 0.  1.
         22    1    3    3    0    0 -0.38234344752E+02  0.49563979776E+02 -0.24611936003E+02  0.67262178107E+02  0.00000000000E+00 0.  1.
</event>
<event>
 7    1  0.5553952E-006  0.7986977E+02  0.7818608E-02  0.1373489E+00
          2   -1    0    0  502    0  0.00000000000E+00  0.00000000000E+00  0.14170729269E+03  0.14170729269E+03  0.00000000000E+00 0. -1.
          1   -1    0    0  501    0 -0.00000000000E+00 -0.00000000000E+00 -0.18389688703E+04  0.18389688703E+04  0.00000000000E+00 0. -1.
         25    2    1    2    0    0  0.18076446798E+02 -0.78150619981E+02 -0.37625872050E+03  0.40451209223E+03  0.12500052269E+03 0.  0.
          2    1    1    2  501    0  0.36520072103E+02  0.72571374563E+02 -0.14414843005E+04  0.14437719032E+04  0.00000000000E+00 0. -1.
          1    1    1    2  502    0 -0.54596518900E+02  0.55792454183E+01  0.12048144331E+03  0.13239216758E+03  0.00000000000E+00 0. -1.
         22    1    3    3    0    0  0.28328831706E+02 -0.30608522204E+02 -0.34315460423E+03  0.34567974593E+03  0.00000000000E+00 0. -1.
         22    1    3    3    0    0 -0.10252384908E+02 -0.47542097777E+02 -0.33104116267E+02  0.58832346300E+02  0.00000000000E+00 0. -1.
</event>
<event>
 7    1  0.5553952E-006  0.5167377E+02  0.7818608E-02  0.1540422E+00
          2   -1    0    0  502    0  0.00000000000E+00  0.00000000000E+00  0.43951029395E+03  0.43951029395E+03  0.00000000000E+00 0. -1.
          1   -1    0    0  501    0 -0.00000000000E+00 -0.00000000000E+00 -0.13594279869E+03  0.13594279869E+03  0.00000000000E+00 0. -1.
         25    2    1    2    0    0  0.35512117157E+02 -0.46595370227E+02  0.19221442053E+03  0.23664999627E+03  0.12499839313E+03 0.  0.
          2    1    1    2  501    0 -0.45809624587E+02  0.23820579510E+02 -0.10711498467E+03  0.11890988880E+03  0.00000000000E+00 0. -1.
          1    1    1    2  502    0  0.10297507430E+02  0.22774790718E+02  0.21846805940E+03  0.21989320756E+03  0.00000000000E+00 0. -1.
         22    1    3    3    0    0 -0.85950189828E+00 -0.40800794607E+02  0.19546195390E+03  0.19967678635E+03  0.00000000000E+00 0.  1.
         22    1    3    3    0    0  0.36371619055E+02 -0.57945756205E+01 -0.32475333671E+01  0.36973209927E+02  0.00000000000E+00 0.  1.
</event>
<event>
 7    1  0.5553952E-006  0.3963840E+02  0.7818608E-02  0.1521850E+00
          2   -1    0    0  502    0  0.00000000000E+00  0.00000000000E+00  0.10652000084E+04  0.10652000084E+04  0.00000000000E+00 0. -1.
          1   -1    0    0  501    0 -0.00000000000E+00 -0.00000000000E+00 -0.26724328238E+02  0.26724328238E+02  0.00000000000E+00 0. -1.
         25    2    1    2    0    0  0.15575415915E+02 -0.28527570989E+02  0.49029899132E+03  0.50703377472E+03  0.12503492286E+03 0.  0.
          2    1    1    2  501    0  0.20665193952E+02  0.35055617883E+02  0.56129110171E+01  0.41078599737E+02  0.00000000000E+00 0. -1.
          1    1    1    2  502    0 -0.36240609867E+02 -0.65280468938E+01  0.54256377781E+03  0.54381196217E+03  0.00000000000E+00 0. -1.
         22    1    3    3    0    0 -0.18272315388E+02  0.42007580742E+02  0.25463138340E+03  0.25871926052E+03  0.00000000000E+00 0.  1.
         22    1    3    3    0    0  0.33847731303E+02 -0.70535151731E+02  0.23566760792E+03  0.24831451421E+03  0.00000000000E+00 0.  1.
</event>
<event>
 7    1  0.5553952E-006  0.8250641E+02  0.7818608E-02  0.1455505E+00
          2   -1    0    0  502    0  0.00000000000E+00  0.00000000000E+00  0.32526240151E+04  0.32526240151E+04  0.00000000000E+00 0. -1.
          1   -1    0    0  501    0 -0.00000000000E+00 -0.00000000000E+00 -0.36031911359E+03  0.36031911359E+03  0.00000000000E+00 0. -1.
         25    2    1    2    0    0  0.91183548429E+02  0.41342534682E+02  0.14496050290E+04  0.14584205418E+04  0.12494835654E+03 0.  0.
          2    1    1    2  501    0 -0.64783393245E+02 -0.51014114422E+02 -0.35102371011E+03  0.36057866405E+03  0.00000000000E+00 0. -1.
          1    1    1    2  502    0 -0.26400155184E+02  0.96715797396E+01  0.17937235826E+04  0.17939439229E+04  0.00000000000E+00 0. -1.
         22    1    3    3    0    0 -0.30240071400E+02  0.10349707397E+02  0.42062760191E+03  0.42184020416E+03  0.00000000000E+00 0.  1.
         22    1    3    3    0    0  0.12142361983E+03  0.30992827285E+02  0.10289774271E+04  0.10365803376E+04  0.00000000000E+00 0.  1.
</event>
<event>
 7    1  0.5553952E-006  0.3545748E+02  0.7818608E-02  0.1565725E+00
          2   -1    0    0  502    0  0.00000000000E+00  0.00000000000E+00  0.23049887292E+03  0.23049887292E+03  0.00000000000E+00 0. -1.
          1   -1    0    0  501    0 -0.00000000000E+00 -0.00000000000E+00 -0.70000044256E+03  0.70000044256E+03  0.00000000000E+00 0. -1.
         25    2    1    2    0    0 -0.11131295902E+02 -0.23104775192E+02 -0.50349570091E+02  0.13717479414E+03  0.12499643416E+03 0.  0.
          2    1    1    2  501    0  0.35500066707E+02  0.39723596577E+01 -0.60442462722E+03  0.60547928484E+03  0.00000000000E+00 0. -1.
          1    1    1    2  502    0 -0.24368770806E+02  0.19132415534E+02  0.18527262767E+03  0.18784523650E+03  0.00000000000E+00 0. -1.
         22    1    3    3    0    0  0.26336160996E+00  0.49955590172E+02 -0.44738946374E+01  0.50156216783E+02  0.00000000000E+00 0. -1.
         22    1    3    3    0    0 -0.11394657512E+02 -0.73060365364E+02 -0.45875675453E+02  0.87018577357E+02  0.00000000000E+00 0. -1.
</event>
<event>
 7    1  0.5553952E-006  0.4502007E+02  0.7818608E-02  0.1531799E+00
          2   -1    0    0  502    0  0.00000000000E+00  0.00000000000E+00  0.60267643323E+03  0.60267643323E+03  0.00000000000E+00 0. -1.
          1   -1    0    0  501    0 -0.00000000000E+00 -0.00000000000E+00 -0.11153369928E+04  0.11153369928E+04  0.00000000000E+00 0. -1.
         25    2    1    2    0    0  0.71429331408E+02 -0.13949103014E+02 -0.51503835102E+03  0.53496532989E+03  0.12500669706E+03 0.  0.
          2    1    1    2  501    0 -0.41132670684E+02  0.12086861523E+02 -0.58916714296E+03  0.59072490311E+03  0.00000000000E+00 0. -1.
          1    1    1    2  502    0 -0.30296660724E+02  0.18622414914E+01  0.59154493439E+03  0.59232319303E+03  0.00000000000E+00 0. -1.
         22    1    3    3    0    0  0.50141959282E+02 -0.34997621735E+02 -0.49540629154E+03  0.49916574733E+03  0.00000000000E+00 0. -1.
         22    1    3    3    0    0  0.21287372126E+02  0.21048518721E+02 -0.19632059471E+02  0.35799582560E+02  0.00000000000E+00 0. -1.
</event>
<event>
 7    1  0.5553952E-006  0.9157732E+02  0.7818608E-02  0.1388966E+00
          2   -1    0    0  502    0  0.00000000000E+00  0.00000000000E+00  0.76974002411E+03  0.76974002411E+03  0.00000000000E+00 0. -1.
          1   -1    0    0  501    0 -0.00000000000E+00 -0.00000000000E+00 -0.43148517645E+02  0.43148517645E+02  0.00000000000E+00 0. -1.
         25    2    1    2    0    0 -0.10791847781E+03 -0.14322776602E+02  0.35905801183E+03  0.39547373038E+03  0.12500110312E+03 0.  0.
          2    1    1    2  501    0  0.22343467724E+02  0.35798162726E+02  0.29435307892E+01  0.42301340144E+02  0.00000000000E+00 0. -1.
          1    1    1    2  502    0  0.85575010084E+02 -0.21475386123E+02  0.36458996385E+03  0.37511347123E+03  0.00000000000E+00 0. -1.
         22    1    3    3    0    0 -0.31914297906E+01  0.42736267676E+02  0.62004229022E+02  0.75373060277E+02  0.00000000000E+00 0. -1.
         22    1    3    3    0    0 -0.10472704802E+03 -0.57059044278E+02  0.29705378281E+03  0.32010067010E+03  0.00000000000E+00 0. -1.
</event>
<event>
 7    1  0.5553952E-006  0.4927171E+02  0.7818608E-02  0.1480556E+00
          2   -1    0    0  502    0  0.00000000000E+00  0.00000000000E+00  0.54099304389E+02  0.54099304389E+02  0.00000000000E+00 0. -1.
          1   -1    0    0  501    0 -0.00000000000E+00 -0.00000000000E+00 -0.80796725877E+03  0.80796725877E+03  0.00000000000E+00 0. -1.
         25    2    1    2    0    0  0.38920771938E+02  0.24308037386E+02 -0.37733765524E+03  0.40014170620E+03  0.12499588716E+03 0.  0.
          2    1    1    2  501    0 -0.97710141007E+01 -0.50707893073E+02 -0.40818608207E+03  0.41143971701E+03  0.00000000000E+00 0. -1.
          1    1    1    2  502    0 -0.29149757838E+02  0.26399855687E+02  0.31655782934E+02  0.50485139947E+02  0.00000000000E+00 0. -1.
         22    1    3    3    0    0 -0.35895472830E+02 -0.17857076092E+02 -0.18815194985E+03  0.19237597659E+03  0.00000000000E+00 0.  1.
         22    1    3    3    0    0  0.74816244768E+02  0.42165113478E+02 -0.18918570539E+03  0.20776572961E+03  0.00000000000E+00 0.  1.
</event>
<event>
 7    1  0.5553952E-006  0.6912016E+02  0.7818608E-02  0.1492033E+00
          2   -1    0    0  502    0  0.00000000000E+00  0.00000000000E+00  0.10984526281E+04  0.10984526281E+04  0.00000000000E+00 0. -1.
          1   -1    0    0  501    0 -0.00000000000E+00 -0.00000000000E+00 -0.33626313884E+03  0.33626313884E+03  0.00000000000E+00 0. -1.
         25    2    1    2    0    0 -0.72878797045E+02  0.45718729404E+02 -0.14509469183E+03  0.20995020648E+03  0.12500039330E+03 0.  0.
          2    1    1    2  501    0  0.70667091420E+01 -0.24885548965E+02 -0.15656060183E+03  0.15868349306E+03  0.00000000000E+00 0. -1.
          1    1    1    2  502    0  0.65812087903E+02 -0.20833180439E+02  0.10638447829E+04  0.10660820674E+04  0.00000000000E+00 0. -1.
         22    1    3    3    0    0 -0.61613999143E+02  0.68494193451E+02 -0.37621789261E+02  0.99514513786E+02  0.00000000000E+00 0. -1.
         22    1    3    3    0    0 -0.11264797902E+02 -0.22775464047E+02 -0.10747290256E+03  0.11043569269E+03  0.00000000000E+00 0. -1.
</event>
<event>
 7    1  0.5553952E-006  0.9789614E+02  0.7818608E-02  0.1361070E+00
          2   -1    0    0  502    0  0.00000000000E+00  0.00000000000E+00  0.35683973482E+03  0.35683973482E+03  0.00000000000E+00 0. -1.
          1   -1    0    0  501    0 -0.00000000000E+00 -0.00000000000E+00 -0.23769685569E+03  0.23769685569E+03  0.00000000000E+00 0. -1.
         25    2    1    2    0    0  0.68439923244E+02  0.25774386054E+02  0.57559086507E+02  0.15584225961E+03  0.12500167748E+03 0.  0.
          2    1    1    2  501    0  0.36114263215E+02 -0.34063293639E+02 -0.17393327654E+03  0.18087933179E+03  0.00000000000E+00 0. -1.
          1    1    1    2  502    0 -0.10455418646E+03  0.82889075848E+01  0.23551706916E+03  0.25781499910E+03  0.00000000000E+00 0. -1.
         22    1    3    3    0    0  0.25428848970E+02  0.44782703145E+02  0.86468418791E+02  0.10064245779E+03  0.00000000000E+00 0. -1.
         22    1    3    3    0    0  0.43011074274E+02 -0.19008317091E+02 -0.28909332283E+02  0.55199801828E+02  0.00000000000E+00 0. -1.
</event>
<event>
 7    1  0.5553952E-006  0.1147725E+03  0.7818608E-02  0.1290389E+00
          2   -1    0    0  502    0  0.00000000000E+00  0.00000000000E+00  0.28336473504E+04  0.28336473504E+04  0.00000000000E+00 0. -1.
          1   -1    0    0  501    0 -0.00000000000E+00 -0.00000000000E+00 -0.34656345893E+03  0.34656345893E+03  0.00000000000E+00 0. -1.
         25    2    1    2    0    0  0.56658700567E+02 -0.20028383848E+02  0.49185979135E+03  0.51104101668E+03  0.12500208747E+03 0.  0.
          2    1    1    2  501    0  0.25795910283E+02 -0.74896916957E+02 -0.33059574937E+03  0.33995371253E+03  0.00000000000E+00 0. -1.
          1    1    1    2  502    0 -0.82454610850E+02  0.94925300804E+02  0.23258198495E+04  0.23292160802E+04  0.00000000000E+00 0. -1.
         22    1    3    3    0    0  0.39785170526E+02  0.50313198470E+02  0.18620480721E+03  0.19694290533E+03  0.00000000000E+00 0.  1.
         22    1    3    3    0    0  0.16873530041E+02 -0.70341582318E+02  0.30565498415E+03  0.31409811135E+03  0.00000000000E+00 0.  1.
</event>
<event>
 7    1  0.5553952E-006  0.2492335E+03  0.7818608E-02  0.1272121E+00
          2   -1    0    0  502    0  0.00000000000E+00  0.00000000000E+00  0.17857999575E+04  0.17857999575E+04  0.00000000000E+00 0. -1.
          1   -1    0    0  501    0 -0.00000000000E+00 -0.00000000000E+00 -0.16817357698E+04  0.16817357698E+04  0.00000000000E+00 0. -1.
         25    2    1    2    0    0 -0.20465141809E+03 -0.17219819212E+03 -0.67729451593E+02  0.30289685700E+03  0.12499922829E+03 0.  0.
          2    1    1    2  501    0 -0.74318787831E+01  0.42748095693E+02 -0.14868524849E+04  0.14874854434E+04  0.00000000000E+00 0. -1.
          1    1    1    2  502    0  0.21208329687E+03  0.12945009643E+03  0.16586461241E+04  0.16771534269E+04  0.00000000000E+00 0. -1.
         22    1    3    3    0    0 -0.17154892015E+03 -0.14746229236E+03 -0.31635240377E+01  0.22623918219E+03  0.00000000000E+00 0. -1.
         22    1    3    3    0    0 -0.33102497941E+02 -0.24735899762E+02 -0.64565927555E+02  0.76657674815E+02  0.00000000000E+00 0. -1.
</event>
<event>
 7    1  0.5553952E-006  0.6181359E+02  0.7818608E-02  0.1494185E+00
          2   -1    0    0  502    0  0.00000000000E+00  0.00000000000E+00  0.50098278812E+03  0.50098278812E+03  0.00000000000E+00 0. -1.
          1   -1    0    0  501    0 -0.00000000000E+00 -0.00000000000E+00 -0.14324070605E+03  0.14324070605E+03  0.00000000000E+00 0. -1.
         25    2    1    2    0    0  0.10301267320E+01  0.65457902358E+02  0.42780435363E+02  0.14744930283E+03  0.12500133244E+03 0.  0.
          2    1    1    2  501    0 -0.27736269727E+02 -0.55509905499E+02 -0.79742713893E+02  0.10104232126E+03  0.00000000000E+00 0. -1.
          1    1    1    2  502    0  0.26706142995E+02 -0.99479968594E+01  0.39470436060E+03  0.39573187007E+03  0.00000000000E+00 0. -1.
         22    1    3    3    0    0 -0.21822251601E+02  0.35373394880E+02 -0.39231312452E+02  0.57154034039E+02  0.00000000000E+00 0.  1.
         22    1    3    3    0    0  0.22852378333E+02  0.30084507478E+02  0.82011747815E+02  0.90295268787E+02  0.00000000000E+00 0.  1.
</event>
<event>
 7    1  0.5553952E-006  0.2065899E+03  0.7818608E-02  0.1233318E+00
          2   -1    0    0  502    0  0.00000000000E+00  0.00000000000E+00  0.13116466311E+04  0.13116466311E+04  0.00000000000E+00 0. -1.
          1   -1    0    0  501    0 -0.00000000000E+00 -0.00000000000E+00 -0.27420684395E+03  0.27420684395E+03  0.00000000000E+00 0. -1.
         25    2    1    2    0    0 -0.25184050456E+03 -0.77025112126E+02 -0.25544574760E+02  0.29263194598E+03  0.12499769146E+03 0.  0.
          2    1    1    2  501    0  0.73800839393E+02 -0.21976877919E+02 -0.92248989566E+02  0.12016415079E+03  0.00000000000E+00 0. -1.
          1    1    1    2  502    0  0.17803966517E+03  0.99001990045E+02  0.11552333515E+04  0.11730573783E+04  0.00000000000E+00 0. -1.
         22    1    3    3    0    0 -0.91300770960E+01 -0.61324681246E+01 -0.37914555768E+02  0.39477576068E+02  0.00000000000E+00 0. -1.
         22    1    3    3    0    0 -0.24271042747E+03 -0.70892644001E+02  0.12369981008E+02  0.25315436991E+03  0.00000000000E+00 0. -1.
</event>
<event>
 7    1  0.5553952E-006  0.1037847E+03  0.7818608E-02  0.1412168E+00
          2   -1    0    0  502    0  0.00000000000E+00  0.00000000000E+00  0.26119096152E+03  0.26119096152E+03  0.00000000000E+00 0. -1.
          1   -1    0    0  501    0 -0.00000000000E+00 -0.00000000000E+00 -0.11229475379E+04  0.11229475379E+04  0.00000000000E+00 0. -1.
         25    2    1    2    0    0 -0.10988239874E+03 -0.20465066867E+02 -0.45681172364E+03  0.48661578465E+03  0.12500004200E+03 0.  0.
          2    1    1    2  501    0  0.91798611503E+02  0.45632402898E+02 -0.64620210294E+03  0.65428316432E+03  0.00000000000E+00 0. -1.
          1    1    1    2  502    0  0.18083787238E+02 -0.25167336032E+02  0.24125725017E+03  0.24323955049E+03  0.00000000000E+00 0. -1.
         22    1    3    3    0    0 -0.42008248283E+02 -0.59848248394E+02 -0.32576557237E+03  0.33387080420E+03  0.00000000000E+00 0. -1.
         22    1    3    3    0    0 -0.67874150457E+02  0.39383181528E+02 -0.13104615127E+03  0.15274498044E+03  0.00000000000E+00 0. -1.
</event>
<event>
 7    1  0.5553952E-006  0.9307791E+02  0.7818608E-02  0.1312940E+00
          2   -1    0    0  502    0  0.00000000000E+00  0.00000000000E+00  0.21861369162E+03  0.21861369162E+03  0.00000000000E+00 0. -1.
          1   -1    0    0  501    0 -0.00000000000E+00 -0.00000000000E+00 -0.94487834844E+03  0.94487834844E+03  0.00000000000E+00 0. -1.
         25    2    1    2    0    0 -0.11910824546E+03 -0.50664733151E+02 -0.24240839563E+03  0.30189892730E+03  0.12500977047E+03 0.  0.
          2    1    1    2  501    0  0.88838954621E+02 -0.22725001012E+02 -0.66107554403E+03  0.66740516963E+03  0.00000000000E+00 0. -1.
          1    1    1    2  502    0  0.30269290840E+02  0.73389734163E+02  0.17721928284E+03  0.19418794314E+03  0.00000000000E+00 0. -1.
         22    1    3    3    0    0 -0.92174426714E+02  0.90300788034E+01 -0.20851542926E+03  0.22815861041E+03  0.00000000000E+00 0.  1.
         22    1    3    3    0    0 -0.26933818748E+02 -0.59694811955E+02 -0.33892966373E+02  0.73740316898E+02  0.00000000000E+00 0.  1.
</event>
<event>
 7    1  0.5553952E-006  0.1782647E+03  0.7818608E-02  0.1272098E+00
          2   -1    0    0  502    0  0.00000000000E+00  0.00000000000E+00  0.72326129245E+03  0.72326129245E+03  0.00000000000E+00 0. -1.
          1   -1    0    0  501    0 -0.00000000000E+00 -0.00000000000E+00 -0.97660215039E+03  0.97660215039E+03  0.00000000000E+00 0. -1.
         25    2    1    2    0    0  0.16188377130E+03  0.15354660209E+03 -0.23872517955E+03  0.34985457235E+03  0.12500238404E+03 0.  0.
          2    1    1    2  501    0 -0.10433386555E+03 -0.13432067772E+03 -0.67029060182E+03  0.69153242213E+03  0.00000000000E+00 0. -1.
          1    1    1    2  502    0 -0.57549905755E+02 -0.19225924363E+02  0.65567492343E+03  0.65847644836E+03  0.00000000000E+00 0. -1.
         22    1    3    3    0    0  0.18896947507E+02  0.49131506476E+02 -0.13442465093E+03  0.14436407563E+03  0.00000000000E+00 0. -1.
         22    1    3    3    0    0  0.14298682380E+03  0.10441509561E+03 -0.10430052862E+03  0.20549049672E+03  0.00000000000E+00 0. -1.
</event>
<event>
 7    1  0.5553952E-006  0.2324211E+02  0.7818608E-02  0.1705961E+00
          2   -1    0    0  502    0  0.00000000000E+00  0.00000000000E+00  0.36086090889E+01  0.36086090889E+01  0.00000000000E+00 0. -1.
          1   -1    0    0  501    0 -0.00000000000E+00 -0.00000000000E+00 -0.31375940843E+04  0.31375940843E+04  0.00000000000E+00 0. -1.
         25    2    1    2    0    0  0.36850776958E+02 -0.59198791472E+00 -0.22772523538E+04  0.22809781637E+04  0.12499908067E+03 0.  0.
          2    1    1    2  501    0 -0.17506914179E+02 -0.11736411476E+02 -0.77625752458E+03  0.77654361106E+03  0.00000000000E+00 0. -1.
          1    1    1    2  502    0 -0.19343862780E+02  0.12328399390E+02 -0.80475596809E+02  0.83680918617E+02  0.00000000000E+00 0. -1.
         22    1    3    3    0    0  0.30474570875E+02 -0.46682655756E+02 -0.49684793551E+03  0.49996583967E+03  0.00000000000E+00 0.  1.
         22    1    3    3    0    0  0.63762060831E+01  0.46090667842E+02 -0.17804044183E+04  0.17810123240E+04  0.00000000000E+00 0.  1.
</event>
<event>
 7    1  0.5553952E-006  0.4758808E+02  0.7818608E-02  0.1558159E+00
          2   -1    0    0  502    0  0.00000000000E+00  0.00000000000E+00  0.32508386035E+03  0.32508386035E+03  0.00000000000E+00 0. -1.
          1   -1    0    0  501    0 -0.00000000000E+00 -0.00000000000E+00 -0.88559726372E+03  0.88559726372E+03  0.00000000000E+00 0. -1.
         25    2    1    2    0    0 -0.28789675866E+02  0.61620572742E+02 -0.67215729734E+02  0.15739621575E+03  0.12501869455E+03 0.  0.
          2    1    1    2  501    0  0.10127939122E+02 -0.46189028947E+02 -0.77204298203E+03  0.77348973338E+03  0.00000000000E+00 0. -1.
          1    1    1    2  502    0  0.18661736745E+02 -0.15431543796E+02  0.27874530840E+03  0.27979517494E+03  0.00000000000E+00 0. -1.
         22    1    3    3    0    0  0.10424124788E+02 -0.47633285090E+01  0.30699482380E+02  0.32769038656E+02  0.00000000000E+00 0.  1.
         22    1    3    3    0    0 -0.39213800655E+02  0.66383901251E+02 -0.97915212113E+02  0.12462717709E+03  0.00000000000E+00 0.  1.
</event>
<event>
 7    1  0.5553952E-006  0.1689902E+04  0.7818608E-02  0.9931380E-01
          2   -1    0    0  502    0  0.00000000000E+00  0.00000000000E+00  0.31224640412E+04  0.31224640412E+04  0.00000000000E+00 0. -1.
          1   -1    0    0  501    0 -0.00000000000E+00 -0.00000000000E+00 -0.13059192527E+04  0.13059192527E+04  0.00000000000E+00 0. -1.
         25    2    1    2    0    0 -0.15629391966E+04 -0.48145367006E+03 -0.71598209414E+02  0.16417452227E+04  0.12499801548E+03 0.  0.
          2    1    1    2  501    0  0.17533073841E+04  0.55573111583E+03  0.17584134409E+04  0.25445906715E+04  0.00000000000E+00 0. -1.
          1    1    1    2  502    0 -0.19036818750E+03 -0.74277445772E+02  0.12972955701E+03  0.24204739974E+03  0.00000000000E+00 0. -1.
         22    1    3    3    0    0 -0.96375632741E+03 -0.35699765785E+03 -0.26070905221E+02  0.10280823306E+04  0.00000000000E+00 0.  1.
         22    1    3    3    0    0 -0.59918286922E+03 -0.12445601220E+03 -0.45527304193E+02  0.61366289212E+03  0.00000000000E+00 0.  1.
</event>
<event>
 7    1  0.5553952E-006  0.4620160E+02  0.7818608E-02  0.1529633E+00
          2   -1    0    0  502    0  0.00000000000E+00  0.00000000000E+00  0.23809552779E+03  0.23809552779E+03  0.00000000000E+00 0. -1.
          1   -1    0    0  501    0 -0.00000000000E+00 -0.00000000000E+00 -0.24882466920E+04  0.24882466920E+04  0.00000000000E+00 0. -1.
         25    2    1    2    0    0  0.50242669496E+02 -0.79887704502E+01 -0.16723592931E+04  0.16777956614E+04  0.12499811862E+03 0.  0.
          2    1    1    2  501    0 -0.42021020566E+02 -0.20865616255E+02 -0.81153284573E+03  0.81288787653E+03  0.00000000000E+00 0. -1.
          1    1    1    2  502    0 -0.82216489296E+01  0.28854386705E+02  0.23374097463E+03  0.23565868192E+03  0.00000000000E+00 0. -1.
         22    1    3    3    0    0  0.38480205083E+02  0.54712535739E+02 -0.10640427562E+04  0.10661431305E+04  0.00000000000E+00 0.  1.
         22    1    3    3    0    0  0.11762464413E+02 -0.62701306190E+02 -0.60831653694E+03  0.61165253084E+03  0.00000000000E+00 0.  1.
</event>
<event>
 7    1  0.5553952E-006  0.1344624E+03  0.7818608E-02  0.1335389E+00
          2   -1    0    0  502    0  0.00000000000E+00  0.00000000000E+00  0.35497933263E+03  0.35497933263E+03  0.00000000000E+00 0. -1.
          1   -1    0    0  501    0 -0.00000000000E+00 -0.00000000000E+00 -0.50300610580E+03  0.50300610580E+03  0.00000000000E+00 0. -1.
         25    2    1    2    0    0  0.11068800448E+03 -0.13801764503E+03  0.12703248665E+03  0.25112288590E+03  0.12499898593E+03 0.  0.
          2    1    1    2  501    0 -0.79002104090E+02  0.10602955415E+03 -0.42772455330E+03  0.44769620536E+03  0.00000000000E+00 0. -1.
          1    1    1    2  502    0 -0.31685900389E+02  0.31988090872E+02  0.15266529347E+03  0.15916634717E+03  0.00000000000E+00 0. -1.
         22    1    3    3    0    0  0.59896353979E+02 -0.34509753579E+02  0.11634338349E+03  0.13533025971E+03  0.00000000000E+00 0.  1.
         22    1    3    3    0    0  0.50791650500E+02 -0.10350789145E+03  0.10689103158E+02  0.11579262619E+03  0.00000000000E+00 0.  1.
</event>
<event>
 7    1  0.5553952E-006  0.1483497E+03  0.7818608E-02  0.1336836E+00
          2   -1    0    0  502    0  0.00000000000E+00  0.00000000000E+00  0.31671025018E+03  0.31671025018E+03  0.00000000000E+00 0. -1.
          1   -1    0    0  501    0 -0.00000000000E+00 -0.00000000000E+00 -0.13363480143E+04  0.13363480143E+04  0.00000000000E+00 0. -1.
         25    2    1    2    0    0  0.10859108430E+03  0.12523426625E+03 -0.27150648382E+02  0.20937265520E+03  0.12499642397E+03 0.  0.
          2    1    1    2  501    0  0.89049278128E+01 -0.39302099696E+02 -0.11942295562E+04  0.11949092793E+04  0.00000000000E+00 0. -1.
          1    1    1    2  502    0 -0.11749601211E+03 -0.85932166557E+02  0.20174244044E+03  0.24877633003E+03  0.00000000000E+00 0. -1.
         22    1    3    3    0    0  0.82616257758E+02  0.14763847371E+03 -0.37997058466E+02  0.17339648618E+03  0.00000000000E+00 0.  1.
         22    1    3    3    0    0  0.25974826543E+02 -0.22404207461E+02  0.10846410084E+02  0.35976169023E+02  0.00000000000E+00 0.  1.
</event>
<event>
 7    1  0.5553952E-006  0.5801454E+02  0.7818608E-02  0.1551828E+00
          2   -1    0    0  502    0  0.00000000000E+00  0.00000000000E+00  0.68588344101E+03  0.68588344101E+03  0.00000000000E+00 0. -1.
          1   -1    0    0  501    0 -0.00000000000E+00 -0.00000000000E+00 -0.43431585953E+04  0.43431585953E+04  0.00000000000E+00 0. -1.
         25    2    1    2    0    0  0.38133354581E+02 -0.52294530673E+01  0.57691114910E+02  0.14294559456E+03  0.12499471330E+03 0.  0.
          2    1    1    2  501    0 -0.58052449970E+02 -0.33707954644E+00 -0.43001527428E+04  0.43005445948E+04  0.00000000000E+00 0. -1.
          1    1    1    2  502    0  0.19919095389E+02  0.55665326138E+01  0.58518647357E+03  0.58555184697E+03  0.00000000000E+00 0. -1.
         22    1    3    3    0    0 -0.38597862902E+01 -0.52368093146E+02 -0.65017851121E+01  0.52911136253E+02  0.00000000000E+00 0. -1.
         22    1    3    3    0    0  0.41993140871E+02  0.47138640079E+02  0.64192900022E+02  0.90034458303E+02  0.00000000000E+00 0. -1.
</event>
<event>
 7    1  0.5553952E-006  0.9570721E+02  0.7818608E-02  0.1313061E+00
          2   -1    0    0  502    0  0.00000000000E+00  0.00000000000E+00  0.10250403517E+04  0.10250403517E+04  0.00000000000E+00 0. -1.
          1   -1    0    0  501    0 -0.00000000000E+00 -0.00000000000E+00 -0.15981133288E+03  0.15981133288E+03  0.00000000000E+00 0. -1.
         25    2    1    2    0    0 -0.13263996740E+03 -0.17402319707E+02  0.56471040187E+02  0.19158240968E+03  0.12497455596E+03 0.  0.
          2    1    1    2  501    0  0.68936010813E+02  0.60871881358E+02 -0.67213866079E+02  0.11390901334E+03  0.00000000000E+00 0. -1.
          1    1    1    2  502    0  0.63703956584E+02 -0.43469561651E+02  0.87597184470E+03  0.87936026154E+03  0.00000000000E+00 0. -1.
         22    1    3    3    0    0 -0.92636843472E+02  0.26496582897E+02 -0.16226574024E+02  0.97708522547E+02  0.00000000000E+00 0. -1.
         22    1    3    3    0    0 -0.40003123925E+02 -0.43898902605E+02  0.72697614211E+02  0.93873887134E+02  0.00000000000E+00 0. -1.
</event>
<event>
 7    1  0.5553952E-006  0.4531499E+03  0.7818608E-02  0.1116145E+00
          2   -1    0    0  502    0  0.00000000000E+00  0.00000000000E+00  0.36288446817E+04  0.36288446817E+04  0.00000000000E+00 0. -1.
          1   -1    0    0  501    0 -0.00000000000E+00 -0.00000000000E+00 -0.30036855376E+03  0.30036855376E+03  0.00000000000E+00 0. -1.
         25    2    1    2    0    0 -0.40939396250E+03 -0.33350599781E+03  0.17429513742E+04  0.18254682574E+04  0.12500079471E+03 0.  0.
          2    1    1    2  501    0  0.55894941356E+02  0.12075608322E+03 -0.21703042234E+03  0.25457509762E+03  0.00000000000E+00 0. -1.
          1    1    1    2  502    0  0.35349902115E+03  0.21274991459E+03  0.18025551760E+04  0.18491698804E+04  0.00000000000E+00 0. -1.
         22    1    3    3    0    0 -0.15761602951E+03 -0.19126132396E+03  0.93638284426E+03  0.96862610838E+03  0.00000000000E+00 0.  1.
         22    1    3    3    0    0 -0.25177793299E+03 -0.14224467385E+03  0.80656852997E+03  0.85684214901E+03  0.00000000000E+00 0.  1.
</event>
<event>
 7    1  0.5553952E-006  0.1489266E+03  0.7818608E-02  0.1334809E+00
          2   -1    0    0  502    0  0.00000000000E+00  0.00000000000E+00  0.19951769835E+04  0.19951769835E+04  0.00000000000E+00 0. -1.
          1   -1    0    0  501    0 -0.00000000000E+00 -0.00000000000E+00 -0.28295031724E+03  0.28295031724E+03  0.00000000000E+00 0. -1.
         25    2    1    2    0    0 -0.10327858662E+03 -0.84348037256E+02  0.93412716012E+03  0.95184011392E+03  0.12499997340E+03 0.  0.
          2    1    1    2  501    0  0.19682073295E+01 -0.40810405117E+02 -0.26636645752E+03  0.26948182257E+03  0.00000000000E+00 0. -1.
          1    1    1    2  502    0  0.10131037929E+03  0.12515844237E+03  0.10444659636E+04  0.10568053642E+04  0.00000000000E+00 0. -1.
         22    1    3    3    0    0  0.85408306689E+01 -0.23437542343E+02  0.46710238445E+03  0.46776799990E+03  0.00000000000E+00 0. -1.
         22    1    3    3    0    0 -0.11181941729E+03 -0.60910494913E+02  0.46702477568E+03  0.48407211402E+03  0.00000000000E+00 0. -1.
</event>
<event>
 7    1  0.5553952E-006  0.8785222E+02  0.7818608E-02  0.1367642E+00
          2   -1    0    0  502    0  0.00000000000E+00  0.00000000000E+00  0.21450478608E+03  0.21450478608E+03  0.00000000000E+00 0. -1.
          1   -1    0    0  501    0 -0.00000000000E+00 -0.00000000000E+00 -0.50619724631E+03  0.50619724631E+03  0.00000000000E+00 0. -1.
         25    2    1    2    0    0  0.29562166191E+02  0.33929034127E+02 -0.24653357484E+02  0.13511781513E+03  0.12499573954E+03 0.  0.
          2    1    1    2  501    0 -0.81038664377E+02 -0.43542747337E+02 -0.41685203139E+03  0.42688271462E+03  0.00000000000E+00 0. -1.
          1    1    1    2  502    0  0.51476498186E+02  0.96137132104E+01  0.14981292865E+03  0.15870150263E+03  0.00000000000E+00 0. -1.
         22    1    3    3    0    0  0.64634984222E+02  0.24862364034E+02  0.25024484552E+02  0.73634524225E+02  0.00000000000E+00 0.  1.
         22    1    3    3    0    0 -0.35072818031E+02  0.90666700924E+01 -0.49677842036E+02  0.61483290905E+02  0.00000000000E+00 0.  1.
</event>
<event>
 7    1  0.5553952E-006  0.1542639E+03  0.7818608E-02  0.1313337E+00
          2   -1    0    0  502    0  0.00000000000E+00  0.00000000000E+00  0.18274034459E+04  0.18274034459E+04  0.00000000000E+00 0. -1.
          1   -1    0    0  501    0 -0.00000000000E+00 -0.00000000000E+00 -0.48680619826E+03  0.48680619826E+03  0.00000000000E+00 0. -1.
         25    2    1    2    0    0 -0.19961791394E+03 -0.25802093607E+01  0.13436170457E+03  0.27116882132E+03  0.12500197180E+03 0.  0.
          2    1    1    2  501    0  0.47725237417E+02  0.52072233515E+00 -0.41347597885E+03  0.41622152098E+03  0.00000000000E+00 0. -1.
          1    1    1    2  502    0  0.15189267653E+03  0.20594870255E+01  0.16197115220E+04  0.16268193019E+04  0.00000000000E+00 0. -1.
         22    1    3    3    0    0  0.16335454482E+02 -0.69234742325E+01  0.20104598849E+02  0.26813736470E+02  0.00000000000E+00 0. -1.
         22    1    3    3    0    0 -0.21595336842E+03  0.43432648718E+01  0.11425710572E+03  0.24435508485E+03  0.00000000000E+00 0. -1.
</event>
<event>
 7    1  0.5553952E-006  0.8883888E+02  0.7818608E-02  0.1427677E+00
          2   -1    0    0  502    0  0.00000000000E+00  0.00000000000E+00  0.38318885927E+03  0.38318885927E+03  0.00000000000E+00 0. -1.
          1   -1    0    0  501    0 -0.00000000000E+00 -0.00000000000E+00 -0.72420735646E+02  0.72420735646E+02  0.00000000000E+00 0. -1.
         25    2    1    2    0    0  0.64934748841E+02 -0.61893857865E+01  0.12508322446E+03  0.18848579098E+03  0.12500500093E+03 0.  0.
          2    1    1    2  501    0  0.31938084090E+02  0.35349324191E+01 -0.21316659329E+02  0.38560821147E+02  0.00000000000E+00 0. -1.
          1    1    1    2  502    0 -0.96872832931E+02  0.26544533675E+01  0.20700155849E+03  0.22856298279E+03  0.00000000000E+00 0. -1.
         22    1    3    3    0    0  0.50673766150E+02 -0.43556858324E+02  0.11161098615E+02  0.67746591097E+02  0.00000000000E+00 0.  1.
         22    1    3    3    0    0  0.14260982690E+02  0.37367472538E+02  0.11392212585E+03  0.12073919988E+03  0.00000000000E+00 0.  1.
</event>
<event>
 7    1  0.5553952E-006  0.4514089E+02  0.7818608E-02  0.1557482E+00
          2   -1    0    0  502    0  0.00000000000E+00  0.00000000000E+00  0.36682388843E+03  0.36682388843E+03  0.00000000000E+00 0. -1.
          1   -1    0    0  501    0 -0.00000000000E+00 -0.00000000000E+00 -0.12156047840E+04  0.12156047840E+04  0.00000000000E+00 0. -1.
         25    2    1    2    0    0  0.45255855423E+01  0.69214390729E+02 -0.18939431943E+03  0.23729017494E+03  0.12500122431E+03 0.  0.
          2    1    1    2  501    0  0.47288328173E+01 -0.25198628648E+02 -0.10006225798E+04  0.10009509878E+04  0.00000000000E+00 0. -1.
          1    1    1    2  502    0 -0.92544183596E+01 -0.44015762081E+02  0.34123600372E+03  0.34418750965E+03  0.00000000000E+00 0. -1.
         22    1    3    3    0    0 -0.30246699827E+02  0.56105182365E+02 -0.24540821295E+02  0.68300118949E+02  0.00000000000E+00 0. -1.
         22    1    3    3    0    0  0.34772285370E+02  0.13109208364E+02 -0.16485349814E+03  0.16899005599E+03  0.00000000000E+00 0. -1.
</event>
<event>
 7    1  0.5553952E-006  0.6509346E+02  0.7818608E-02  0.1410551E+00
          2   -1    0    0  502    0  0.00000000000E+00  0.00000000000E+00  0.37354720818E+03  0.37354720818E+03  0.00000000000E+00 0. -1.
          1   -1    0    0  501    0 -0.00000000000E+00 -0.00000000000E+00 -0.14996065263E+04  0.14996065263E+04  0.00000000000E+00 0. -1.
         25    2    1    2    0    0  0.70379462127E+02 -0.66054958298E+02  0.18370090683E+03  0.24225529780E+03  0.12500031976E+03 0.  0.
          2    1    1    2  501    0 -0.62876115524E+02  0.16583320965E+02 -0.14656926412E+04  0.14671343943E+04  0.00000000000E+00 0. -1.
          1    1    1    2  502    0 -0.75033466025E+01  0.49471637333E+02  0.15593241630E+03  0.16376404234E+03  0.00000000000E+00 0. -1.
         22    1    3    3    0    0  0.14602660105E+01 -0.13399666270E+02 -0.18122052821E+02  0.22585221527E+02  0.00000000000E+00 0.  1.
         22    1    3    3    0    0  0.68919196116E+02 -0.52655292027E+02  0.20182295965E+03  0.21967007628E+03  0.00000000000E+00 0.  1.
</event>
<event>
 7    1  0.5553952E-006  0.9033710E+02  0.7818608E-02  0.1423988E+00
          2   -1    0    0  502    0  0.00000000000E+00  0.00000000000E+00  0.17654214483E+04  0.17654214483E+04  0.00000000000E+00 0. -1.
          1   -1    0    0  501    0 -0.00000000000E+00 -0.00000000000E+00 -0.42874345498E+02  0.42874345498E+02  0.00000000000E+00 0. -1.
         25    2    1    2    0    0  0.11107209979E+03  0.58769338791E+01  0.77699810258E+03  0.79480966013E+03  0.12499917889E+03 0.  0.
          2    1    1    2  501    0 -0.87456422727E+02  0.16454126413E+02  0.25099108641E+02  0.92462583820E+02  0.00000000000E+00 0. -1.
          1    1    1    2  502    0 -0.23615677062E+02 -0.22331060292E+02  0.92044989162E+03  0.92102354988E+03  0.00000000000E+00 0. -1.
         22    1    3    3    0    0  0.84023243580E+02  0.25752721620E+02  0.22147710793E+03  0.23827550749E+03  0.00000000000E+00 0. -1.
         22    1    3    3    0    0  0.27048856209E+02 -0.19875787741E+02  0.55552099465E+03  0.55653415264E+03  0.00000000000E+00 0. -1.
</event>
<event>
 7    1  0.5553952E-006  0.1100724E+03  0.7818608E-02  0.1277346E+00
          2   -1    0    0  502    0  0.00000000000E+00  0.00000000000E+00  0.56100966693E+02  0.56100966693E+02  0.00000000000E+00 0. -1.
          1   -1    0    0  501    0 -0.00000000000E+00 -0.00000000000E+00 -0.10626740313E+04  0.10626740313E+04  0.00000000000E+00 0. -1.
         25    2    1    2    0    0  0.58285350476E+02  0.42092362043E+02 -0.46431954885E+03  0.48619625774E+03  0.12500083426E+03 0.  0.
          2    1    1    2  501    0 -0.77049949931E+02 -0.13362906328E+03 -0.51143061437E+03  0.53418601128E+03  0.00000000000E+00 0. -1.
          1    1    1    2  502    0  0.18764599454E+02  0.91536701238E+02 -0.30822901394E+02  0.98392728982E+02  0.00000000000E+00 0. -1.
         22    1    3    3    0    0  0.13566677658E+02  0.77015928918E+02 -0.34924968459E+03  0.35789782094E+03  0.00000000000E+00 0.  1.
         22    1    3    3    0    0  0.44718672818E+02 -0.34923566875E+02 -0.11506986426E+03  0.12829843679E+03  0.00000000000E+00 0.  1.
</event>
<event>
 7    1  0.5553952E-006  0.8113050E+02  0.7818608E-02  0.1395108E+00
          2   -1    0    0  502    0  0.00000000000E+00  0.00000000000E+00  0.39591690971E+03  0.39591690971E+03  0.00000000000E+00 0. -1.
          1   -1    0    0  501    0 -0.00000000000E+00 -0.00000000000E+00 -0.11876982818E+04  0.11876982818E+04  0.00000000000E+00 0. -1.
         25    2    1    2    0    0 -0.46360715485E+02 -0.11279462042E+03  0.11558420311E+03  0.20941803261E+03  0.12499704812E+03 0.  0.
          2    1    1    2  501    0  0.15891054911E+02  0.79211728463E+02 -0.11371322884E+04  0.11399986249E+04  0.00000000000E+00 0. -1.
          1    1    1    2  502    0  0.30469660574E+02  0.33582891961E+02  0.22976671316E+03  0.23419853399E+03  0.00000000000E+00 0. -1.
         22    1    3    3    0    0  0.17604253239E+02 -0.26635698178E+02 -0.19106195380E+02  0.37207752572E+02  0.00000000000E+00 0. -1.
         22    1    3    3    0    0 -0.63964968725E+02 -0.86158922246E+02  0.13469039849E+03  0.17221028004E+03  0.00000000000E+00 0. -1.
</event>
<event>
 7    1  0.5553952E-006  0.1019353E+03  0.7818608E-02  0.1295988E+00
          2   -1    0    0  502    0  0.00000000000E+00  0.00000000000E+00  0.78619654815E+03  0.78619654815E+03  0.00000000000E+00 0. -1.
          1   -1    0    0  501    0 -0.00000000000E+00 -0.00000000000E+00 -0.52458376278E+03  0.52458376278E+03  0.00000000000E+00 0. -1.
         25    2    1    2    0    0  0.12831125700E+02  0.27347092207E+02  0.10647131283E+03  0.16695518059E+03  0.12500156251E+03 0.  0.
          2    1    1    2  501    0  0.12997454744E+02  0.83653586041E+02 -0.48565233623E+03  0.49297570729E+03  0.00000000000E+00 0. -1.
          1    1    1    2  502    0 -0.25828580444E+02 -0.11100067825E+03  0.64079380877E+03  0.65084942306E+03  0.00000000000E+00 0. -1.
         22    1    3    3    0    0  0.43333261160E+01  0.64571589334E+02  0.11101732846E+03  0.12850336604E+03  0.00000000000E+00 0.  1.
         22    1    3    3    0    0  0.84977995838E+01 -0.37224497128E+02 -0.45460156278E+01  0.38451814551E+02  0.00000000000E+00 0.  1.
</event>
<event>
 7    1  0.5553952E-006  0.1411782E+03  0.7818608E-02  0.1282417E+00
          2   -1    0    0  502    0  0.00000000000E+00  0.00000000000E+00  0.11174543023E+04  0.11174543023E+04  0.00000000000E+00 0. -1.
          1   -1    0    0  501    0 -0.00000000000E+00 -0.00000000000E+00 -0.75084005435E+02  0.75084005435E+02  0.00000000000E+00 0. -1.
         25    2    1    2    0    0 -0.13506552781E+03 -0.79397871420E+02  0.28945345414E+03  0.35207156202E+03  0.12499745551E+03 0.  0.
          2    1    1    2  501    0 -0.52873268097E+01  0.69218342219E+02 -0.49971304379E+01  0.69599612333E+02  0.00000000000E+00 0. -1.
          1    1    1    2  502    0  0.14035285461E+03  0.10179529202E+02  0.75791397320E+03  0.77086713342E+03  0.00000000000E+00 0. -1.
         22    1    3    3    0    0  0.23988922923E+02 -0.13183656850E+02  0.29852306708E+02  0.40502314091E+02  0.00000000000E+00 0.  1.
         22    1    3    3    0    0 -0.15905445073E+03 -0.66214214570E+02  0.25960114744E+03  0.31156924793E+03  0.00000000000E+00 0.  1.
</event>
<event>
 7    1  0.5553952E-006  0.1093703E+03  0.7818608E-02  0.1414404E+00
          2   -1    0    0  502    0  0.00000000000E+00  0.00000000000E+00  0.35932928499E+03  0.35932928499E+03  0.00000000000E+00 0. -1.
          1   -1    0    0  501    0 -0.00000000000E+00 -0.00000000000E+00 -0.51361961984E+03  0.51361961984E+03  0.00000000000E+00 0. -1.
         25    2    1    2    0    0  0.70257309768E+02 -0.46624759780E+02 -0.17444759224E+03  0.23058005458E+03  0.12500096532E+03 0.  0.
          2    1    1    2  501    0  0.28798067191E+02 -0.24441025913E+01 -0.30117264396E+03  0.30255621590E+03  0.00000000000E+00 0. -1.
          1    1    1    2  502    0 -0.99055376959E+02  0.49068862372E+02  0.32132990135E+03  0.33981263435E+03  0.00000000000E+00 0. -1.
         22    1    3    3    0    0 -0.21349183279E+02  0.12436212385E+02  0.20442020980E+00  0.24708071410E+02  0.00000000000E+00 0.  1.
         22    1    3    3    0    0  0.91606493048E+02 -0.59060972166E+02 -0.17465201245E+03  0.20587198317E+03  0.00000000000E+00 0.  1.
</event>
<event>
 7    1  0.5553952E-006  0.7855751E+02  0.7818608E-02  0.1342070E+00
          2   -1    0    0  502    0  0.00000000000E+00  0.00000000000E+00  0.88667783355E+03  0.88667783355E+03  0.00000000000E+00 0. -1.
          1   -1    0    0  501    0 -0.00000000000E+00 -0.00000000000E+00 -0.33524568986E+03  0.33524568986E+03  0.00000000000E+00 0. -1.
         25    2    1    2    0    0 -0.83305908322E+01 -0.35601634540E+02  0.41109741497E+03  0.43123449542E+03  0.12500092129E+03 0.  0.
          2    1    1    2  501    0  0.66736174597E+02 -0.41443526515E+02 -0.31528506228E+03  0.32492453491E+03  0.00000000000E+00 0. -1.
          1    1    1    2  502    0 -0.58405583765E+02  0.77045161055E+02  0.45561979101E+03  0.46576449308E+03  0.00000000000E+00 0. -1.
         22    1    3    3    0    0 -0.53644929687E+02 -0.39957048322E+02  0.34206133857E+03  0.34854024665E+03  0.00000000000E+00 0.  1.
         22    1    3    3    0    0  0.45314338855E+02  0.43554137824E+01  0.69036076396E+02  0.82694248767E+02  0.00000000000E+00 0.  1.
</event>
<event>
 7    1  0.5553952E-006  0.8787688E+02  0.7818608E-02  0.1413280E+00
          2   -1    0    0  502    0  0.00000000000E+00  0.00000000000E+00  0.18217599258E+03  0.18217599258E+03  0.00000000000E+00 0. -1.
          1   -1    0    0  501    0 -0.00000000000E+00 -0.00000000000E+00 -0.66515680060E+03  0.66515680060E+03  0.00000000000E+00 0. -1.
         25    2    1    2    0    0  0.21169298671E+02  0.98824146975E+02 -0.11112263404E+03  0.19541447642E+03  0.12499690622E+03 0.  0.
          2    1    1    2  501    0  0.12876306089E+02 -0.86272427193E+02 -0.50573957242E+03  0.51320682582E+03  0.00000000000E+00 0. -1.
          1    1    1    2  502    0 -0.34045604760E+02 -0.12551719782E+02  0.13388139844E+03  0.13871149095E+03  0.00000000000E+00 0. -1.
         22    1    3    3    0    0 -0.46508917853E+02  0.46387102152E+02 -0.81815522623E+02  0.10492198258E+03  0.00000000000E+00 0. -1.
         22    1    3    3    0    0  0.67678216524E+02  0.52437044822E+02 -0.29307111417E+02  0.90492493839E+02  0.00000000000E+00 0. -1.
</event>
<event>
 7    1  0.5553952E-006  0.7609506E+02  0.7818608E-02  0.1340545E+00
          2   -1    0    0  502    0  0.00000000000E+00  0.00000000000E+00  0.17243721189E+04  0.17243721189E+04  0.00000000000E+00 0. -1.
          1   -1    0    0  501    0 -0.00000000000E+00 -0.00000000000E+00 -0.97432448205E+02  0.97432448205E+02  0.00000000000E+00 0. -1.
         25    2    1    2    0    0 -0.12792550549E+01 -0.11987915657E+02  0.33033643945E+03  0.35338268137E+03  0.12494722746E+03 0.  0.
          2    1    1    2  501    0 -0.69862390967E+02  0.38993919612E+02 -0.65986680179E+02  0.10370882990E+03  0.00000000000E+00 0. -1.
          1    1    1    2  502    0  0.71141646022E+02 -0.27006003955E+02  0.13625899114E+04  0.13647130558E+04  0.00000000000E+00 0. -1.
         22    1    3    3    0    0 -0.37485970834E+02  0.28288520141E+02  0.53021447264E+02  0.70828752997E+02  0.00000000000E+00 0. -1.
         22    1    3    3    0    0  0.36206715779E+02 -0.40276435799E+02  0.27731499219E+03  0.28255392838E+03  0.00000000000E+00 0. -1.
</event>
<event>
 7    1  0.5553952E-006  0.9197458E+02  0.7818608E-02  0.1300864E+00
          2   -1    0    0  502    0  0.00000000000E+00  0.00000000000E+00  0.16540785109E+04  0.16540785109E+04  0.00000000000E+00 0. -1.
          1   -1    0    0  501    0 -0.00000000000E+00 -0.00000000000E+00 -0.27812936566E+04  0.27812936566E+04  0.00000000000E+00 0. -1.
         25    2    1    2    0    0 -0.17794173890E+02 -0.16896203503E+03  0.19915465975E+01  0.21094129260E+03  0.12500984266E+03 0.  0.
          2    1    1    2  501    0  0.39554691601E+02  0.80498505558E+02 -0.26747257712E+04  0.26762291633E+04  0.00000000000E+00 0. -1.
          1    1    1    2  502    0 -0.21760517711E+02  0.88463529469E+02  0.15455190790E+04  0.15482017116E+04  0.00000000000E+00 0. -1.
         22    1    3    3    0    0  0.29830691146E+02 -0.32892022501E+02  0.42217662621E+02  0.61270599113E+02  0.00000000000E+00 0. -1.
         22    1    3    3    0    0 -0.47624865036E+02 -0.13607001253E+03 -0.40226116023E+02  0.14967069349E+03  0.00000000000E+00 0. -1.
</event>
<event>
 7    1  0.5553952E-006  0.1384339E+03  0.7818608E-02  0.1344229E+00
          2   -1    0    0  502    0  0.00000000000E+00  0.00000000000E+00  0.30502781035E+04  0.30502781035E+04  0.00000000000E+00 0. -1.
          1   -1    0    0  501    0 -0.00000000000E+00 -0.00000000000E+00 -0.37400517595E+02  0.37400517595E+02  0.00000000000E+00 0. -1.
         25    2    1    2    0    0  0.14839321635E+03  0.76200334250E+02  0.13327363008E+04  0.13489397524E+04  0.12500148214E+03 0.  0.
          2    1    1    2  501    0 -0.10820668033E+03 -0.81295221543E+02  0.12868870729E+03  0.18675754897E+03  0.00000000000E+00 0. -1.
          1    1    1    2  502    0 -0.40186536017E+02  0.50948872931E+01  0.15514525778E+04  0.15519813197E+04  0.00000000000E+00 0. -1.
         22    1    3    3    0    0  0.14884646300E+03  0.87633858718E+02  0.13220413800E+04  0.13332773054E+04  0.00000000000E+00 0.  1.
         22    1    3    3    0    0 -0.45324665132E+00 -0.11433524468E+02  0.10694920809E+02  0.15662446979E+02  0.00000000000E+00 0.  1.
</event>
<event>
 7    1  0.5953606E-006  0.1028011E+03  0.7818608E-02  0.1298863E+00
          2   -1    0    0  502    0  0.00000000000E+00  0.00000000000E+00  0.17967744596E+04  0.17967744596E+04  0.00000000000E+00 0. -1.
          1   -1    0    0  501    0 -0.00000000000E+00 -0.00000000000E+00 -0.64974195604E+03  0.64974195604E+03  0.00000000000E+00 0. -1.
         25    2    1    2    0    0 -0.40282078528E+02 -0.73554539888E+02 -0.38396485518E+02  0.15534422930E+03  0.12499849315E+03 0.  0.
          2    1    1    2  501    0 -0.36961923428E+02  0.10028931006E+03 -0.54673298625E+03  0.55708265792E+03  0.00000000000E+00 0. -1.
          1    1    1    2  502    0  0.77244001956E+02 -0.26734770177E+02  0.17321619754E+04  0.17340895285E+04  0.00000000000E+00 0. -1.
         22    1    3    3    0    0 -0.62177428310E+02 -0.41843768553E+02 -0.72212823782E+02  0.10407509537E+03  0.00000000000E+00 0.  1.
         22    1    3    3    0    0  0.21895349783E+02 -0.31710771335E+02  0.33816338263E+02  0.51269133934E+02  0.00000000000E+00 0.  1.
</event>
<event>
 7    1  0.5553952E-006  0.5035180E+02  0.7818608E-02  0.1516992E+00
          2   -1    0    0  502    0  0.00000000000E+00  0.00000000000E+00  0.38519191597E+04  0.38519191597E+04  0.00000000000E+00 0. -1.
          1   -1    0    0  501    0 -0.00000000000E+00 -0.00000000000E+00 -0.54319205660E+01  0.54319205660E+01  0.00000000000E+00 0. -1.
         25    2    1    2    0    0 -0.56203019219E+02 -0.22148238360E+02  0.10450836133E+04  0.10542645515E+04  0.12499864829E+03 0.  0.
          2    1    1    2  501    0  0.65034708318E+01  0.29232087733E+02  0.38552146685E+03  0.38668283061E+03  0.00000000000E+00 0. -1.
          1    1    1    2  502    0  0.49699548387E+02 -0.70838493731E+01  0.24158821590E+04  0.24164036981E+04  0.00000000000E+00 0. -1.
         22    1    3    3    0    0 -0.48774024606E+02 -0.38968670773E+02  0.21256992864E+03  0.22154782179E+03  0.00000000000E+00 0.  1.
         22    1    3    3    0    0 -0.74289946125E+01  0.16820432413E+02  0.83251368463E+03  0.83271672975E+03  0.00000000000E+00 0.  1.
</event>
<event>
 7    1  0.7367619E-006  0.5437127E+02  0.7818608E-02  0.1432362E+00
          2   -1    0    0  502    0  0.00000000000E+00  0.00000000000E+00  0.10849431605E+04  0.10849431605E+04  0.00000000000E+00 0. -1.
          1   -1    0    0  501    0 -0.00000000000E+00 -0.00000000000E+00 -0.65581408848E+03  0.65581408848E+03  0.00000000000E+00 0. -1.
         25    2    1    2    0    0  0.12905554110E+02 -0.10303196537E+03 -0.84425063856E+02  0.18312714751E+03  0.12500328609E+03 0.  0.
          2    1    1    2  501    0  0.73809308347E+00  0.50666003495E+02 -0.52009894856E+03  0.52256148441E+03  0.00000000000E+00 0. -1.
          1    1    1    2  502    0 -0.13643647194E+02  0.52365961875E+02  0.10336530844E+04  0.10350686170E+04  0.00000000000E+00 0. -1.
         22    1    3    3    0    0 -0.39089687884E+01 -0.93789531351E+02  0.27045246346E+01  0.93909907259E+02  0.00000000000E+00 0.  1.
         22    1    3    3    0    0  0.16814522899E+02 -0.92424340201E+01 -0.87129588491E+02  0.89217240248E+02  0.00000000000E+00 0.  1.
</event>
<event>
 7    1  0.5553952E-006  0.8570791E+02  0.7818608E-02  0.1324476E+00
          2   -1    0    0  502    0  0.00000000000E+00  0.00000000000E+00  0.13408677617E+04  0.13408677617E+04  0.00000000000E+00 0. -1.
          1   -1    0    0  501    0 -0.00000000000E+00 -0.00000000000E+00 -0.21574329091E+04  0.21574329091E+04  0.00000000000E+00 0. -1.
         25    2    1    2    0    0 -0.52320505389E+02  0.45148508916E+02  0.11493323166E+03  0.18333381631E+03  0.12500326924E+03 0.  0.
          2    1    1    2  501    0  0.65535603880E+02  0.41843322762E+02 -0.21208950904E+04  0.21223199014E+04  0.00000000000E+00 0. -1.
          1    1    1    2  502    0 -0.13215098491E+02 -0.86991831678E+02  0.11893967114E+04  0.11926469531E+04  0.00000000000E+00 0. -1.
         22    1    3    3    0    0  0.35052109953E+02 -0.98311357499E+01  0.48230068479E+02  0.60427155715E+02  0.00000000000E+00 0.  1.
         22    1    3    3    0    0 -0.87372615342E+02  0.54979644666E+02  0.66703163185E+02  0.12290666059E+03  0.00000000000E+00 0.  1.
</event>
<event>
 7    1  0.5553952E-006  0.1409235E+03  0.7818608E-02  0.1311570E+00
          2   -1    0    0  502    0  0.00000000000E+00  0.00000000000E+00  0.16536398813E+04  0.16536398813E+04  0.00000000000E+00 0. -1.
          1   -1    0    0  501    0 -0.00000000000E+00 -0.00000000000E+00 -0.67452298179E+03  0.67452298179E+03  0.00000000000E+00 0. -1.
         25    2    1    2    0    0 -0.92607723180E+02 -0.16900509902E+03 -0.26187758999E+02  0.23119197111E+03  0.12500005958E+03 0.  0.
          2    1    1    2  501    0  0.26843422849E+02  0.45800818120E+02 -0.54138864494E+03  0.54398524719E+03  0.00000000000E+00 0. -1.
          1    1    1    2  502    0  0.65764300331E+02  0.12320428090E+03  0.15466933034E+04  0.15529856448E+04  0.00000000000E+00 0. -1.
         22    1    3    3    0    0 -0.27997362745E+02 -0.79199607048E+02  0.49167722578E+02  0.97333935607E+02  0.00000000000E+00 0. -1.
         22    1    3    3    0    0 -0.64610360436E+02 -0.89805491970E+02 -0.75355481577E+02  0.13385803550E+03  0.00000000000E+00 0. -1.
</event>
<event>
 7    1  0.5553952E-006  0.9639756E+02  0.7818608E-02  0.1314319E+00
          2   -1    0    0  502    0  0.00000000000E+00  0.00000000000E+00  0.14143450737E+04  0.14143450737E+04  0.00000000000E+00 0. -1.
          1   -1    0    0  501    0 -0.00000000000E+00 -0.00000000000E+00 -0.41941277377E+04  0.41941277377E+04  0.00000000000E+00 0. -1.
         25    2    1    2    0    0  0.10006985597E+02  0.43040402392E+02 -0.41321188383E+02  0.13886682681E+03  0.12499575585E+03 0.  0.
          2    1    1    2  501    0  0.56613638146E+02 -0.78999029050E+02 -0.41024084797E+04  0.41035595871E+04  0.00000000000E+00 0. -1.
          1    1    1    2  502    0 -0.66620623742E+02  0.35958626657E+02  0.13639470041E+04  0.13660463975E+04  0.00000000000E+00 0. -1.
         22    1    3    3    0    0 -0.20749007513E+02 -0.36858189821E+02 -0.31403729073E+02  0.52680562538E+02  0.00000000000E+00 0. -1.
         22    1    3    3    0    0  0.30755993110E+02  0.79898592213E+02 -0.99174593100E+01  0.86186264271E+02  0.00000000000E+00 0. -1.
</event>
<event>
 7    1  0.5553952E-006  0.1840431E+03  0.7818608E-02  0.1316828E+00
          2   -1    0    0  502    0  0.00000000000E+00  0.00000000000E+00  0.11209607904E+04  0.11209607904E+04  0.00000000000E+00 0. -1.
          1   -1    0    0  501    0 -0.00000000000E+00 -0.00000000000E+00 -0.65048800232E+03  0.65048800232E+03  0.00000000000E+00 0. -1.
         25    2    1    2    0    0  0.16618572149E+03  0.12689621308E+03 -0.27487335684E+03  0.36728947500E+03  0.12500341284E+03 0.  0.
          2    1    1    2  501    0 -0.14259367134E+03 -0.96133233968E+02 -0.30657983535E+03  0.35151920178E+03  0.00000000000E+00 0. -1.
          1    1    1    2  502    0 -0.23592050150E+02 -0.30762979110E+02  0.10519259802E+04  0.10526401159E+04  0.00000000000E+00 0. -1.
         22    1    3    3    0    0  0.37638494087E+02  0.69401118323E+02 -0.18258479233E+03  0.19892304505E+03  0.00000000000E+00 0. -1.
         22    1    3    3    0    0  0.12854722740E+03  0.57495094756E+02 -0.92288564510E+02  0.16836642995E+03  0.00000000000E+00 0. -1.
</event>
<event>
 7    1  0.5553952E-006  0.1016531E+03  0.7818608E-02  0.1348034E+00
          2   -1    0    0  502    0  0.00000000000E+00  0.00000000000E+00  0.34329097337E+03  0.34329097337E+03  0.00000000000E+00 0. -1.
          1   -1    0    0  501    0 -0.00000000000E+00 -0.00000000000E+00 -0.46436939036E+03  0.46436939036E+03  0.00000000000E+00 0. -1.
         25    2    1    2    0    0 -0.43972283783E+02  0.22877551005E+02  0.22227961300E+03  0.25978941705E+03  0.12500148308E+03 0.  0.
          2    1    1    2  501    0  0.91479439627E+02 -0.47246843631E+02 -0.43215884669E+03  0.44425445510E+03  0.00000000000E+00 0. -1.
          1    1    1    2  502    0 -0.47507155844E+02  0.24369292626E+02  0.88800816698E+02  0.10361649157E+03  0.00000000000E+00 0. -1.
         22    1    3    3    0    0 -0.36505594238E+02  0.31135358767E+02  0.12322015987E+02  0.49536865607E+02  0.00000000000E+00 0. -1.
         22    1    3    3    0    0 -0.74666895450E+01 -0.82578077611E+01  0.20995759702E+03  0.21025255144E+03  0.00000000000E+00 0. -1.
</event>
<event>
 7    1  0.5553952E-006  0.1642585E+03  0.7818608E-02  0.1323559E+00
          2   -1    0    0  502    0  0.00000000000E+00  0.00000000000E+00  0.69558231412E+03  0.69558231412E+03  0.00000000000E+00 0. -1.
          1   -1    0    0  501    0 -0.00000000000E+00 -0.00000000000E+00 -0.46085514280E+03  0.46085514280E+03  0.00000000000E+00 0. -1.
         25    2    1    2    0    0 -0.97878603946E+02  0.17467896994E+03  0.48654609411E+02  0.24100688573E+03  0.12499633715E+03 0.  0.
          2    1    1    2  501    0  0.83466634043E+02 -0.13639896792E+03 -0.34632670058E+03  0.38146237164E+03  0.00000000000E+00 0. -1.
          1    1    1    2  502    0  0.14411969904E+02 -0.38280002021E+02  0.53239926248E+03  0.53396819954E+03  0.00000000000E+00 0. -1.
         22    1    3    3    0    0 -0.22677167250E+01  0.96013667494E+02  0.65217563704E+02  0.11609090188E+03  0.00000000000E+00 0.  1.
         22    1    3    3    0    0 -0.95610887221E+02  0.78665302447E+02 -0.16562954293E+02  0.12491598384E+03  0.00000000000E+00 0.  1.
</event>
<event>
 7    1  0.5553952E-006  0.1033571E+03  0.7818608E-02  0.1281673E+00
          2   -1    0    0  502    0  0.00000000000E+00  0.00000000000E+00  0.12354953191E+04  0.12354953191E+04  0.00000000000E+00 0. -1.
          1   -1    0    0  501    0 -0.00000000000E+00 -0.00000000000E+00 -0.12589038681E+04  0.12589038681E+04  0.00000000000E+00 0. -1.
         25    2    1    2    0    0 -0.56340078829E+02  0.12639378843E+03  0.25261603810E+03  0.31398798400E+03  0.12499598855E+03 0.  0.
          2    1    1    2  501    0 -0.34646316367E+02 -0.97400225275E+02 -0.12236385536E+04  0.12279977529E+04  0.00000000000E+00 0. -1.
          1    1    1    2  502    0  0.90986395196E+02 -0.28993563159E+02  0.94761396651E+03  0.95241345032E+03  0.00000000000E+00 0. -1.
         22    1    3    3    0    0 -0.33933658951E+02  0.13369221166E+03  0.25539312664E+03  0.29025979709E+03  0.00000000000E+00 0.  1.
         22    1    3    3    0    0 -0.22406419878E+02 -0.72984232293E+01 -0.27770885435E+01  0.23728186912E+02  0.00000000000E+00 0.  1.
</event>
<event>
 7    1  0.5553952E-006  0.6814494E+02  0.7818608E-02  0.1429804E+00
          2   -1    0    0  502    0  0.00000000000E+00  0.00000000000E+00  0.50153804675E+02  0.50153804675E+02  0.00000000000E+00 0. -1.
          1   -1    0    0  501    0 -0.00000000000E+00 -0.00000000000E+00 -0.18381707593E+04  0.18381707593E+04  0.00000000000E+00 0. -1.
         25    2    1    2    0    0  0.52015824016E+02  0.88028383332E+02 -0.16477583871E+04  0.16556529593E+04  0.12499750809E+03 0.  0.
          2    1    1    2  501    0 -0.32863153446E+01 -0.41088741175E+02 -0.15753676447E+03  0.16284015684E+03  0.00000000000E+00 0. -1.
          1    1    1    2  502    0 -0.48729508671E+02 -0.46939642157E+02  0.17278196954E+02  0.69831447866E+02  0.00000000000E+00 0. -1.
         22    1    3    3    0    0  0.59370074719E+02  0.50318740966E+02 -0.15258564316E+04  0.15278398579E+04  0.00000000000E+00 0.  1.
         22    1    3    3    0    0 -0.73542507037E+01  0.37709642366E+02 -0.12190195554E+03  0.12781310142E+03  0.00000000000E+00 0.  1.
</event>
<event>
 7    1  0.5553952E-006  0.1270926E+03  0.7818608E-02  0.1241405E+00
          2   -1    0    0  502    0  0.00000000000E+00  0.00000000000E+00  0.13979848059E+04  0.13979848059E+04  0.00000000000E+00 0. -1.
          1   -1    0    0  501    0 -0.00000000000E+00 -0.00000000000E+00 -0.20696919021E+03  0.20696919021E+03  0.00000000000E+00 0. -1.
         25    2    1    2    0    0  0.11373233738E+03 -0.57103242446E+01  0.12640354827E+03  0.21111697144E+03  0.12499946499E+03 0.  0.
          2    1    1    2  501    0 -0.74780502912E+02  0.11418826751E+03 -0.13306680184E+03  0.19062491391E+03  0.00000000000E+00 0. -1.
          1    1    1    2  502    0 -0.38951834466E+02 -0.10847794326E+03  0.11976788693E+04  0.12032121107E+04  0.00000000000E+00 0. -1.
         22    1    3    3    0    0 -0.19745596069E+01  0.19241559580E+01  0.89335249326E+02  0.89377782664E+02  0.00000000000E+00 0.  1.
         22    1    3    3    0    0  0.11570689699E+03 -0.76344802027E+01  0.37068298939E+02  0.12173918878E+03  0.00000000000E+00 0.  1.
</event>
<event>
 7    1  0.5553952E-006  0.5856538E+02  0.7818608E-02  0.1533922E+00
          2   -1    0    0  502    0  0.00000000000E+00  0.00000000000E+00  0.16433969018E+03  0.16433969018E+03  0.00000000000E+00 0. -1.
          1   -1    0    0  501    0 -0.00000000000E+00 -0.00000000000E+00 -0.76700039367E+03  0.76700039367E+03  0.00000000000E+00 0. -1.
         25    2    1    2    0    0  0.54438869966E+02  0.59198627982E+02 -0.86252202192E+02  0.17185163204E+03  0.12500189173E+03 0.  0.
          2    1    1    2  501    0 -0.15692558620E+02 -0.16828898263E+02 -0.63094640407E+03  0.63136584721E+03  0.00000000000E+00 0. -1.
          1    1    1    2  502    0 -0.38746311346E+02 -0.42369729719E+02  0.11453790277E+03  0.12812260461E+03  0.00000000000E+00 0. -1.
         22    1    3    3    0    0 -0.11420140276E+02  0.48001961101E+02  0.14082380127E+02  0.51311999606E+02  0.00000000000E+00 0.  1.
         22    1    3    3    0    0  0.65859010242E+02  0.11196666881E+02 -0.10033458232E+03  0.12053963244E+03  0.00000000000E+00 0.  1.
</event>
<event>
 7    1  0.5553952E-006  0.6804377E+02  0.7818608E-02  0.1368454E+00
          2   -1    0    0  502    0  0.00000000000E+00  0.00000000000E+00  0.11203287265E+04  0.11203287265E+04  0.00000000000E+00 0. -1.
          1   -1    0    0  501    0 -0.00000000000E+00 -0.00000000000E+00 -0.25622079314E+03  0.25622079314E+03  0.00000000000E+00 0. -1.
         25    2    1    2    0    0 -0.43351818460E+02 -0.87409445199E+02  0.32504376176E+03  0.36166089164E+03  0.12500144882E+03 0.  0.
          2    1    1    2  501    0 -0.19956828763E+02  0.65002847345E+02 -0.23156332036E+03  0.24134045768E+03  0.00000000000E+00 0. -1.
          1    1    1    2  502    0  0.63308647223E+02  0.22406597854E+02  0.77062749191E+03  0.77354817027E+03  0.00000000000E+00 0. -1.
         22    1    3    3    0    0  0.88866561555E+01  0.43300368386E+01 -0.77261833693E+01  0.12546544787E+02  0.00000000000E+00 0. -1.
         22    1    3    3    0    0 -0.52238474615E+02 -0.91739482038E+02  0.33276994513E+03  0.34911434685E+03  0.00000000000E+00 0. -1.
</event>
<event>
 7    1  0.5553952E-006  0.1682993E+03  0.7818608E-02  0.1285968E+00
          2   -1    0    0  502    0  0.00000000000E+00  0.00000000000E+00  0.14737271529E+04  0.14737271529E+04  0.00000000000E+00 0. -1.
          1   -1    0    0  501    0 -0.00000000000E+00 -0.00000000000E+00 -0.24710659825E+03  0.24710659825E+03  0.00000000000E+00 0. -1.
         25    2    1    2    0    0  0.10010678443E+03 -0.64976079293E+02 -0.77809108370E+02  0.18953304582E+03  0.12500103576E+03 0.  0.
          2    1    1    2  501    0  0.25048109346E+02 -0.50433632591E+02 -0.10097871007E+03  0.11561859265E+03  0.00000000000E+00 0. -1.
          1    1    1    2  502    0 -0.12515489378E+03  0.11540971188E+03  0.14054083731E+04  0.14156821127E+04  0.00000000000E+00 0. -1.
         22    1    3    3    0    0 -0.11077758125E+02  0.16027993936E+01 -0.57230497672E+02  0.58314797048E+02  0.00000000000E+00 0. -1.
         22    1    3    3    0    0  0.11118454256E+03 -0.66578878687E+02 -0.20578610699E+02  0.13121824877E+03  0.00000000000E+00 0. -1.
</event>
<event>
 7    1  0.5553952E-006  0.1250981E+03  0.7818608E-02  0.1312700E+00
          2   -1    0    0  502    0  0.00000000000E+00  0.00000000000E+00  0.12230774677E+04  0.12230774677E+04  0.00000000000E+00 0. -1.
          1   -1    0    0  501    0 -0.00000000000E+00 -0.00000000000E+00 -0.90905783607E+02  0.90905783607E+02  0.00000000000E+00 0. -1.
         25    2    1    2    0    0  0.48590359016E+02 -0.88430586374E+02  0.30295913663E+03  0.34291503572E+03  0.12500196660E+03 0.  0.
          2    1    1    2  501    0  0.58457016076E+02  0.93207701573E+01 -0.52646830671E+02  0.79219872915E+02  0.00000000000E+00 0. -1.
          1    1    1    2  502    0 -0.10704737509E+03  0.79109816217E+02  0.88185937813E+03  0.89184834268E+03  0.00000000000E+00 0. -1.
         22    1    3    3    0    0  0.67416323507E+01 -0.79075791023E+02  0.28599099137E+03  0.29679837849E+03  0.00000000000E+00 0. -1.
         22    1    3    3    0    0  0.41848726666E+02 -0.93547953512E+01  0.16968145265E+02  0.46116657222E+02  0.00000000000E+00 0. -1.
</event>
<event>
 7    1  0.5553952E-006  0.5789960E+02  0.7818608E-02  0.1497666E+00
          2   -1    0    0  502    0  0.00000000000E+00  0.00000000000E+00  0.27154747829E+04  0.27154747829E+04  0.00000000000E+00 0. -1.
          1   -1    0    0  501    0 -0.00000000000E+00 -0.00000000000E+00 -0.66586415096E+02  0.66586415096E+02  0.00000000000E+00 0. -1.
         25    2    1    2    0    0 -0.43404163392E+02 -0.24320758670E+02  0.81818834456E+03  0.82917603833E+03  0.12500125867E+03 0.  0.
          2    1    1    2  501    0  0.58134021068E+02 -0.14717148092E+01 -0.47109916887E+02  0.74840327492E+02  0.00000000000E+00 0. -1.
          1    1    1    2  502    0 -0.14729857676E+02  0.25792473479E+02  0.18778099402E+04  0.18780448322E+04  0.00000000000E+00 0. -1.
         22    1    3    3    0    0 -0.21648789936E+02  0.24040927381E+02  0.68578783056E+03  0.68655049694E+03  0.00000000000E+00 0. -1.
         22    1    3    3    0    0 -0.21755373456E+02 -0.48361686051E+02  0.13240051400E+03  0.14262554140E+03  0.00000000000E+00 0. -1.
</event>
<event>
 7    1  0.5553952E-006  0.6768937E+02  0.7818608E-02  0.1413957E+00
          2   -1    0    0  502    0  0.00000000000E+00  0.00000000000E+00  0.16292353549E+04  0.16292353549E+04  0.00000000000E+00 0. -1.
          1   -1    0    0  501    0 -0.00000000000E+00 -0.00000000000E+00 -0.47180459287E+02  0.47180459287E+02  0.00000000000E+00 0. -1.
         25    2    1    2    0    0  0.11904756726E+02 -0.66634323448E+01  0.11266266642E+04  0.11336204735E+04  0.12498645062E+03 0.  0.
          2    1    1    2  501    0  0.37771246880E+02 -0.56171020444E+02 -0.11835199145E+02  0.68716246750E+02  0.00000000000E+00 0. -1.
          1    1    1    2  502    0 -0.49676003606E+02  0.62834452788E+02  0.46726343056E+03  0.47407909396E+03  0.00000000000E+00 0. -1.
         22    1    3    3    0    0 -0.17472371120E+02 -0.61166185516E+02  0.53892968672E+03  0.54267098064E+03  0.00000000000E+00 0.  1.
         22    1    3    3    0    0  0.29377127846E+02  0.54502753171E+02  0.58769697750E+03  0.59094949286E+03  0.00000000000E+00 0.  1.
</event>
<event>
 7    1  0.5553952E-006  0.1578668E+03  0.7818608E-02  0.1389479E+00
          2   -1    0    0  502    0  0.00000000000E+00  0.00000000000E+00  0.44972639621E+03  0.44972639621E+03  0.00000000000E+00 0. -1.
          1   -1    0    0  501    0 -0.00000000000E+00 -0.00000000000E+00 -0.13935785320E+03  0.13935785320E+03  0.00000000000E+00 0. -1.
         25    2    1    2    0    0 -0.51267481707E+02 -0.16888564956E+03  0.20574193703E+03  0.29850525042E+03  0.12499969026E+03 0.  0.
          2    1    1    2  501    0  0.38105590184E+02  0.14836580510E+03 -0.28009776786E+02  0.15572089045E+03  0.00000000000E+00 0. -1.
          1    1    1    2  502    0  0.13161891524E+02  0.20519844462E+02  0.13263638278E+03  0.13485810855E+03  0.00000000000E+00 0. -1.
         22    1    3    3    0    0  0.40428011517E+02 -0.43317136880E+02  0.73346709114E+02  0.94289650549E+02  0.00000000000E+00 0.  1.
         22    1    3    3    0    0 -0.91695493225E+02 -0.12556851268E+03  0.13239522791E+03  0.20421559987E+03  0.00000000000E+00 0.  1.
</event>
<event>
 7    1  0.5553952E-006  0.1470518E+03  0.7818608E-02  0.1311953E+00
          2   -1    0    0  502    0  0.00000000000E+00  0.00000000000E+00  0.48892292760E+04  0.48892292760E+04  0.00000000000E+00 0. -1.
          1   -1    0    0  501    0 -0.00000000000E+00 -0.00000000000E+00 -0.81146534112E+03  0.81146534112E+03  0.00000000000E+00 0. -1.
         25    2    1    2    0    0  0.17667281427E+03  0.10077936638E+02 -0.35829238649E+03  0.41870656685E+03  0.12500762695E+03 0.  0.
          2    1    1    2  501    0 -0.36749813919E+02  0.34926372281E+02 -0.42033070785E+03  0.42337725998E+03  0.00000000000E+00 0. -1.
          1    1    1    2  502    0 -0.13992300035E+03 -0.45004308919E+02  0.48563870292E+04  0.48586107902E+04  0.00000000000E+00 0. -1.
         22    1    3    3    0    0  0.11556885695E+03  0.66082023587E+02 -0.20484594901E+03  0.24430484515E+03  0.00000000000E+00 0. -1.
         22    1    3    3    0    0  0.61103957315E+02 -0.56004086949E+02 -0.15344643749E+03  0.17440172170E+03  0.00000000000E+00 0. -1.
</event>
<event>
 7    1  0.5553952E-006  0.5692496E+02  0.7818608E-02  0.1455682E+00
          2   -1    0    0  502    0  0.00000000000E+00  0.00000000000E+00  0.23395061891E+03  0.23395061891E+03  0.00000000000E+00 0. -1.
          1   -1    0    0  501    0 -0.00000000000E+00 -0.00000000000E+00 -0.99688862928E+03  0.99688862928E+03  0.00000000000E+00 0. -1.
         25    2    1    2    0    0 -0.70933047262E+01  0.61108792025E+02 -0.64598150255E+03  0.66083416507E+03  0.12500037058E+03 0.  0.
          2    1    1    2  501    0 -0.34281631326E+02 -0.21934217103E+02 -0.33866010270E+03  0.34109676821E+03  0.00000000000E+00 0. -1.
          1    1    1    2  502    0  0.41374936052E+02 -0.39174574921E+02  0.22170359488E+03  0.22890831491E+03  0.00000000000E+00 0. -1.
         22    1    3    3    0    0 -0.59101113783E+02  0.18264918656E+02 -0.43439320214E+03  0.43877557244E+03  0.00000000000E+00 0. -1.
         22    1    3    3    0    0  0.52007809056E+02  0.42843873369E+02 -0.21158830041E+03  0.22205859263E+03  0.00000000000E+00 0. -1.
</event>
<event>
 7    1  0.5553952E-006  0.9001989E+02  0.7818608E-02  0.1345306E+00
          2   -1    0    0  502    0  0.00000000000E+00  0.00000000000E+00  0.48052893079E+03  0.48052893079E+03  0.00000000000E+00 0. -1.
          1   -1    0    0  501    0 -0.00000000000E+00 -0.00000000000E+00 -0.10906829889E+03  0.10906829889E+03  0.00000000000E+00 0. -1.
         25    2    1    2    0    0 -0.36376105889E+02  0.17123674489E+02  0.83977681784E+01  0.13156982538E+03  0.12499462041E+03 0.  0.
          2    1    1    2  501    0  0.66802933497E+02  0.67598159583E+02  0.12220145914E+02  0.95820013927E+02  0.00000000000E+00 0. -1.
          1    1    1    2  502    0 -0.30426827608E+02 -0.84721834072E+02  0.35084271781E+03  0.36220739038E+03  0.00000000000E+00 0. -1.
         22    1    3    3    0    0 -0.81970135985E+02  0.99485596059E+01  0.17795882705E+02  0.84467570540E+02  0.00000000000E+00 0. -1.
         22    1    3    3    0    0  0.45594030096E+02  0.71751148830E+01 -0.93981145267E+01  0.47102254836E+02  0.00000000000E+00 0. -1.
</event>
<event>
 7    1  0.5553952E-006  0.6112390E+02  0.7818608E-02  0.1396969E+00
          2   -1    0    0  502    0  0.00000000000E+00  0.00000000000E+00  0.33711214557E+03  0.33711214557E+03  0.00000000000E+00 0. -1.
          1   -1    0    0  501    0 -0.00000000000E+00 -0.00000000000E+00 -0.44221374379E+03  0.44221374379E+03  0.00000000000E+00 0. -1.
         25    2    1    2    0    0 -0.71651903326E+02 -0.17224636316E+02 -0.11417573282E+03  0.18463980866E+03  0.12500031052E+03 0.  0.
          2    1    1    2  501    0  0.45305547883E+02 -0.38263729890E+02 -0.28661426720E+03  0.29268488833E+03  0.00000000000E+00 0. -1.
          1    1    1    2  502    0  0.26346355442E+02  0.55488366206E+02  0.29568840181E+03  0.30200119237E+03  0.00000000000E+00 0. -1.
         22    1    3    3    0    0  0.25758333337E+02  0.49104277113E+00 -0.72996688560E+02  0.77409620849E+02  0.00000000000E+00 0. -1.
         22    1    3    3    0    0 -0.97410236663E+02 -0.17715679087E+02 -0.41179044262E+02  0.10723018781E+03  0.00000000000E+00 0. -1.
</event>
<event>
 7    1  0.5553952E-006  0.7587811E+02  0.7818608E-02  0.1378512E+00
          2   -1    0    0  502    0  0.00000000000E+00  0.00000000000E+00  0.59360256228E+03  0.59360256228E+03  0.00000000000E+00 0. -1.
          1   -1    0    0  501    0 -0.00000000000E+00 -0.00000000000E+00 -0.24619976927E+04  0.24619976927E+04  0.00000000000E+00 0. -1.
         25    2    1    2    0    0  0.52475276009E+02  0.10721156102E+02 -0.15702587696E+04  0.15761351597E+04  0.12498336013E+03 0.  0.
          2    1    1    2  501    0 -0.82022286648E+02 -0.57626348690E+02 -0.88466318913E+03  0.89032432842E+03  0.00000000000E+00 0. -1.
          1    1    1    2  502    0  0.29547010639E+02  0.46905192588E+02  0.58652682828E+03  0.58914076690E+03  0.00000000000E+00 0. -1.
         22    1    3    3    0    0  0.22852622888E+02 -0.11191139432E+02 -0.56930197738E+02  0.62358090006E+02  0.00000000000E+00 0. -1.
         22    1    3    3    0    0  0.29622653121E+02  0.21912295535E+02 -0.15133285718E+04  0.15137770696E+04  0.00000000000E+00 0. -1.
</event>
<event>
 7    1  0.5553952E-006  0.4469468E+02  0.7818608E-02  0.1541287E+00
          2   -1    0    0  502    0  0.00000000000E+00  0.00000000000E+00  0.12110380579E+04  0.12110380579E+04  0.00000000000E+00 0. -1.
          1   -1    0    0  501    0 -0.00000000000E+00 -0.00000000000E+00 -0.36739989665E+02  0.36739989665E+02  0.00000000000E+00 0. -1.
         25    2    1    2    0    0 -0.63050455873E+02 -0.24846198010E+02  0.44485223734E+03  0.46702353438E+03  0.12499910024E+03 0.  0.
          2    1    1    2  501    0  0.43700749437E+02  0.36020061365E+01 -0.64299663931E+01  0.44317879207E+02  0.00000000000E+00 0. -1.
          1    1    1    2  502    0  0.19349706437E+02  0.21244191873E+02  0.73587579733E+03  0.73643663402E+03  0.00000000000E+00 0. -1.
         22    1    3    3    0    0 -0.61148309917E+02 -0.21862622279E+02  0.45326692535E+03  0.45789517979E+03  0.00000000000E+00 0.  1.
         22    1    3    3    0    0 -0.19021459567E+01 -0.29835757302E+01 -0.84146880069E+01  0.91283545961E+01  0.00000000000E+00 0.  1.
</event>
<event>
 7    1  0.5553952E-006  0.1030469E+03  0.7818608E-02  0.1376823E+00
          2   -1    0    0  502    0  0.00000000000E+00  0.00000000000E+00  0.72126790002E+03  0.72126790002E+03  0.00000000000E+00 0. -1.
          1   -1    0    0  501    0 -0.00000000000E+00 -0.00000000000E+00 -0.58133225831E+03  0.58133225831E+03  0.00000000000E+00 0. -1.
         25    2    1    2    0    0  0.58604335218E+02 -0.72192696952E+02 -0.11320238270E+02  0.15620111573E+03  0.12499754862E+03 0.  0.
          2    1    1    2  501    0 -0.28339973283E+02  0.10042453922E+03 -0.49142791687E+03  0.50238395639E+03  0.00000000000E+00 0. -1.
          1    1    1    2  502    0 -0.30264361935E+02 -0.28231842266E+02  0.64268379685E+03  0.64401508620E+03  0.00000000000E+00 0. -1.
         22    1    3    3    0    0  0.47214761777E+02  0.22951869279E+02  0.18788007797E+02  0.55758508499E+02  0.00000000000E+00 0. -1.
         22    1    3    3    0    0  0.11389573441E+02 -0.95144566230E+02 -0.30108246067E+02  0.10044260723E+03  0.00000000000E+00 0. -1.
</event>
<event>
 7    1  0.5553952E-006  0.1248662E+03  0.7818608E-02  0.1368469E+00
          2   -1    0    0  502    0  0.00000000000E+00  0.00000000000E+00  0.32533512192E+04  0.32533512192E+04  0.00000000000E+00 0. -1.
          1   -1    0    0  501    0 -0.00000000000E+00 -0.00000000000E+00 -0.10853240327E+04  0.10853240327E+04  0.00000000000E+00 0. -1.
         25    2    1    2    0    0 -0.99563955253E+02 -0.11688477749E+03  0.13413902324E+04  0.13559234315E+04  0.12500225722E+03 0.  0.
          2    1    1    2  501    0  0.28351673694E+02  0.23132822220E+02 -0.10759268410E+04  0.10765488898E+04  0.00000000000E+00 0. -1.
          1    1    1    2  502    0  0.71212281559E+02  0.93751955271E+02  0.19025637952E+04  0.19062029307E+04  0.00000000000E+00 0. -1.
         22    1    3    3    0    0 -0.58087391892E+02 -0.13518240936E+03  0.11423204711E+04  0.11517571305E+04  0.00000000000E+00 0. -1.
         22    1    3    3    0    0 -0.41476563361E+02  0.18297631871E+02  0.19906976125E+03  0.20416630105E+03  0.00000000000E+00 0. -1.
</event>
<event>
 7    1  0.5553952E-006  0.8518009E+02  0.7818608E-02  0.1435697E+00
          2   -1    0    0  502    0  0.00000000000E+00  0.00000000000E+00  0.91248615832E+03  0.91248615832E+03  0.00000000000E+00 0. -1.
          1   -1    0    0  501    0 -0.00000000000E+00 -0.00000000000E+00 -0.52022704085E+03  0.52022704085E+03  0.00000000000E+00 0. -1.
         25    2    1    2    0    0  0.52672566248E+02  0.47804292154E+02  0.63668880170E+03  0.65273136456E+03  0.12500381789E+03 0.  0.
          2    1    1    2  501    0 -0.38615511769E+02 -0.76039874295E+02 -0.50770796425E+03  0.51482093702E+03  0.00000000000E+00 0. -1.
          1    1    1    2  502    0 -0.14057054479E+02  0.28235582141E+02  0.26327828002E+03  0.26516089759E+03  0.00000000000E+00 0. -1.
         22    1    3    3    0    0 -0.87380173575E+00 -0.39218028224E+02  0.23496476462E+03  0.23821682955E+03  0.00000000000E+00 0.  1.
         22    1    3    3    0    0  0.53546367984E+02  0.87022320378E+02  0.40172403708E+03  0.41451453502E+03  0.00000000000E+00 0.  1.
</event>
<event>
 7    1  0.5553952E-006  0.5592942E+02  0.7818608E-02  0.1436462E+00
          2   -1    0    0  502    0  0.00000000000E+00  0.00000000000E+00  0.10177144257E+04  0.10177144257E+04  0.00000000000E+00 0. -1.
          1   -1    0    0  501    0 -0.00000000000E+00 -0.00000000000E+00 -0.10318865407E+04  0.10318865407E+04  0.00000000000E+00 0. -1.
         25    2    1    2    0    0  0.37706331504E+02  0.60840145043E+02 -0.25251938097E+02  0.14624137840E+03  0.12500235876E+03 0.  0.
          2    1    1    2  501    0 -0.53675770325E+02 -0.15827343531E+02 -0.94471559760E+03  0.94637157262E+03  0.00000000000E+00 0. -1.
          1    1    1    2  502    0  0.15969438820E+02 -0.45012801511E+02  0.95579542071E+03  0.95698801535E+03  0.00000000000E+00 0. -1.
         22    1    3    3    0    0  0.21702200634E+01  0.61170663109E+02  0.39168646523E+02  0.72668719204E+02  0.00000000000E+00 0. -1.
         22    1    3    3    0    0  0.35536111441E+02 -0.33051806625E+00 -0.64420584620E+02  0.73572659197E+02  0.00000000000E+00 0. -1.
</event>
<event>
 7    1  0.5553952E-006  0.1639396E+03  0.7818608E-02  0.1307488E+00
          2   -1    0    0  502    0  0.00000000000E+00  0.00000000000E+00  0.47413526987E+03  0.47413526987E+03  0.00000000000E+00 0. -1.
          1   -1    0    0  501    0 -0.00000000000E+00 -0.00000000000E+00 -0.12389620540E+04  0.12389620540E+04  0.00000000000E+00 0. -1.
         25    2    1    2    0    0  0.14528833955E+03 -0.25553887281E+02 -0.19390407644E+03  0.27383316599E+03  0.12499643665E+03 0.  0.
          2    1    1    2  501    0 -0.16682308762E+03 -0.16624220532E+02 -0.99678076848E+03  0.10107809890E+04  0.00000000000E+00 0. -1.
          1    1    1    2  502    0  0.21534748068E+02  0.42178107813E+02  0.42585806075E+03  0.42848316893E+03  0.00000000000E+00 0. -1.
         22    1    3    3    0    0  0.64452166741E+02 -0.73476169567E+02 -0.11662590306E+03  0.15216579956E+03  0.00000000000E+00 0. -1.
         22    1    3    3    0    0  0.80836172807E+02  0.47922282286E+02 -0.77278173378E+02  0.12166736643E+03  0.00000000000E+00 0. -1.
</event>
<event>
 7    1  0.5553952E-006  0.1308635E+03  0.7818608E-02  0.1364778E+00
          2   -1    0    0  502    0  0.00000000000E+00  0.00000000000E+00  0.18242223548E+04  0.18242223548E+04  0.00000000000E+00 0. -1.
          1   -1    0    0  501    0 -0.00000000000E+00 -0.00000000000E+00 -0.86202223588E+03  0.86202223588E+03  0.00000000000E+00 0. -1.
         25    2    1    2    0    0  0.11697662482E+03  0.78613384288E+02  0.28510355189E+03  0.34171897998E+03  0.12499692409E+03 0.  0.
          2    1    1    2  501    0 -0.86619897330E+02 -0.97970904707E+02 -0.82836992643E+03  0.83862866621E+03  0.00000000000E+00 0. -1.
          1    1    1    2  502    0 -0.30356727494E+02  0.19357520419E+02  0.15054664934E+04  0.15058969444E+04  0.00000000000E+00 0. -1.
         22    1    3    3    0    0  0.13344472735E+03  0.71523592172E+02  0.18050711003E+03  0.23559697848E+03  0.00000000000E+00 0.  1.
         22    1    3    3    0    0 -0.16468102527E+02  0.70897921157E+01  0.10459644186E+03  0.10612200150E+03  0.00000000000E+00 0.  1.
</event>
<event>
 7    1  0.5553952E-006  0.3192278E+02  0.7818608E-02  0.1578623E+00
          2   -1    0    0  502    0  0.00000000000E+00  0.00000000000E+00  0.34072949909E+04  0.34072949909E+04  0.00000000000E+00 0. -1.
          1   -1    0    0  501    0 -0.00000000000E+00 -0.00000000000E+00 -0.34948374774E+01  0.34948374774E+01  0.00000000000E+00 0. -1.
         25    2    1    2    0    0 -0.36432951273E+01  0.38107678562E+01  0.20286445816E+04  0.20324992481E+04  0.12500623722E+03 0.  0.
          2    1    1    2  501    0 -0.20390325691E+01 -0.35050538453E+02  0.22727401717E+03  0.22996994755E+03  0.00000000000E+00 0. -1.
          1    1    1    2  502    0  0.56823276964E+01  0.31239770596E+02  0.11478815546E+04  0.11483206327E+04  0.00000000000E+00 0. -1.
         22    1    3    3    0    0 -0.50465687754E+01 -0.60387406595E+02  0.10560779741E+04  0.10578151039E+04  0.00000000000E+00 0. -1.
         22    1    3    3    0    0  0.14032736480E+01  0.64198174452E+02  0.97256660752E+03  0.97468414415E+03  0.00000000000E+00 0. -1.
</event>
<event>
 7    1  0.5553952E-006  0.1202803E+03  0.7818608E-02  0.1266614E+00
          2   -1    0    0  502    0  0.00000000000E+00  0.00000000000E+00  0.28964402604E+04  0.28964402604E+04  0.00000000000E+00 0. -1.
          1   -1    0    0  501    0 -0.00000000000E+00 -0.00000000000E+00 -0.78027866808E+03  0.78027866808E+03  0.00000000000E+00 0. -1.
         25    2    1    2    0    0  0.47124760378E+02  0.23861698276E+02  0.13536028421E+03  0.19166903769E+03  0.12499795912E+03 0.  0.
          2    1    1    2  501    0  0.71083164350E+02 -0.62768399507E+02 -0.74771130267E+03  0.75370078968E+03  0.00000000000E+00 0. -1.
          1    1    1    2  502    0 -0.11820792473E+03  0.38906701231E+02  0.27285126108E+04  0.27313491011E+04  0.00000000000E+00 0. -1.
         22    1    3    3    0    0 -0.26472363580E+02  0.46575612273E+02  0.82071712375E+02  0.98009385593E+02  0.00000000000E+00 0. -1.
         22    1    3    3    0    0  0.73597123957E+02 -0.22713913997E+02  0.53288571832E+02  0.93659652101E+02  0.00000000000E+00 0. -1.
</event>
<event>
 7    1  0.5553952E-006  0.1199707E+03  0.7818608E-02  0.1279513E+00
          2   -1    0    0  502    0  0.00000000000E+00  0.00000000000E+00  0.21278547448E+03  0.21278547448E+03  0.00000000000E+00 0. -1.
          1   -1    0    0  501    0 -0.00000000000E+00 -0.00000000000E+00 -0.48766794246E+03  0.48766794246E+03  0.00000000000E+00 0. -1.
         25    2    1    2    0    0  0.14129616445E+03 -0.48234341379E+02 -0.20534330529E+03  0.28298579191E+03  0.12499571041E+03 0.  0.
          2    1    1    2  501    0 -0.11159830824E+03 -0.30315831065E+02 -0.21807304924E+03  0.24683817942E+03  0.00000000000E+00 0. -1.
          1    1    1    2  502    0 -0.29697856211E+02  0.78550172444E+02  0.14853388655E+03  0.17062944560E+03  0.00000000000E+00 0. -1.
         22    1    3    3    0    0  0.62178135087E+00  0.25428818420E+02 -0.69521125679E+02  0.74028361686E+02  0.00000000000E+00 0.  1.
         22    1    3    3    0    0  0.14067438310E+03 -0.73663159799E+02 -0.13582217961E+03  0.20895743023E+03  0.00000000000E+00 0.  1.
</event>
<event>
 7    1  0.5553952E-006  0.5351758E+02  0.7818608E-02  0.1477108E+00
          2   -1    0    0  502    0  0.00000000000E+00  0.00000000000E+00  0.15360673735E+03  0.15360673735E+03  0.00000000000E+00 0. -1.
          1   -1    0    0  501    0 -0.00000000000E+00 -0.00000000000E+00 -0.33718594273E+03  0.33718594273E+03  0.00000000000E+00 0. -1.
         25    2    1    2    0    0  0.51254782296E+01 -0.51268259712E+02  0.76903116094E+02  0.15554499449E+03  0.12500180425E+03 0.  0.
          2    1    1    2  501    0  0.36093511410E+02  0.85892245890E+01 -0.27224303690E+03  0.27475950846E+03  0.00000000000E+00 0. -1.
          1    1    1    2  502    0 -0.41218989639E+02  0.42679035123E+02  0.11760715422E+02  0.60488177135E+02  0.00000000000E+00 0. -1.
         22    1    3    3    0    0 -0.43306950784E+02 -0.44620717606E+02  0.85691237016E+02  0.10587487203E+03  0.00000000000E+00 0. -1.
         22    1    3    3    0    0  0.48432429013E+02 -0.66475421054E+01 -0.87881209221E+01  0.49670122463E+02  0.00000000000E+00 0. -1.
</event>
<event>
 7    1  0.5553952E-006  0.8259319E+02  0.7818608E-02  0.1368298E+00
          2   -1    0    0  502    0  0.00000000000E+00  0.00000000000E+00  0.44490413129E+04  0.44490413129E+04  0.00000000000E+00 0. -1.
          1   -1    0    0  501    0 -0.00000000000E+00 -0.00000000000E+00 -0.11597485527E+03  0.11597485527E+03  0.00000000000E+00 0. -1.
         25    2    1    2    0    0  0.19403691871E+02 -0.25479339424E+02  0.58543419901E+02  0.14169802875E+03  0.12500119736E+03 0.  0.
          2    1    1    2  501    0  0.53481951529E+02 -0.14444203285E+02 -0.63631450114E+02  0.84367740229E+02  0.00000000000E+00 0. -1.
          1    1    1    2  502    0 -0.72885643400E+02  0.39923542708E+02  0.43381544878E+04  0.43389503992E+04  0.00000000000E+00 0. -1.
         22    1    3    3    0    0  0.31554984627E+02  0.19732684490E+02 -0.25763617571E+02  0.45264333446E+02  0.00000000000E+00 0.  1.
         22    1    3    3    0    0 -0.12151292756E+02 -0.45212023913E+02  0.84307037472E+02  0.96433695300E+02  0.00000000000E+00 0.  1.
</event>
<event>
 7    1  0.5553952E-006  0.5862476E+02  0.7818608E-02  0.1415502E+00
          2   -1    0    0  502    0  0.00000000000E+00  0.00000000000E+00  0.45899798815E+03  0.45899798815E+03  0.00000000000E+00 0. -1.
          1   -1    0    0  501    0 -0.00000000000E+00 -0.00000000000E+00 -0.19084996956E+03  0.19084996956E+03  0.00000000000E+00 0. -1.
         25    2    1    2    0    0 -0.33023214359E+02 -0.25695676642E+02 -0.10047310793E+02  0.13218608244E+03  0.12498564498E+03 0.  0.
          2    1    1    2  501    0 -0.50547171121E+01  0.63222711368E+02 -0.10936831714E+03  0.12642820173E+03  0.00000000000E+00 0. -1.
          1    1    1    2  502    0  0.38077931471E+02 -0.37527034725E+02  0.38756364653E+03  0.39123367354E+03  0.00000000000E+00 0. -1.
         22    1    3    3    0    0 -0.94261124791E+01 -0.59793978766E+01 -0.66752827673E+02  0.67679722206E+02  0.00000000000E+00 0.  1.
         22    1    3    3    0    0 -0.23597101880E+02 -0.19716278766E+02  0.56705516880E+02  0.64506360230E+02  0.00000000000E+00 0.  1.
</event>
<event>
 7    1  0.5553952E-006  0.9877230E+02  0.7818608E-02  0.1407827E+00
          2   -1    0    0  502    0  0.00000000000E+00  0.00000000000E+00  0.19583088234E+04  0.19583088234E+04  0.00000000000E+00 0. -1.
          1   -1    0    0  501    0 -0.00000000000E+00 -0.00000000000E+00 -0.17428480550E+04  0.17428480550E+04  0.00000000000E+00 0. -1.
         25    2    1    2    0    0 -0.76917282645E+02  0.83867612158E+02  0.86483394627E+03  0.88119977959E+03  0.12500100880E+03 0.  0.
          2    1    1    2  501    0  0.43569783522E+02 -0.88624616423E+02 -0.17329976574E+04  0.17358091858E+04  0.00000000000E+00 0. -1.
          1    1    1    2  502    0  0.33347499123E+02  0.47570042649E+01  0.10836244795E+04  0.10841479130E+04  0.00000000000E+00 0. -1.
         22    1    3    3    0    0  0.11451635619E+02 -0.74357559091E+00  0.46878292227E+01  0.12396314204E+02  0.00000000000E+00 0. -1.
         22    1    3    3    0    0 -0.88368918264E+02  0.84611187749E+02  0.86014611704E+03  0.86880346539E+03  0.00000000000E+00 0. -1.
</event>
<event>
 7    1  0.5553952E-006  0.1200746E+03  0.7818608E-02  0.1280246E+00
          2   -1    0    0  502    0  0.00000000000E+00  0.00000000000E+00  0.33613762407E+04  0.33613762407E+04  0.00000000000E+00 0. -1.
          1   -1    0    0  501    0 -0.00000000000E+00 -0.00000000000E+00 -0.21820169780E+03  0.21820169780E+03  0.00000000000E+00 0. -1.
         25    2    1    2    0    0 -0.95647736556E+02  0.49148089438E+02  0.52271464607E+03  0.54810810047E+03  0.12501145699E+03 0.  0.
          2    1    1    2  501    0 -0.24655669528E+02 -0.79589675839E+02 -0.19563643602E+03  0.21264062086E+03  0.00000000000E+00 0. -1.
          1    1    1    2  502    0  0.12030340608E+03  0.30441586401E+02  0.28160963329E+04  0.28188292172E+04  0.00000000000E+00 0. -1.
         22    1    3    3    0    0 -0.50493171550E+02  0.44010435410E+02  0.85862008780E+02  0.10889794925E+03  0.00000000000E+00 0. -1.
         22    1    3    3    0    0 -0.45154565006E+02  0.51376540281E+01  0.43685263729E+03  0.43921015123E+03  0.00000000000E+00 0. -1.
</event>
<event>
 7    1  0.6639073E-006  0.7762616E+02  0.7818608E-02  0.1445794E+00
          2   -1    0    0  502    0  0.00000000000E+00  0.00000000000E+00  0.21852741991E+04  0.21852741991E+04  0.00000000000E+00 0. -1.
          1   -1    0    0  501    0 -0.00000000000E+00 -0.00000000000E+00 -0.10408806203E+04  0.10408806203E+04  0.00000000000E+00 0. -1.
         25    2    1    2    0    0  0.45658342168E+01 -0.46937869938E+02 -0.61463224243E+02  0.14706179144E+03  0.12500172836E+03 0.  0.
          2    1    1    2  501    0 -0.76315451451E+00  0.78809648116E+02 -0.93483961559E+03  0.93815598379E+03  0.00000000000E+00 0. -1.
          1    1    1    2  502    0 -0.38026797023E+01 -0.31871778178E+02  0.21406964186E+04  0.21409370442E+04  0.00000000000E+00 0. -1.
         22    1    3    3    0    0 -0.17510768942E+02  0.88148340517E+01  0.31105573729E+02  0.36767989411E+02  0.00000000000E+00 0. -1.
         22    1    3    3    0    0  0.22076603159E+02 -0.55752703989E+02 -0.92568797972E+02  0.11029380203E+03  0.00000000000E+00 0. -1.
</event>
<event>
 7    1  0.5553952E-006  0.2498302E+02  0.7818608E-02  0.1665813E+00
          2   -1    0    0  502    0  0.00000000000E+00  0.00000000000E+00  0.90878258163E+03  0.90878258163E+03  0.00000000000E+00 0. -1.
          1   -1    0    0  501    0 -0.00000000000E+00 -0.00000000000E+00 -0.17859890146E+03  0.17859890146E+03  0.00000000000E+00 0. -1.
         25    2    1    2    0    0  0.26379442898E+02 -0.13825741249E+02 -0.11794667116E+03  0.17442793633E+03  0.12500664625E+03 0.  0.
          2    1    1    2  501    0 -0.35939199561E+01  0.24090884037E+02 -0.27631845547E+02  0.36834845496E+02  0.00000000000E+00 0. -1.
          1    1    1    2  502    0 -0.22785522942E+02 -0.10265142788E+02  0.87576219688E+03  0.87611870126E+03  0.00000000000E+00 0. -1.
         22    1    3    3    0    0  0.16683812910E+02  0.18546416568E+02  0.20268039346E+02  0.32142069001E+02  0.00000000000E+00 0. -1.
         22    1    3    3    0    0  0.96956299883E+01 -0.32372157817E+02 -0.13821471050E+03  0.14228586733E+03  0.00000000000E+00 0. -1.
</event>
<event>
 7    1  0.5553952E-006  0.2044827E+03  0.7818608E-02  0.1274186E+00
          2   -1    0    0  502    0  0.00000000000E+00  0.00000000000E+00  0.74322139631E+03  0.74322139631E+03  0.00000000000E+00 0. -1.
          1   -1    0    0  501    0 -0.00000000000E+00 -0.00000000000E+00 -0.48332143322E+03  0.48332143322E+03  0.00000000000E+00 0. -1.
         25    2    1    2    0    0  0.15406918530E+03  0.86094524479E+02 -0.11306500188E+03  0.24404582464E+03  0.12500035549E+03 0.  0.
          2    1    1    2  501    0  0.44523690243E+02 -0.26562007746E+02 -0.28652950254E+03  0.29118216819E+03  0.00000000000E+00 0. -1.
          1    1    1    2  502    0 -0.19859287554E+03 -0.59532516732E+02  0.65949446750E+03  0.69131483669E+03  0.00000000000E+00 0. -1.
         22    1    3    3    0    0  0.71573109924E+02  0.46126005568E+02 -0.12537361527E+03  0.15155481470E+03  0.00000000000E+00 0. -1.
         22    1    3    3    0    0  0.82496075373E+02  0.39968518911E+02  0.12308613392E+02  0.92491009939E+02  0.00000000000E+00 0. -1.
</event>
<event>
 7    1  0.5553952E-006  0.9306349E+02  0.7818608E-02  0.1411645E+00
          2   -1    0    0  502    0  0.00000000000E+00  0.00000000000E+00  0.64542992306E+03  0.64542992306E+03  0.00000000000E+00 0. -1.
          1   -1    0    0  501    0 -0.00000000000E+00 -0.00000000000E+00 -0.49395086581E+03  0.49395086581E+03  0.00000000000E+00 0. -1.
         25    2    1    2    0    0  0.11066095464E+03  0.15480965771E+02 -0.43378302438E+02  0.17318267735E+03  0.12500022171E+03 0.  0.
          2    1    1    2  501    0 -0.90894787124E+02  0.13041029455E+02 -0.37967366595E+03  0.39062004991E+03  0.00000000000E+00 0. -1.
          1    1    1    2  502    0 -0.19766167517E+02 -0.28521995226E+02  0.57453102563E+03  0.57557806161E+03  0.00000000000E+00 0. -1.
         22    1    3    3    0    0  0.13821683267E+03  0.69886400394E+01 -0.40537554307E+02  0.14420827727E+03  0.00000000000E+00 0.  1.
         22    1    3    3    0    0 -0.27555878029E+02  0.84923257314E+01 -0.28407481312E+01  0.28974400084E+02  0.00000000000E+00 0.  1.
</event>
<event>
 7    1  0.5553952E-006  0.3072806E+02  0.7818608E-02  0.1652910E+00
          2   -1    0    0  502    0  0.00000000000E+00  0.00000000000E+00  0.15332705214E+03  0.15332705214E+03  0.00000000000E+00 0. -1.
          1   -1    0    0  501    0 -0.00000000000E+00 -0.00000000000E+00 -0.83059400895E+02  0.83059400895E+02  0.00000000000E+00 0. -1.
         25    2    1    2    0    0  0.22306061050E+02  0.14997697590E+02  0.31768568703E+02  0.13174326245E+03  0.12499821579E+03 0.  0.
          2    1    1    2  501    0 -0.14561726581E+02  0.15520650529E+02 -0.25562546362E+02  0.33262264661E+02  0.00000000000E+00 0. -1.
          1    1    1    2  502    0 -0.77443344696E+01 -0.30518348118E+02  0.64061628906E+02  0.71380925928E+02  0.00000000000E+00 0. -1.
         22    1    3    3    0    0  0.36448076929E+02  0.95134263173E+01  0.76086940164E+02  0.84901060392E+02  0.00000000000E+00 0. -1.
         22    1    3    3    0    0 -0.14142015879E+02  0.54842712723E+01 -0.44318371461E+02  0.46842202056E+02  0.00000000000E+00 0. -1.
</event>
<event>
 7    1  0.5553952E-006  0.4117547E+02  0.7818608E-02  0.1533093E+00
          2   -1    0    0  502    0  0.00000000000E+00  0.00000000000E+00  0.49835368644E+03  0.49835368644E+03  0.00000000000E+00 0. -1.
          1   -1    0    0  501    0 -0.00000000000E+00 -0.00000000000E+00 -0.96330148512E+03  0.96330148512E+03  0.00000000000E+00 0. -1.
         25    2    1    2    0    0  0.39016911676E+02 -0.34384271693E+02 -0.70214117064E+02  0.15251060473E+03  0.12499945914E+03 0.  0.
          2    1    1    2  501    0 -0.41155335735E+02  0.15469590360E+01 -0.85084828930E+03  0.85184444950E+03  0.00000000000E+00 0. -1.
          1    1    1    2  502    0  0.21384240588E+01  0.32837312657E+02  0.45611460769E+03  0.45730011733E+03  0.00000000000E+00 0. -1.
         22    1    3    3    0    0  0.19843586413E+02  0.47393992928E+02 -0.27548781135E+02  0.58300032842E+02  0.00000000000E+00 0. -1.
         22    1    3    3    0    0  0.19173325263E+02 -0.81778264621E+02 -0.42665335929E+02  0.94210571891E+02  0.00000000000E+00 0. -1.
</event>
<event>
 7    1  0.5553952E-006  0.8778545E+02  0.7818608E-02  0.1443664E+00
          2   -1    0    0  502    0  0.00000000000E+00  0.00000000000E+00  0.15782240079E+04  0.15782240079E+04  0.00000000000E+00 0. -1.
          1   -1    0    0  501    0 -0.00000000000E+00 -0.00000000000E+00 -0.77580840104E+03  0.77580840104E+03  0.00000000000E+00 0. -1.
         25    2    1    2    0    0 -0.34496716450E+02 -0.53716624612E+02  0.30535350978E+03  0.33606509779E+03  0.12499393910E+03 0.  0.
          2    1    1    2  501    0  0.61976482592E+02  0.62454535051E+02 -0.75774133248E+03  0.76283260306E+03  0.00000000000E+00 0. -1.
          1    1    1    2  502    0 -0.27479766142E+02 -0.87379104400E+01  0.12548034295E+04  0.12551347080E+04  0.00000000000E+00 0. -1.
         22    1    3    3    0    0  0.21497512796E+02 -0.74171305017E+02  0.13427437562E+03  0.15489717070E+03  0.00000000000E+00 0.  1.
         22    1    3    3    0    0 -0.55994229246E+02  0.20454680405E+02  0.17107913417E+03  0.18116792709E+03  0.00000000000E+00 0.  1.
</event>
<event>
 7    1  0.7859247E-006  0.9732136E+02  0.7818608E-02  0.1307958E+00
          2   -1    0    0  502    0  0.00000000000E+00  0.00000000000E+00  0.22206143681E+04  0.22206143681E+04  0.00000000000E+00 0. -1.
          1   -1    0    0  501    0 -0.00000000000E+00 -0.00000000000E+00 -0.11529600800E+04  0.11529600800E+04  0.00000000000E+00 0. -1.
         25    2    1    2    0    0 -0.72161028783E+02 -0.15421554767E+03 -0.17812766379E+03  0.27630530937E+03  0.12500204064E+03 0.  0.
          2    1    1    2  501    0  0.11394632403E+02  0.78613062965E+02 -0.92295360577E+03  0.92636559183E+03  0.00000000000E+00 0. -1.
          1    1    1    2  502    0  0.60766396379E+02  0.75602484700E+02  0.21687355577E+04  0.21709035469E+04  0.00000000000E+00 0. -1.
         22    1    3    3    0    0 -0.18516605466E+02 -0.78598799605E+02 -0.16362431932E+03  0.18246521271E+03  0.00000000000E+00 0.  1.
         22    1    3    3    0    0 -0.53644423317E+02 -0.75616748060E+02 -0.14503344469E+02  0.93840096659E+02  0.00000000000E+00 0.  1.
</event>
<event>
 7    1  0.5553952E-006  0.1100425E+03  0.7818608E-02  0.1301140E+00
          2   -1    0    0  502    0  0.00000000000E+00  0.00000000000E+00  0.10204879672E+04  0.10204879672E+04  0.00000000000E+00 0. -1.
          1   -1    0    0  501    0 -0.00000000000E+00 -0.00000000000E+00 -0.28792472813E+04  0.28792472813E+04  0.00000000000E+00 0. -1.
         25    2    1    2    0    0  0.88475859935E+02 -0.14226080251E+03  0.12489715672E+03  0.24349511236E+03  0.12499782504E+03 0.  0.
          2    1    1    2  501    0 -0.64532445940E+02  0.37773944219E+02 -0.28160149243E+04  0.28170075189E+04  0.00000000000E+00 0. -1.
          1    1    1    2  502    0 -0.23943413995E+02  0.10448685830E+03  0.83235845352E+03  0.83923261721E+03  0.00000000000E+00 0. -1.
         22    1    3    3    0    0  0.11465250782E+02  0.23199410157E+02  0.94887279942E+01  0.27562666165E+02  0.00000000000E+00 0.  1.
         22    1    3    3    0    0  0.77010609153E+02 -0.16546021267E+03  0.11540842873E+03  0.21593244620E+03  0.00000000000E+00 0.  1.
</event>
<event>
 7    1  0.5553952E-006  0.9637640E+02  0.7818608E-02  0.1328186E+00
          2   -1    0    0  502    0  0.00000000000E+00  0.00000000000E+00  0.84291167187E+03  0.84291167187E+03  0.00000000000E+00 0. -1.
          1   -1    0    0  501    0 -0.00000000000E+00 -0.00000000000E+00 -0.49284948023E+03  0.49284948023E+03  0.00000000000E+00 0. -1.
         25    2    1    2    0    0 -0.84141562840E+02 -0.15375790242E+02 -0.20682845973E+03  0.25635384028E+03  0.12499224835E+03 0.  0.
          2    1    1    2  501    0  0.70783058819E+02  0.80943834172E+02 -0.24874830110E+03  0.27099421212E+03  0.00000000000E+00 0. -1.
          1    1    1    2  502    0  0.13358504021E+02 -0.65568043929E+02  0.80563895247E+03  0.80841309969E+03  0.00000000000E+00 0. -1.
         22    1    3    3    0    0 -0.52833098713E+02  0.27122128858E+02 -0.20711079464E+02  0.62895906115E+02  0.00000000000E+00 0. -1.
         22    1    3    3    0    0 -0.31308464127E+02 -0.42497919100E+02 -0.18611738027E+03  0.19345793416E+03  0.00000000000E+00 0. -1.
</event>
<event>
 7    1  0.5553952E-006  0.1132386E+03  0.7818608E-02  0.1298883E+00
          2   -1    0    0  502    0  0.00000000000E+00  0.00000000000E+00  0.15714609275E+03  0.15714609275E+03  0.00000000000E+00 0. -1.
          1   -1    0    0  501    0 -0.00000000000E+00 -0.00000000000E+00 -0.12388379171E+04  0.12388379171E+04  0.00000000000E+00 0. -1.
         25    2    1    2    0    0  0.18134229650E+02  0.11744081627E+03 -0.52008105530E+02  0.18014445163E+03  0.12500393914E+03 0.  0.
          2    1    1    2  501    0  0.54074900455E+02 -0.10040198061E+03 -0.11045599568E+04  0.11104311553E+04  0.00000000000E+00 0. -1.
          1    1    1    2  502    0 -0.72209130105E+02 -0.17038835669E+02  0.74876237964E+02  0.10540840291E+03  0.00000000000E+00 0. -1.
         22    1    3    3    0    0  0.35736344850E+02  0.69379809163E+02 -0.87964354583E+02  0.11759409824E+03  0.00000000000E+00 0.  1.
         22    1    3    3    0    0 -0.17602115200E+02  0.48061007111E+02  0.35956249054E+02  0.62550353397E+02  0.00000000000E+00 0.  1.
</event>
<event>
 7    1  0.5553952E-006  0.1408932E+03  0.7818608E-02  0.1364200E+00
          2   -1    0    0  502    0  0.00000000000E+00  0.00000000000E+00  0.13569055032E+04  0.13569055032E+04  0.00000000000E+00 0. -1.
          1   -1    0    0  501    0 -0.00000000000E+00 -0.00000000000E+00 -0.65066296752E+03  0.65066296752E+03  0.00000000000E+00 0. -1.
         25    2    1    2    0    0 -0.69612406626E+02  0.14816686044E+03 -0.19595535698E+03  0.28429371328E+03  0.12500043116E+03 0.  0.
          2    1    1    2  501    0 -0.97611666369E+01 -0.32153054422E+02 -0.40607949446E+03  0.40746736692E+03  0.00000000000E+00 0. -1.
          1    1    1    2  502    0  0.79373573263E+02 -0.11601380602E+03  0.13082773872E+04  0.13158073906E+04  0.00000000000E+00 0. -1.
         22    1    3    3    0    0 -0.72857011264E+02  0.23298312217E+02 -0.10439804679E+03  0.12942143414E+03  0.00000000000E+00 0.  1.
         22    1    3    3    0    0  0.32446046380E+01  0.12486854822E+03 -0.91557310195E+02  0.15487227914E+03  0.00000000000E+00 0.  1.
</event>
<event>
 7    1  0.5553952E-006  0.4881433E+02  0.7818608E-02  0.1554279E+00
          2   -1    0    0  502    0  0.00000000000E+00  0.00000000000E+00  0.86332474003E+03  0.86332474003E+03  0.00000000000E+00 0. -1.
          1   -1    0    0  501    0 -0.00000000000E+00 -0.00000000000E+00 -0.64713689227E+03  0.64713689227E+03  0.00000000000E+00 0. -1.
         25    2    1    2    0    0  0.66873885633E+02 -0.26045021618E+02 -0.50150301642E+03  0.52180180248E+03  0.12498554265E+03 0.  0.
          2    1    1    2  501    0 -0.24049132543E+02  0.26805099875E+01 -0.13370017634E+03  0.13587230426E+03  0.00000000000E+00 0. -1.
          1    1    1    2  502    0 -0.42824753090E+02  0.23364511631E+02  0.85139104052E+03  0.85278752556E+03  0.00000000000E+00 0. -1.
         22    1    3    3    0    0  0.67964775749E+02  0.10635380365E+02 -0.11831294240E+03  0.13685859271E+03  0.00000000000E+00 0. -1.
         22    1    3    3    0    0 -0.10908901157E+01 -0.36680401984E+02 -0.38319007401E+03  0.38494320978E+03  0.00000000000E+00 0. -1.
</event>
<event>
 7    1  0.5553952E-006  0.8696707E+02  0.7818608E-02  0.1394922E+00
          2   -1    0    0  502    0  0.00000000000E+00  0.00000000000E+00  0.35265682997E+03  0.35265682997E+03  0.00000000000E+00 0. -1.
          1   -1    0    0  501    0 -0.00000000000E+00 -0.00000000000E+00 -0.58907214969E+03  0.58907214969E+03  0.00000000000E+00 0. -1.
         25    2    1    2    0    0 -0.10165754919E+03  0.72305182582E+02 -0.16327329925E+03  0.24050893058E+03  0.12499631476E+03 0.  0.
          2    1    1    2  501    0  0.40696877898E+02 -0.11771369301E+02 -0.38010661802E+03  0.38246024901E+03  0.00000000000E+00 0. -1.
          1    1    1    2  502    0  0.60960671289E+02 -0.60533813281E+02  0.30696459755E+03  0.31875980007E+03  0.00000000000E+00 0. -1.
         22    1    3    3    0    0  0.19508533881E+02 -0.91532092514E+01 -0.54006286480E+02  0.58146737768E+02  0.00000000000E+00 0. -1.
         22    1    3    3    0    0 -0.12116608307E+03  0.81458391834E+02 -0.10926701277E+03  0.18236219281E+03  0.00000000000E+00 0. -1.
</event>
<event>
 7    1  0.5553952E-006  0.6838283E+02  0.7818608E-02  0.1374851E+00
          2   -1    0    0  502    0  0.00000000000E+00  0.00000000000E+00  0.29864075054E+03  0.29864075054E+03  0.00000000000E+00 0. -1.
          1   -1    0    0  501    0 -0.00000000000E+00 -0.00000000000E+00 -0.50848206631E+03  0.50848206631E+03  0.00000000000E+00 0. -1.
         25    2    1    2    0    0  0.72027593795E+01 -0.99325094846E+02 -0.30583799161E+03  0.34507841264E+03  0.12499951821E+03 0.  0.
          2    1    1    2  501    0 -0.46254797713E+02  0.43338893205E+02 -0.17314433812E+03  0.18438201593E+03  0.00000000000E+00 0. -1.
          1    1    1    2  502    0  0.39052038334E+02  0.55986201641E+02  0.26914101395E+03  0.27766238827E+03  0.00000000000E+00 0. -1.
         22    1    3    3    0    0 -0.31333013569E+02  0.68641008229E+00 -0.14272167635E+02  0.34437242444E+02  0.00000000000E+00 0.  1.
         22    1    3    3    0    0  0.38535772948E+02 -0.10001150493E+03 -0.29156582397E+03  0.31064117020E+03  0.00000000000E+00 0.  1.
</event>
<event>
 7    1  0.5553952E-006  0.1149179E+03  0.7818608E-02  0.1327037E+00
          2   -1    0    0  502    0  0.00000000000E+00  0.00000000000E+00  0.18522689106E+04  0.18522689106E+04  0.00000000000E+00 0. -1.
          1   -1    0    0  501    0 -0.00000000000E+00 -0.00000000000E+00 -0.28779764465E+03  0.28779764465E+03  0.00000000000E+00 0. -1.
         25    2    1    2    0    0 -0.13274888191E+03  0.20812883072E+02  0.44842682547E+03  0.48452851630E+03  0.12500329420E+03 0.  0.
          2    1    1    2  501    0  0.95508097256E+02 -0.63555576580E+02 -0.25693770228E+03  0.28138601744E+03  0.00000000000E+00 0. -1.
          1    1    1    2  502    0  0.37240784659E+02  0.42742693508E+02  0.13729821428E+04  0.13741520215E+04  0.00000000000E+00 0. -1.
         22    1    3    3    0    0 -0.34140178638E+02 -0.43059945602E+02  0.23038506127E+03  0.23684802547E+03  0.00000000000E+00 0. -1.
         22    1    3    3    0    0 -0.98608703276E+02  0.63872828674E+02  0.21804176420E+03  0.24768049083E+03  0.00000000000E+00 0. -1.
</event>
<event>
 7    1  0.5553952E-006  0.7794698E+02  0.7818608E-02  0.1387592E+00
          2   -1    0    0  502    0  0.00000000000E+00  0.00000000000E+00  0.65305659850E+03  0.65305659850E+03  0.00000000000E+00 0. -1.
          1   -1    0    0  501    0 -0.00000000000E+00 -0.00000000000E+00 -0.81596564103E+03  0.81596564103E+03  0.00000000000E+00 0. -1.
         25    2    1    2    0    0  0.32450777678E+02 -0.88099996340E+02 -0.19870841352E+03  0.25283257440E+03  0.12499845898E+03 0.  0.
          2    1    1    2  501    0  0.29355930640E+02  0.40634826231E+02 -0.58669679219E+03  0.58883451473E+03  0.00000000000E+00 0. -1.
          1    1    1    2  502    0 -0.61806708318E+02  0.47465170109E+02  0.62249616318E+03  0.62735515041E+03  0.00000000000E+00 0. -1.
         22    1    3    3    0    0  0.58302718750E+02  0.58539724384E+00 -0.11134840247E+03  0.12569016046E+03  0.00000000000E+00 0. -1.
         22    1    3    3    0    0 -0.25851941072E+02 -0.88685393583E+02 -0.87360011045E+02  0.12714241394E+03  0.00000000000E+00 0. -1.
</event>
<event>
 7    1  0.5553952E-006  0.6015338E+02  0.7818608E-02  0.1438216E+00
          2   -1    0    0  502    0  0.00000000000E+00  0.00000000000E+00  0.75492109722E+03  0.75492109722E+03  0.00000000000E+00 0. -1.
          1   -1    0    0  501    0 -0.00000000000E+00 -0.00000000000E+00 -0.40237165065E+03  0.40237165065E+03  0.00000000000E+00 0. -1.
         25    2    1    2    0    0  0.50773036872E+02 -0.41470199324E+02  0.18143094680E+03  0.22985928164E+03  0.12498168744E+03 0.  0.
          2    1    1    2  501    0 -0.10739566540E+02  0.59307366641E+02 -0.37487220372E+03  0.37968654329E+03  0.00000000000E+00 0. -1.
          1    1    1    2  502    0 -0.40033470332E+02 -0.17837167318E+02  0.54599070350E+03  0.54774692294E+03  0.00000000000E+00 0. -1.
         22    1    3    3    0    0  0.58796685264E+02  0.29689041328E+02  0.11308157683E+03  0.13086608572E+03  0.00000000000E+00 0.  1.
         22    1    3    3    0    0 -0.80236483923E+01 -0.71159240651E+02  0.68349369967E+02  0.98993195920E+02  0.00000000000E+00 0.  1.
</event>
<event>
 7    1  0.5553952E-006  0.2039180E+03  0.7818608E-02  0.1261759E+00
          2   -1    0    0  502    0  0.00000000000E+00  0.00000000000E+00  0.12704465070E+04  0.12704465070E+04  0.00000000000E+00 0. -1.
          1   -1    0    0  501    0 -0.00000000000E+00 -0.00000000000E+00 -0.46702369400E+03  0.46702369400E+03  0.00000000000E+00 0. -1.
         25    2    1    2    0    0 -0.15369626691E+03  0.91664888941E+02  0.84824616327E+03  0.87588343510E+03  0.12500097623E+03 0.  0.
          2    1    1    2  501    0  0.14063103988E+03 -0.14884047724E+03 -0.42772770708E+03  0.47421679477E+03  0.00000000000E+00 0. -1.
          1    1    1    2  502    0  0.13065227037E+02  0.57175588296E+02  0.38290435677E+03  0.38736997107E+03  0.00000000000E+00 0. -1.
         22    1    3    3    0    0 -0.15393864178E+03  0.11665735534E+03  0.74033419506E+03  0.76511487004E+03  0.00000000000E+00 0. -1.
         22    1    3    3    0    0  0.24237486749E+00 -0.24992466396E+02  0.10791196821E+03  0.11076856506E+03  0.00000000000E+00 0. -1.
</event>
<event>
 7    1  0.5553952E-006  0.5232862E+02  0.7818608E-02  0.1571578E+00
          2   -1    0    0  502    0  0.00000000000E+00  0.00000000000E+00  0.24863603379E+04  0.24863603379E+04  0.00000000000E+00 0. -1.
          1   -1    0    0  501    0 -0.00000000000E+00 -0.00000000000E+00 -0.33746967822E+02  0.33746967822E+02  0.00000000000E+00 0. -1.
         25    2    1    2    0    0 -0.63286152574E+01 -0.66463093470E+02  0.13413375308E+04  0.13488026477E+04  0.12499926672E+03 0.  0.
          2    1    1    2  501    0 -0.73936831806E+01  0.51588857585E+02 -0.72305701168E+01  0.52615187182E+02  0.00000000000E+00 0. -1.
          1    1    1    2  502    0  0.13722298438E+02  0.14874235885E+02  0.11185064094E+04  0.11186894708E+04  0.00000000000E+00 0. -1.
         22    1    3    3    0    0  0.14816458144E+02 -0.77740231308E+02  0.43449270324E+03  0.44164123467E+03  0.00000000000E+00 0. -1.
         22    1    3    3    0    0 -0.21145073402E+02  0.11277137838E+02  0.90684482756E+03  0.90716141300E+03  0.00000000000E+00 0. -1.
</event>
<event>
 7    1  0.5553952E-006  0.9162766E+02  0.7818608E-02  0.1442065E+00
          2   -1    0    0  502    0  0.00000000000E+00  0.00000000000E+00  0.99015245806E+03  0.99015245806E+03  0.00000000000E+00 0. -1.
          1   -1    0    0  501    0 -0.00000000000E+00 -0.00000000000E+00 -0.26587901282E+04  0.26587901282E+04  0.00000000000E+00 0. -1.
         25    2    1    2    0    0 -0.68521280775E+02 -0.56498866760E+02  0.57569026346E+03  0.59576165865E+03  0.12500154641E+03 0.  0.
          2    1    1    2  501    0  0.49582978733E+02  0.77064265918E+02 -0.26474776092E+04  0.26490630540E+04  0.00000000000E+00 0. -1.
          1    1    1    2  502    0  0.18938302043E+02 -0.20565399158E+02  0.40314967554E+03  0.40411787367E+03  0.00000000000E+00 0. -1.
         22    1    3    3    0    0 -0.55750724288E+02 -0.17961842870E+02  0.53529721553E+03  0.53849222837E+03  0.00000000000E+00 0.  1.
         22    1    3    3    0    0 -0.12770556487E+02 -0.38537023890E+02  0.40393047934E+02  0.57269430280E+02  0.00000000000E+00 0.  1.
</event>
<event>
 7    1  0.5553952E-006  0.4942928E+02  0.7818608E-02  0.1506044E+00
          2   -1    0    0  502    0  0.00000000000E+00  0.00000000000E+00  0.41885113872E+03  0.41885113872E+03  0.00000000000E+00 0. -1.
          1   -1    0    0  501    0 -0.00000000000E+00 -0.00000000000E+00 -0.14023221187E+03  0.14023221187E+03  0.00000000000E+00 0. -1.
         25    2    1    2    0    0 -0.21400975697E+01  0.79134638762E+02  0.27663610785E+03  0.31371892611E+03  0.12500062944E+03 0.  0.
          2    1    1    2  501    0  0.11380947077E+02 -0.47610689649E+02 -0.11440045385E+03  0.12443378788E+03  0.00000000000E+00 0. -1.
          1    1    1    2  502    0 -0.92408495069E+01 -0.31523949114E+02  0.11638327285E+03  0.12093063660E+03  0.00000000000E+00 0. -1.
         22    1    3    3    0    0 -0.12285591556E+02  0.25488636632E+02 -0.33196925235E+01  0.28489063089E+02  0.00000000000E+00 0.  1.
         22    1    3    3    0    0  0.10145493987E+02  0.53646002130E+02  0.27995580038E+03  0.28522986302E+03  0.00000000000E+00 0.  1.
</event>
<event>
 7    1  0.5553952E-006  0.6417885E+02  0.7818608E-02  0.1496689E+00
          2   -1    0    0  502    0  0.00000000000E+00  0.00000000000E+00  0.20143763949E+04  0.20143763949E+04  0.00000000000E+00 0. -1.
          1   -1    0    0  501    0 -0.00000000000E+00 -0.00000000000E+00 -0.48390479842E+03  0.48390479842E+03  0.00000000000E+00 0. -1.
         25    2    1    2    0    0  0.70896770358E+01 -0.63886207730E+02 -0.32354096676E+02  0.14422914659E+03  0.12499419225E+03 0.  0.
          2    1    1    2  501    0  0.25569581979E+02  0.86002633328E+01 -0.39462620855E+03  0.39554723173E+03  0.00000000000E+00 0. -1.
          1    1    1    2  502    0 -0.32659259015E+02  0.55285944397E+02  0.19574519017E+04  0.19585048150E+04  0.00000000000E+00 0. -1.
         22    1    3    3    0    0 -0.19658951151E+02 -0.87495546892E+02 -0.51834486767E+02  0.10357972343E+03  0.00000000000E+00 0. -1.
         22    1    3    3    0    0  0.26748628187E+02  0.23609339162E+02  0.19480390091E+02  0.40649423165E+02  0.00000000000E+00 0. -1.
</event>
<event>
 7    1  0.5553952E-006  0.5267980E+02  0.7818608E-02  0.1484714E+00
          2   -1    0    0  502    0  0.00000000000E+00  0.00000000000E+00  0.23282996766E+04  0.23282996766E+04  0.00000000000E+00 0. -1.
          1   -1    0    0  501    0 -0.00000000000E+00 -0.00000000000E+00 -0.16863675829E+03  0.16863675829E+03  0.00000000000E+00 0. -1.
         25    2    1    2    0    0 -0.25245539306E+02 -0.54977375220E+02  0.26898120097E+03  0.30271287028E+03  0.12499738524E+03 0.  0.
          2    1    1    2  501    0  0.45954783144E+02  0.25870346537E+02 -0.14702853638E+03  0.15620021586E+03  0.00000000000E+00 0. -1.
          1    1    1    2  502    0 -0.20709243838E+02  0.29107028684E+02  0.20377102537E+04  0.20380233488E+04  0.00000000000E+00 0. -1.
         22    1    3    3    0    0 -0.66270480257E+02 -0.66391576915E+02  0.20967252204E+03  0.22970020579E+03  0.00000000000E+00 0. -1.
         22    1    3    3    0    0  0.41024940952E+02  0.11414201695E+02  0.59308678924E+02  0.73012664491E+02  0.00000000000E+00 0. -1.
</event>
<event>
 7    1  0.5553952E-006  0.5996153E+02  0.7818608E-02  0.1408004E+00
          2   -1    0    0  502    0  0.00000000000E+00  0.00000000000E+00  0.36608930590E+03  0.36608930590E+03  0.00000000000E+00 0. -1.
          1   -1    0    0  501    0 -0.00000000000E+00 -0.00000000000E+00 -0.20837748541E+03  0.20837748541E+03  0.00000000000E+00 0. -1.
         25    2    1    2    0    0 -0.65548571200E+02 -0.74269110600E+01  0.18624295567E+01  0.14135341618E+03  0.12500218169E+03 0.  0.
          2    1    1    2  501    0  0.33434795067E+02 -0.44187461445E+02 -0.12976550219E+03  0.14110103766E+03  0.00000000000E+00 0. -1.
          1    1    1    2  502    0  0.32113776133E+02  0.51614372505E+02  0.28561489312E+03  0.29201233748E+03  0.00000000000E+00 0. -1.
         22    1    3    3    0    0 -0.54537611878E+02 -0.59513240493E+02 -0.21007440834E+02  0.83411566786E+02  0.00000000000E+00 0. -1.
         22    1    3    3    0    0 -0.11010959323E+02  0.52086329433E+02  0.22869870391E+02  0.57941849390E+02  0.00000000000E+00 0. -1.
</event>
<event>
 7    1  0.5553952E-006  0.5848294E+02  0.7818608E-02  0.1471627E+00
          2   -1    0    0  502    0  0.00000000000E+00  0.00000000000E+00  0.35306892172E+03  0.35306892172E+03  0.00000000000E+00 0. -1.
          1   -1    0    0  501    0 -0.00000000000E+00 -0.00000000000E+00 -0.14897453031E+03  0.14897453031E+03  0.00000000000E+00 0. -1.
         25    2    1    2    0    0  0.22262288071E+02 -0.69362156061E+02  0.15451946336E+03  0.21168079023E+03  0.12500309688E+03 0.  0.
          2    1    1    2  501    0  0.10888636104E+02  0.57226064144E+02 -0.11131992625E+03  0.12564040271E+03  0.00000000000E+00 0. -1.
          1    1    1    2  502    0 -0.33150924175E+02  0.12136091917E+02  0.16089485429E+03  0.16472225908E+03  0.00000000000E+00 0. -1.
         22    1    3    3    0    0  0.12115701713E+02 -0.78242798719E+02  0.27301475930E+02  0.83750202193E+02  0.00000000000E+00 0. -1.
         22    1    3    3    0    0  0.10146586357E+02  0.88806426579E+01  0.12721798743E+03  0.12793058804E+03  0.00000000000E+00 0. -1.
</event>
<event>
 7    1  0.5553952E-006  0.5757125E+02  0.7818608E-02  0.1414768E+00
          2   -1    0    0  502    0  0.00000000000E+00  0.00000000000E+00  0.10781055342E+04  0.10781055342E+04  0.00000000000E+00 0. -1.
          1   -1    0    0  501    0 -0.00000000000E+00 -0.00000000000E+00 -0.61526209141E+03  0.61526209141E+03  0.00000000000E+00 0. -1.
         25    2    1    2    0    0 -0.96538525873E+02  0.16725473348E+02  0.22449026701E+02  0.16039927955E+03  0.12499816656E+03 0.  0.
          2    1    1    2  501    0  0.44984940447E+02 -0.35161030944E+02 -0.54403234287E+03  0.54702023094E+03  0.00000000000E+00 0. -1.
          1    1    1    2  502    0  0.51553585426E+02  0.18435557595E+02  0.98442675895E+03  0.98594811511E+03  0.00000000000E+00 0. -1.
         22    1    3    3    0    0 -0.12680888359E+03  0.11642526745E+02  0.11704930172E+02  0.12787903181E+03  0.00000000000E+00 0.  1.
         22    1    3    3    0    0  0.30270357719E+02  0.50829466036E+01  0.10744096529E+02  0.32520247737E+02  0.00000000000E+00 0.  1.
</event>
<event>
 7    1  0.5553952E-006  0.7314035E+02  0.7818608E-02  0.1351935E+00
          2   -1    0    0  502    0  0.00000000000E+00  0.00000000000E+00  0.30772066161E+03  0.30772066161E+03  0.00000000000E+00 0. -1.
          1   -1    0    0  501    0 -0.00000000000E+00 -0.00000000000E+00 -0.46748339393E+03  0.46748339393E+03  0.00000000000E+00 0. -1.
         25    2    1    2    0    0 -0.16371056961E+02  0.26169499161E+02  0.97903747085E+01  0.12912499301E+03  0.12499823275E+03 0.  0.
          2    1    1    2  501    0 -0.50789004321E+02 -0.55135621504E+02 -0.39862587483E+03  0.40561317508E+03  0.00000000000E+00 0. -1.
          1    1    1    2  502    0  0.67160061282E+02  0.28966122343E+02  0.22907276780E+03  0.24046588744E+03  0.00000000000E+00 0. -1.
         22    1    3    3    0    0 -0.26155553325E+02  0.39018655625E+02  0.60104019837E+02  0.76282774314E+02  0.00000000000E+00 0. -1.
         22    1    3    3    0    0  0.97844963645E+01 -0.12849156464E+02 -0.50313645128E+02  0.52842218699E+02  0.00000000000E+00 0. -1.
</event>
<event>
 7    1  0.5553952E-006  0.1238142E+03  0.7818608E-02  0.1440684E+00
          2   -1    0    0  502    0  0.00000000000E+00  0.00000000000E+00  0.87638997389E+03  0.87638997389E+03  0.00000000000E+00 0. -1.
          1   -1    0    0  501    0 -0.00000000000E+00 -0.00000000000E+00 -0.41371566605E+03  0.41371566605E+03  0.00000000000E+00 0. -1.
         25    2    1    2    0    0  0.13607787630E+03 -0.23609111176E+02  0.23985089292E+03  0.30369527563E+03  0.12501116373E+03 0.  0.
          2    1    1    2  501    0 -0.11834520726E+03  0.34677579391E+02 -0.37164663422E+03  0.39157290933E+03  0.00000000000E+00 0. -1.
          1    1    1    2  502    0 -0.17732669040E+02 -0.11068468215E+02  0.59447004914E+03  0.59483745499E+03  0.00000000000E+00 0. -1.
         22    1    3    3    0    0  0.15883324078E+03 -0.24087926186E+02  0.18945265312E+03  0.24839592255E+03  0.00000000000E+00 0.  1.
         22    1    3    3    0    0 -0.22755364477E+02  0.47881501011E+00  0.50398239803E+02  0.55299353084E+02  0.00000000000E+00 0.  1.
</event>
<event>
 7    1  0.5553952E-006  0.6972619E+02  0.7818608E-02  0.1407062E+00
          2   -1    0    0  502    0  0.00000000000E+00  0.00000000000E+00  0.17967612652E+04  0.17967612652E+04  0.00000000000E+00 0. -1.
          1   -1    0    0  501    0 -0.00000000000E+00 -0.00000000000E+00 -0.43185843553E+02  0.43185843553E+02  0.00000000000E+00 0. -1.
         25    2    1    2    0    0  0.10321506060E+03 -0.43169789800E+02  0.25633220633E+03  0.30634735063E+03  0.12500207899E+03 0.  0.
          2    1    1    2  501    0 -0.47925158067E+02  0.27560020201E+01  0.15746538476E+02  0.50520983728E+02  0.00000000000E+00 0. -1.
          1    1    1    2  502    0 -0.55289902529E+02  0.40413787780E+02  0.14814966768E+04  0.14830787744E+04  0.00000000000E+00 0. -1.
         22    1    3    3    0    0  0.11573018981E+03  0.29372506849E+01  0.20999690773E+03  0.23979325581E+03  0.00000000000E+00 0. -1.
         22    1    3    3    0    0 -0.12515129213E+02 -0.46107040485E+02  0.46335298604E+02  0.66554094827E+02  0.00000000000E+00 0. -1.
</event>
<event>
 7    1  0.5553952E-006  0.6650588E+02  0.7818608E-02  0.1450397E+00
          2   -1    0    0  502    0  0.00000000000E+00  0.00000000000E+00  0.83872153504E+03  0.83872153504E+03  0.00000000000E+00 0. -1.
          1   -1    0    0  501    0 -0.00000000000E+00 -0.00000000000E+00 -0.91689547509E+03  0.91689547509E+03  0.00000000000E+00 0. -1.
         25    2    1    2    0    0 -0.61814721218E+02  0.55360458793E+02  0.26784615320E+02  0.15240820205E+03  0.12500001711E+03 0.  0.
          2    1    1    2  501    0  0.26052662396E+02 -0.61052757964E+02 -0.85235490566E+03  0.85493570850E+03  0.00000000000E+00 0. -1.
          1    1    1    2  502    0  0.35762058822E+02  0.56922991715E+01  0.74739635029E+03  0.74827309957E+03  0.00000000000E+00 0. -1.
         22    1    3    3    0    0 -0.95530815475E+02  0.53676677077E+02  0.39289121487E+02  0.11640857973E+03  0.00000000000E+00 0. -1.
         22    1    3    3    0    0  0.33716094256E+02  0.16837817160E+01 -0.12504506167E+02  0.35999622321E+02  0.00000000000E+00 0. -1.
</event>
<event>
 7    1  0.5553952E-006  0.7043975E+02  0.7818608E-02  0.1479789E+00
          2   -1    0    0  502    0  0.00000000000E+00  0.00000000000E+00  0.13864648719E+04  0.13864648719E+04  0.00000000000E+00 0. -1.
          1   -1    0    0  501    0 -0.00000000000E+00 -0.00000000000E+00 -0.10720489015E+03  0.10720489015E+03  0.00000000000E+00 0. -1.
         25    2    1    2    0    0  0.59943989173E+02 -0.44168167743E+02  0.26130872948E+03  0.29908284146E+03  0.12499674026E+03 0.  0.
          2    1    1    2  501    0 -0.68214027546E+02  0.17774970809E+02 -0.74048814630E+02  0.10223663771E+03  0.00000000000E+00 0. -1.
          1    1    1    2  502    0  0.82700383724E+01  0.26393196934E+02  0.10920000669E+04  0.10923502828E+04  0.00000000000E+00 0. -1.
         22    1    3    3    0    0  0.62506451888E+02 -0.47264108322E+02  0.62505948028E+02  0.10023944334E+03  0.00000000000E+00 0.  1.
         22    1    3    3    0    0 -0.25624627151E+01  0.30959405786E+01  0.19880278145E+03  0.19884339812E+03  0.00000000000E+00 0.  1.
</event>
<event>
 7    1  0.5553952E-006  0.1398922E+03  0.7818608E-02  0.1268157E+00
          2   -1    0    0  502    0  0.00000000000E+00  0.00000000000E+00  0.79413805600E+03  0.79413805600E+03  0.00000000000E+00 0. -1.
          1   -1    0    0  501    0 -0.00000000000E+00 -0.00000000000E+00 -0.16246722029E+04  0.16246722029E+04  0.00000000000E+00 0. -1.
         25    2    1    2    0    0 -0.55236537394E+02  0.40865638961E+02 -0.11717680403E+03  0.18459843558E+03  0.12500041403E+03 0.  0.
          2    1    1    2  501    0 -0.29153598361E+02  0.74845419816E+02 -0.14659321950E+04  0.14681311146E+04  0.00000000000E+00 0. -1.
          1    1    1    2  502    0  0.84390135755E+02 -0.11571105878E+03  0.75257485218E+03  0.76608070872E+03  0.00000000000E+00 0. -1.
         22    1    3    3    0    0 -0.37250684612E+02  0.40069807732E+02 -0.14300594153E+03  0.15311401735E+03  0.00000000000E+00 0.  1.
         22    1    3    3    0    0 -0.17985852783E+02  0.79583122968E+00  0.25829137501E+02  0.31484418237E+02  0.00000000000E+00 0.  1.
</event>
<event>
 7    1  0.5553952E-006  0.9358613E+02  0.7818608E-02  0.1319090E+00
          2   -1    0    0  502    0  0.00000000000E+00  0.00000000000E+00  0.10562761292E+04  0.10562761292E+04  0.00000000000E+00 0. -1.
          1   -1    0    0  501    0 -0.00000000000E+00 -0.00000000000E+00 -0.10736520893E+04  0.10736520893E+04  0.00000000000E+00 0. -1.
         25    2    1    2    0    0  0.10101622179E+02  0.21574174314E+02  0.10921290047E+03  0.16769120131E+03  0.12500157438E+03 0.  0.
          2    1    1    2  501    0 -0.76454037267E+02 -0.55908290663E+02 -0.10407385617E+04  0.10450395737E+04  0.00000000000E+00 0. -1.
          1    1    1    2  502    0  0.66352415088E+02  0.34334116349E+02  0.91414970106E+03  0.91719744356E+03  0.00000000000E+00 0. -1.
         22    1    3    3    0    0 -0.38067617345E+02  0.48859866542E+02  0.89670469122E+02  0.10898267331E+03  0.00000000000E+00 0.  1.
         22    1    3    3    0    0  0.48169239523E+02 -0.27285692229E+02  0.19542431352E+02  0.58708527999E+02  0.00000000000E+00 0.  1.
</event>
<event>
 7    1  0.5553952E-006  0.9323618E+02  0.7818608E-02  0.1387648E+00
          2   -1    0    0  502    0  0.00000000000E+00  0.00000000000E+00  0.38502092072E+03  0.38502092072E+03  0.00000000000E+00 0. -1.
          1   -1    0    0  501    0 -0.00000000000E+00 -0.00000000000E+00 -0.15249672834E+03  0.15249672834E+03  0.00000000000E+00 0. -1.
         25    2    1    2    0    0  0.65057565375E+02 -0.10125039949E+03  0.14936771074E+03  0.22894175727E+03  0.12497793807E+03 0.  0.
          2    1    1    2  501    0 -0.25553472522E+02  0.87313982694E+02 -0.91461478683E+02  0.12900354109E+03  0.00000000000E+00 0. -1.
          1    1    1    2  502    0 -0.39504092853E+02  0.13936416791E+02  0.17461796032E+03  0.17957235069E+03  0.00000000000E+00 0. -1.
         22    1    3    3    0    0 -0.23407005778E+01  0.18515127128E+02  0.65131006516E+02  0.67752024483E+02  0.00000000000E+00 0. -1.
         22    1    3    3    0    0  0.67398265953E+02 -0.11976552661E+03  0.84236704219E+02  0.16118973279E+03  0.00000000000E+00 0. -1.
</event>
<event>
 7    1  0.5553952E-006  0.5714273E+02  0.7818608E-02  0.1465456E+00
          2   -1    0    0  502    0  0.00000000000E+00  0.00000000000E+00  0.59481549185E+02  0.59481549185E+02  0.00000000000E+00 0. -1.
          1   -1    0    0  501    0 -0.00000000000E+00 -0.00000000000E+00 -0.61470492681E+03  0.61470492681E+03  0.00000000000E+00 0. -1.
         25    2    1    2    0    0 -0.71449085491E+01 -0.24182635576E+02 -0.32312929123E+03  0.34737594590E+03  0.12498663670E+03 0.  0.
          2    1    1    2  501    0 -0.31984643399E+02 -0.20082403092E+02 -0.25910874475E+03  0.26184663820E+03  0.00000000000E+00 0. -1.
          1    1    1    2  502    0  0.39129551948E+02  0.44265038668E+02  0.27014658364E+02  0.64963891898E+02  0.00000000000E+00 0. -1.
         22    1    3    3    0    0  0.15498132865E+02 -0.71945650974E+02 -0.16567152453E+03  0.18128271527E+03  0.00000000000E+00 0.  1.
         22    1    3    3    0    0 -0.22643041415E+02  0.47763015398E+02 -0.15745776670E+03  0.16609323063E+03  0.00000000000E+00 0.  1.
</event>
<event>
 7    1  0.5553952E-006  0.6450967E+02  0.7818608E-02  0.1413092E+00
          2   -1    0    0  502    0  0.00000000000E+00  0.00000000000E+00  0.44139835562E+02  0.44139835562E+02  0.00000000000E+00 0. -1.
          1   -1    0    0  501    0 -0.00000000000E+00 -0.00000000000E+00 -0.14393253868E+04  0.14393253868E+04  0.00000000000E+00 0. -1.
         25    2    1    2    0    0 -0.37937015293E+01  0.19575641770E+02 -0.80213919584E+03  0.81206534962E+03  0.12500097852E+03 0.  0.
          2    1    1    2  501    0 -0.60505849678E+02 -0.24778055512E+02 -0.60264376451E+03  0.60618018508E+03  0.00000000000E+00 0. -1.
          1    1    1    2  502    0  0.64299551207E+02  0.52024137420E+01  0.95974091300E+01  0.65219687643E+02  0.00000000000E+00 0. -1.
         22    1    3    3    0    0 -0.44230948386E+02 -0.36488421306E+01 -0.67808986949E+03  0.67954069926E+03  0.00000000000E+00 0.  1.
         22    1    3    3    0    0  0.40437246857E+02  0.23224483901E+02 -0.12404932635E+03  0.13252465036E+03  0.00000000000E+00 0.  1.
</event>
<event>
 7    1  0.5553952E-006  0.7958265E+02  0.7818608E-02  0.1333249E+00
          2   -1    0    0  502    0  0.00000000000E+00  0.00000000000E+00  0.12017935207E+03  0.12017935207E+03  0.00000000000E+00 0. -1.
          1   -1    0    0  501    0 -0.00000000000E+00 -0.00000000000E+00 -0.81447393835E+03  0.81447393835E+03  0.00000000000E+00 0. -1.
         25    2    1    2    0    0  0.27334477927E+02  0.22010691657E+02 -0.15020763649E+03  0.19854220933E+03  0.12500012238E+03 0.  0.
          2    1    1    2  501    0  0.16487810913E+02 -0.85942557848E+02 -0.62087116518E+03  0.62700795442E+03  0.00000000000E+00 0. -1.
          1    1    1    2  502    0 -0.43822288840E+02  0.63931866191E+02  0.76784215392E+02  0.10910312666E+03  0.00000000000E+00 0. -1.
         22    1    3    3    0    0 -0.20175113025E+02 -0.43410738202E+02 -0.68720955504E+02  0.83750206580E+02  0.00000000000E+00 0.  1.
         22    1    3    3    0    0  0.47509590953E+02  0.65421429859E+02 -0.81486680989E+02  0.11479200275E+03  0.00000000000E+00 0.  1.
</event>
<event>
 7    1  0.5553952E-006  0.4967085E+02  0.7818608E-02  0.1460406E+00
          2   -1    0    0  502    0  0.00000000000E+00  0.00000000000E+00  0.14171860020E+03  0.14171860020E+03  0.00000000000E+00 0. -1.
          1   -1    0    0  501    0 -0.00000000000E+00 -0.00000000000E+00 -0.16598778880E+03  0.16598778880E+03  0.00000000000E+00 0. -1.
         25    2    1    2    0    0 -0.42890632744E+02  0.21627373284E+02 -0.11110162237E+03  0.17399839614E+03  0.12499808683E+03 0.  0.
          2    1    1    2  501    0  0.34804113900E+02  0.28626413048E+02  0.19010002740E+02  0.48909897490E+02  0.00000000000E+00 0. -1.
          1    1    1    2  502    0  0.80865188447E+01 -0.50253786332E+02  0.67822431031E+02  0.84798095372E+02  0.00000000000E+00 0. -1.
         22    1    3    3    0    0 -0.20659676585E+01 -0.42520175658E+02 -0.82359241236E+02  0.92710723098E+02  0.00000000000E+00 0.  1.
         22    1    3    3    0    0 -0.40824665086E+02  0.64147548942E+02 -0.28742381138E+02  0.81287673039E+02  0.00000000000E+00 0.  1.
</event>
<event>
 7    1  0.5553952E-006  0.1352148E+03  0.7818608E-02  0.1254329E+00
          2   -1    0    0  502    0  0.00000000000E+00  0.00000000000E+00  0.24622706006E+04  0.24622706006E+04  0.00000000000E+00 0. -1.
          1   -1    0    0  501    0 -0.00000000000E+00 -0.00000000000E+00 -0.23002973184E+03  0.23002973184E+03  0.00000000000E+00 0. -1.
         25    2    1    2    0    0 -0.91446681876E+02  0.25419032802E+02 -0.51078674344E+02  0.16505314472E+03  0.12499954702E+03 0.  0.
          2    1    1    2  501    0  0.18648944043E+03 -0.20465074497E+02 -0.48267504844E+02  0.19371856568E+03  0.00000000000E+00 0. -1.
          1    1    1    2  502    0 -0.95042758556E+02 -0.49539583052E+01  0.23315870479E+04  0.23335286220E+04  0.00000000000E+00 0. -1.
         22    1    3    3    0    0 -0.47200013844E+02 -0.15550111309E+02 -0.83063296093E+02  0.96794413199E+02  0.00000000000E+00 0. -1.
         22    1    3    3    0    0 -0.44246668032E+02  0.40969144111E+02  0.31984621749E+02  0.68258731526E+02  0.00000000000E+00 0. -1.
</event>
<event>
 7    1  0.5553952E-006  0.1128727E+03  0.7818608E-02  0.1418134E+00
          2   -1    0    0  502    0  0.00000000000E+00  0.00000000000E+00  0.30549246524E+04  0.30549246524E+04  0.00000000000E+00 0. -1.
          1   -1    0    0  501    0 -0.00000000000E+00 -0.00000000000E+00 -0.12789820455E+02  0.12789820455E+02  0.00000000000E+00 0. -1.
         25    2    1    2    0    0  0.85678999579E+02  0.49769204234E+02  0.12101701143E+04  0.12206366844E+04  0.12499738026E+03 0.  0.
          2    1    1    2  501    0  0.46554250346E+01  0.26807344259E+02  0.27340639421E+02  0.38572234216E+02  0.00000000000E+00 0. -1.
          1    1    1    2  502    0 -0.90334424613E+02 -0.76576548493E+02  0.18046240783E+04  0.18085055543E+04  0.00000000000E+00 0. -1.
         22    1    3    3    0    0 -0.11138749962E+02 -0.29933624443E+02  0.33650428582E+03  0.33801660906E+03  0.00000000000E+00 0. -1.
         22    1    3    3    0    0  0.96817749541E+02  0.79702828677E+02  0.87366582846E+03  0.88262007532E+03  0.00000000000E+00 0. -1.
</event>
<event>
 7    1  0.5553952E-006  0.2034808E+03  0.7818608E-02  0.1153454E+00
          2   -1    0    0  502    0  0.00000000000E+00  0.00000000000E+00  0.10494562424E+04  0.10494562424E+04  0.00000000000E+00 0. -1.
          1   -1    0    0  501    0 -0.00000000000E+00 -0.00000000000E+00 -0.22132745078E+04  0.22132745078E+04  0.00000000000E+00 0. -1.
         25    2    1    2    0    0 -0.27534882227E+03  0.15502114240E+03 -0.55024735261E+03  0.64671844532E+03  0.12499627974E+03 0.  0.
          2    1    1    2  501    0  0.19460721275E+03  0.14909489211E+02 -0.15999704726E+04  0.16118311864E+04  0.00000000000E+00 0. -1.
          1    1    1    2  502    0  0.80741609521E+02 -0.16993063161E+03  0.98639955984E+03  0.10041811185E+04  0.00000000000E+00 0. -1.
         22    1    3    3    0    0 -0.27460406947E+02 -0.21813620898E+02 -0.49672128874E+02  0.60804838568E+02  0.00000000000E+00 0. -1.
         22    1    3    3    0    0 -0.24788841532E+03  0.17683476329E+03 -0.50057522374E+03  0.58591360675E+03  0.00000000000E+00 0. -1.
</event>
<event>
 7    1  0.5553952E-006  0.8875267E+02  0.7818608E-02  0.1354427E+00
          2   -1    0    0  502    0  0.00000000000E+00  0.00000000000E+00  0.24142347399E+03  0.24142347399E+03  0.00000000000E+00 0. -1.
          1   -1    0    0  501    0 -0.00000000000E+00 -0.00000000000E+00 -0.35379646403E+03  0.35379646403E+03  0.00000000000E+00 0. -1.
         25    2    1    2    0    0 -0.40254508358E+02 -0.13495698684E+03 -0.35830007700E+02  0.19168568750E+03  0.12500319836E+03 0.  0.
          2    1    1    2  501    0  0.90822632406E+01  0.57196605014E+02 -0.22540054582E+03  0.23272160446E+03  0.00000000000E+00 0. -1.
          1    1    1    2  502    0  0.31172245118E+02  0.77760381830E+02  0.14885756347E+03  0.17081264605E+03  0.00000000000E+00 0. -1.
         22    1    3    3    0    0 -0.24377116222E+01 -0.29510525291E+02  0.44772832665E+02  0.53678860697E+02  0.00000000000E+00 0.  1.
         22    1    3    3    0    0 -0.37816796736E+02 -0.10544646155E+03 -0.80602840365E+02  0.13800682680E+03  0.00000000000E+00 0.  1.
</event>
<event>
 7    1  0.5553952E-006  0.6296833E+02  0.7818608E-02  0.1441872E+00
          2   -1    0    0  502    0  0.00000000000E+00  0.00000000000E+00  0.91247263948E+03  0.91247263948E+03  0.00000000000E+00 0. -1.
          1   -1    0    0  501    0 -0.00000000000E+00 -0.00000000000E+00 -0.30545143839E+03  0.30545143839E+03  0.00000000000E+00 0. -1.
         25    2    1    2    0    0 -0.66455422292E+02 -0.79339905226E+01  0.14318068497E+03  0.20150529303E+03  0.12499761283E+03 0.  0.
          2    1    1    2  501    0  0.46063439892E+02  0.43202889104E+02 -0.27210955002E+03  0.27934197202E+03  0.00000000000E+00 0. -1.
          1    1    1    2  502    0  0.20391982400E+02 -0.35268898581E+02  0.73595006614E+03  0.73707681283E+03  0.00000000000E+00 0. -1.
         22    1    3    3    0    0 -0.85682406514E+02 -0.46924871332E+02  0.10756414654E+03  0.14530472792E+03  0.00000000000E+00 0.  1.
         22    1    3    3    0    0  0.19226984222E+02  0.38990880810E+02  0.35616538426E+02  0.56200565104E+02  0.00000000000E+00 0.  1.
</event>
<event>
 7    1  0.5553952E-006  0.3243935E+03  0.7818608E-02  0.1197423E+00
          2   -1    0    0  502    0  0.00000000000E+00  0.00000000000E+00  0.44077482673E+03  0.44077482673E+03  0.00000000000E+00 0. -1.
          1   -1    0    0  501    0 -0.00000000000E+00 -0.00000000000E+00 -0.52790054872E+03  0.52790054872E+03  0.00000000000E+00 0. -1.
         25    2    1    2    0    0 -0.82105605629E+02  0.28390412164E+03  0.25425488011E+02  0.32188696346E+03  0.12498752358E+03 0.  0.
          2    1    1    2  501    0  0.15118613711E+03 -0.30310911990E+03 -0.29599618468E+03  0.44982899859E+03  0.00000000000E+00 0. -1.
          1    1    1    2  502    0 -0.69080531481E+02  0.19204998268E+02  0.18344497468E+03  0.19695941339E+03  0.00000000000E+00 0. -1.
         22    1    3    3    0    0 -0.15972801546E+02  0.17088829470E+03  0.67381913409E+02  0.18438617602E+03  0.00000000000E+00 0.  1.
         22    1    3    3    0    0 -0.66132804083E+02  0.11301582694E+03 -0.41956425398E+02  0.13750078744E+03  0.00000000000E+00 0.  1.
</event>
<event>
 7    1  0.5553952E-006  0.5556548E+02  0.7818608E-02  0.1454724E+00
          2   -1    0    0  502    0  0.00000000000E+00  0.00000000000E+00  0.85723948386E+02  0.85723948386E+02  0.00000000000E+00 0. -1.
          1   -1    0    0  501    0 -0.00000000000E+00 -0.00000000000E+00 -0.20484385568E+04  0.20484385568E+04  0.00000000000E+00 0. -1.
         25    2    1    2    0    0 -0.57981003450E+02  0.12041597112E+02 -0.45366643596E+02  0.14556674098E+03  0.12499898762E+03 0.  0.
          2    1    1    2  501    0  0.81483879147E+01 -0.41188841100E+02 -0.19292033451E+04  0.19296601939E+04  0.00000000000E+00 0. -1.
          1    1    1    2  502    0  0.49832615536E+02  0.29147243988E+02  0.11855380372E+02  0.58935570304E+02  0.00000000000E+00 0. -1.
         22    1    3    3    0    0  0.18853037544E+02  0.38718230061E+02  0.13539258995E+02  0.45142550857E+02  0.00000000000E+00 0.  1.
         22    1    3    3    0    0 -0.76834040994E+02 -0.26676632950E+02 -0.58905902592E+02  0.10042419012E+03  0.00000000000E+00 0.  1.
</event>
<event>
 7    1  0.5553952E-006  0.9190154E+02  0.7818608E-02  0.1373772E+00
          2   -1    0    0  502    0  0.00000000000E+00  0.00000000000E+00  0.13569930118E+04  0.13569930118E+04  0.00000000000E+00 0. -1.
          1   -1    0    0  501    0 -0.00000000000E+00 -0.00000000000E+00 -0.15449860914E+03  0.15449860914E+03  0.00000000000E+00 0. -1.
         25    2    1    2    0    0 -0.81785132595E+02  0.10675045058E+03  0.79137777850E+03  0.81239670534E+03  0.12500060771E+03 0.  0.
          2    1    1    2  501    0  0.67397534908E+02 -0.61392632505E+02 -0.12840548060E+03  0.15747841276E+03  0.00000000000E+00 0. -1.
          1    1    1    2  502    0  0.14387597687E+02 -0.45357818076E+02  0.53952210479E+03  0.54161650287E+03  0.00000000000E+00 0. -1.
         22    1    3    3    0    0 -0.46601645780E+02  0.12398821925E+03  0.70785407453E+03  0.72014039098E+03  0.00000000000E+00 0.  1.
         22    1    3    3    0    0 -0.35183486815E+02 -0.17237768664E+02  0.83523703972E+02  0.92256314354E+02  0.00000000000E+00 0.  1.
</event>
<event>
 7    1  0.5553952E-006  0.1316706E+03  0.7818608E-02  0.1255844E+00
          2   -1    0    0  502    0  0.00000000000E+00  0.00000000000E+00  0.29381618554E+03  0.29381618554E+03  0.00000000000E+00 0. -1.
          1   -1    0    0  501    0 -0.00000000000E+00 -0.00000000000E+00 -0.10750174353E+04  0.10750174353E+04  0.00000000000E+00 0. -1.
         25    2    1    2    0    0  0.61553875109E+02 -0.10647730312E+03 -0.59868428090E+03  0.62383840367E+03  0.12500076034E+03 0.  0.
          2    1    1    2  501    0  0.66114931756E+02  0.69987349684E+02 -0.44261474118E+03  0.45296492406E+03  0.00000000000E+00 0. -1.
          1    1    1    2  502    0 -0.12766880687E+03  0.36489953432E+02  0.26009777230E+03  0.29203029313E+03  0.00000000000E+00 0. -1.
         22    1    3    3    0    0  0.19208469817E+02 -0.12270451643E+03 -0.35833253112E+03  0.37924605011E+03  0.00000000000E+00 0.  1.
         22    1    3    3    0    0  0.42345405292E+02  0.16227213313E+02 -0.24035174977E+03  0.24459235356E+03  0.00000000000E+00 0.  1.
</event>
<event>
 7    1  0.5553952E-006  0.4255312E+02  0.7818608E-02  0.1518437E+00
          2   -1    0    0  502    0  0.00000000000E+00  0.00000000000E+00  0.52926780572E+03  0.52926780572E+03  0.00000000000E+00 0. -1.
          1   -1    0    0  501    0 -0.00000000000E+00 -0.00000000000E+00 -0.15842656786E+04  0.15842656786E+04  0.00000000000E+00 0. -1.
         25    2    1    2    0    0  0.55490705930E+02  0.36956444838E+02 -0.92117188424E+01  0.14196680968E+03  0.12499888811E+03 0.  0.
          2    1    1    2  501    0 -0.42243754504E+02 -0.44594921974E+01 -0.15077117122E+04  0.15083099910E+04  0.00000000000E+00 0. -1.
          1    1    1    2  502    0 -0.13246951426E+02 -0.32496952640E+02  0.46192555815E+03  0.46325668363E+03  0.00000000000E+00 0. -1.
         22    1    3    3    0    0  0.43753288756E+02 -0.37577857052E+02 -0.28142910156E+02  0.64175299061E+02  0.00000000000E+00 0.  1.
         22    1    3    3    0    0  0.11737417175E+02  0.74534301890E+02  0.18931191314E+02  0.77791510621E+02  0.00000000000E+00 0.  1.
</event>
<event>
 7    1  0.5553952E-006  0.6958795E+02  0.7818608E-02  0.1405106E+00
          2   -1    0    0  502    0  0.00000000000E+00  0.00000000000E+00  0.88346074920E+03  0.88346074920E+03  0.00000000000E+00 0. -1.
          1   -1    0    0  501    0 -0.00000000000E+00 -0.00000000000E+00 -0.26725204119E+03  0.26725204119E+03  0.00000000000E+00 0. -1.
         25    2    1    2    0    0 -0.81548629743E+02  0.25491981027E+02 -0.15358249882E+03  0.21566655859E+03  0.12499784174E+03 0.  0.
          2    1    1    2  501    0  0.63922151339E+02  0.20060131440E+02 -0.68218138449E+02  0.95614667905E+02  0.00000000000E+00 0. -1.
          1    1    1    2  502    0  0.17626478404E+02 -0.45552112467E+02  0.83800934528E+03  0.83943156390E+03  0.00000000000E+00 0. -1.
         22    1    3    3    0    0 -0.17381040837E+02  0.70650905606E+02 -0.68567294921E+02  0.99975621910E+02  0.00000000000E+00 0. -1.
         22    1    3    3    0    0 -0.64167588906E+02 -0.45158924579E+02 -0.85015203903E+02  0.11569093668E+03  0.00000000000E+00 0. -1.
</event>
<event>
 7    1  0.5553952E-006  0.3902028E+02  0.7818608E-02  0.1593009E+00
          2   -1    0    0  502    0  0.00000000000E+00  0.00000000000E+00  0.43320865091E+03  0.43320865091E+03  0.00000000000E+00 0. -1.
          1   -1    0    0  501    0 -0.00000000000E+00 -0.00000000000E+00 -0.15014795763E+04  0.15014795763E+04  0.00000000000E+00 0. -1.
         25    2    1    2    0    0 -0.46867774503E+02  0.19875307605E+02  0.43275801892E+02  0.14173650789E+03  0.12499930600E+03 0.  0.
          2    1    1    2  501    0  0.38919021098E+02  0.25420511092E+01 -0.14515718542E+04  0.14520957269E+04  0.00000000000E+00 0. -1.
          1    1    1    2  502    0  0.79487534047E+01 -0.22417358714E+02  0.34002512689E+03  0.34085599242E+03  0.00000000000E+00 0. -1.
         22    1    3    3    0    0  0.18314154601E+02  0.56647865516E+02  0.12594595102E+02  0.60852384933E+02  0.00000000000E+00 0.  1.
         22    1    3    3    0    0 -0.65181929104E+02 -0.36772557911E+02  0.30681206790E+02  0.80884122961E+02  0.00000000000E+00 0.  1.
</event>
<event>
 7    1  0.5553952E-006  0.7300635E+02  0.7818608E-02  0.1379930E+00
          2   -1    0    0  502    0  0.00000000000E+00  0.00000000000E+00  0.17210952469E+04  0.17210952469E+04  0.00000000000E+00 0. -1.
          1   -1    0    0  501    0 -0.00000000000E+00 -0.00000000000E+00 -0.29063958340E+02  0.29063958340E+02  0.00000000000E+00 0. -1.
         25    2    1    2    0    0 -0.53258124325E+02 -0.97060499120E+02  0.11985981367E+04  0.12101731731E+04  0.12499778908E+03 0.  0.
          2    1    1    2  501    0  0.22855652436E+01  0.71654242025E+02  0.38255404804E+02  0.81259031531E+02  0.00000000000E+00 0. -1.
          1    1    1    2  502    0  0.50972559081E+02  0.25406257095E+02  0.45517774700E+03  0.45872700056E+03  0.00000000000E+00 0. -1.
         22    1    3    3    0    0 -0.61892492477E+02 -0.99913832858E-01  0.30000995647E+03  0.30632770783E+03  0.00000000000E+00 0.  1.
         22    1    3    3    0    0  0.86343681528E+01 -0.96960585287E+02  0.89858818025E+03  0.90384546527E+03  0.00000000000E+00 0.  1.
</event>
<event>
 7    1  0.5553952E-006  0.4643359E+02  0.7818608E-02  0.1572529E+00
          2   -1    0    0  502    0  0.00000000000E+00  0.00000000000E+00  0.50027730582E+03  0.50027730582E+03  0.00000000000E+00 0. -1.
          1   -1    0    0  501    0 -0.00000000000E+00 -0.00000000000E+00 -0.52568878031E+03  0.52568878031E+03  0.00000000000E+00 0. -1.
         25    2    1    2    0    0  0.16949687050E+02  0.59987883687E+02  0.70729520177E+02  0.15657392989E+03  0.12500756944E+03 0.  0.
          2    1    1    2  501    0  0.78832774558E+01 -0.21256779706E+02 -0.48112995031E+03  0.48166380997E+03  0.00000000000E+00 0. -1.
          1    1    1    2  502    0 -0.24832964506E+02 -0.38731103981E+02  0.38498895564E+03  0.38772834628E+03  0.00000000000E+00 0. -1.
         22    1    3    3    0    0  0.61839395326E+02  0.43940853096E+02  0.58814863059E+01  0.76088772275E+02  0.00000000000E+00 0.  1.
         22    1    3    3    0    0 -0.44889708275E+02  0.16047030591E+02  0.64848033871E+02  0.80485157618E+02  0.00000000000E+00 0.  1.
</event>
<event>
 7    1  0.5553952E-006  0.7780031E+02  0.7818608E-02  0.1463802E+00
          2   -1    0    0  502    0  0.00000000000E+00  0.00000000000E+00  0.87777005012E+03  0.87777005012E+03  0.00000000000E+00 0. -1.
          1   -1    0    0  501    0 -0.00000000000E+00 -0.00000000000E+00 -0.63208205747E+02  0.63208205747E+02  0.00000000000E+00 0. -1.
         25    2    1    2    0    0 -0.66079444945E+02  0.82187012697E+01  0.34320013823E+03  0.37127575541E+03  0.12500124630E+03 0.  0.
          2    1    1    2  501    0  0.77166286815E+02  0.17571060814E+02 -0.16658381536E+02  0.80875705093E+02  0.00000000000E+00 0. -1.
          1    1    1    2  502    0 -0.11086841869E+02 -0.25789762083E+02  0.48802008768E+03  0.48882679537E+03  0.00000000000E+00 0. -1.
         22    1    3    3    0    0 -0.75160019934E+01  0.54155063283E+02  0.74195973071E+02  0.92164546248E+02  0.00000000000E+00 0. -1.
         22    1    3    3    0    0 -0.58563442952E+02 -0.45936362013E+02  0.26900416516E+03  0.27911120916E+03  0.00000000000E+00 0. -1.
</event>
<event>
 7    1  0.5553952E-006  0.4200267E+02  0.7818608E-02  0.1508346E+00
          2   -1    0    0  502    0  0.00000000000E+00  0.00000000000E+00  0.13206893544E+03  0.13206893544E+03  0.00000000000E+00 0. -1.
          1   -1    0    0  501    0 -0.00000000000E+00 -0.00000000000E+00 -0.10697333263E+03  0.10697333263E+03  0.00000000000E+00 0. -1.
         25    2    1    2    0    0  0.13596721588E+02  0.20471461476E+02 -0.15550489525E+02  0.12833936184E+03  0.12500089000E+03 0.  0.
          2    1    1    2  501    0  0.90192250816E+01 -0.51080704180E+02 -0.40145834911E+01  0.52025970834E+02  0.00000000000E+00 0. -1.
          1    1    1    2  502    0 -0.22615946670E+02  0.30609242704E+02  0.44660675828E+02  0.58676935402E+02  0.00000000000E+00 0. -1.
         22    1    3    3    0    0  0.46787867328E+02  0.83124405299E+01  0.40256182074E+02  0.62279702888E+02  0.00000000000E+00 0. -1.
         22    1    3    3    0    0 -0.33191145739E+02  0.12159020947E+02 -0.55806671599E+02  0.66059658952E+02  0.00000000000E+00 0. -1.
</event>
<event>
 7    1  0.5553952E-006  0.9472341E+02  0.7818608E-02  0.1314883E+00
          2   -1    0    0  502    0  0.00000000000E+00  0.00000000000E+00  0.15664713140E+03  0.15664713140E+03  0.00000000000E+00 0. -1.
          1   -1    0    0  501    0 -0.00000000000E+00 -0.00000000000E+00 -0.40772972267E+03  0.40772972267E+03  0.00000000000E+00 0. -1.
         25    2    1    2    0    0  0.82326354770E+01  0.12166406464E+03 -0.16589173348E+03  0.24086499567E+03  0.12500383190E+03 0.  0.
          2    1    1    2  501    0 -0.62860861374E+02 -0.67892423084E+02 -0.17952236980E+03  0.20196323989E+03  0.00000000000E+00 0. -1.
          1    1    1    2  502    0  0.54628225897E+02 -0.53771641559E+02  0.94331512016E+02  0.12154861850E+03  0.00000000000E+00 0. -1.
         22    1    3    3    0    0 -0.48562297492E+02  0.65099137881E+02 -0.37385659261E+02  0.89408511949E+02  0.00000000000E+00 0. -1.
         22    1    3    3    0    0  0.56794932969E+02  0.56564926763E+02 -0.12850607422E+03  0.15145648373E+03  0.00000000000E+00 0. -1.
</event>
<event>
 7    1  0.5553952E-006  0.6084763E+02  0.7818608E-02  0.1399386E+00
          2   -1    0    0  502    0  0.00000000000E+00  0.00000000000E+00  0.50260977219E+03  0.50260977219E+03  0.00000000000E+00 0. -1.
          1   -1    0    0  501    0 -0.00000000000E+00 -0.00000000000E+00 -0.44955134319E+03  0.44955134319E+03  0.00000000000E+00 0. -1.
         25    2    1    2    0    0  0.56541038378E+02 -0.43998829651E+02 -0.27341876668E+03  0.30905524069E+03  0.12499813517E+03 0.  0.
          2    1    1    2  501    0  0.26937442663E+01  0.58376957088E+02 -0.15091670992E+03  0.16183627131E+03  0.00000000000E+00 0. -1.
          1    1    1    2  502    0 -0.59234782645E+02 -0.14378127438E+02  0.47739390560E+03  0.48126960337E+03  0.00000000000E+00 0. -1.
         22    1    3    3    0    0  0.79915479173E+02 -0.13709849203E+02 -0.25302617040E+03  0.26570037012E+03  0.00000000000E+00 0. -1.
         22    1    3    3    0    0 -0.23374440795E+02 -0.30288980447E+02 -0.20392596281E+02  0.43354870570E+02  0.00000000000E+00 0. -1.
</event>
<event>
 7    1  0.5553952E-006  0.8047003E+02  0.7818608E-02  0.1422362E+00
          2   -1    0    0  502    0  0.00000000000E+00  0.00000000000E+00  0.56769452183E+03  0.56769452183E+03  0.00000000000E+00 0. -1.
          1   -1    0    0  501    0 -0.00000000000E+00 -0.00000000000E+00 -0.11112707668E+04  0.11112707668E+04  0.00000000000E+00 0. -1.
         25    2    1    2    0    0  0.81301004667E+02 -0.69104704799E+02  0.49294614914E+02  0.17158197516E+03  0.12500040622E+03 0.  0.
          2    1    1    2  501    0 -0.73008155362E+02  0.33103381934E+02 -0.10478474412E+04  0.10509092657E+04  0.00000000000E+00 0. -1.
          1    1    1    2  502    0 -0.82928493050E+01  0.36001322865E+02  0.45497658141E+03  0.45647404771E+03  0.00000000000E+00 0. -1.
         22    1    3    3    0    0  0.71619637495E+02  0.78162580118E+01 -0.11633000614E+02  0.72978031403E+02  0.00000000000E+00 0.  1.
         22    1    3    3    0    0  0.96813671726E+01 -0.76920962811E+02  0.60927615527E+02  0.98603943754E+02  0.00000000000E+00 0.  1.
</event>
<event>
 7    1  0.5553952E-006  0.1551307E+03  0.7818608E-02  0.1368893E+00
          2   -1    0    0  502    0  0.00000000000E+00  0.00000000000E+00  0.29650612627E+04  0.29650612627E+04  0.00000000000E+00 0. -1.
          1   -1    0    0  501    0 -0.00000000000E+00 -0.00000000000E+00 -0.85314004359E+02  0.85314004359E+02  0.00000000000E+00 0. -1.
         25    2    1    2    0    0 -0.82979011607E+02 -0.99154684288E+02  0.81850813522E+03  0.83803377762E+03  0.12501150841E+03 0.  0.
          2    1    1    2  501    0  0.10728368288E+03  0.11560696843E+03  0.69789580843E+01  0.15787167453E+03  0.00000000000E+00 0. -1.
          1    1    1    2  502    0 -0.24304671277E+02 -0.16452284141E+02  0.20542601650E+04  0.20544698149E+04  0.00000000000E+00 0. -1.
         22    1    3    3    0    0 -0.63860200971E+02 -0.61126959231E+02  0.20751031868E+03  0.22555523220E+03  0.00000000000E+00 0.  1.
         22    1    3    3    0    0 -0.19118810636E+02 -0.38027725057E+02  0.61099781653E+03  0.61247854542E+03  0.00000000000E+00 0.  1.
</event>
<event>
 7    1  0.5553952E-006  0.2840890E+02  0.7818608E-02  0.1644526E+00
          2   -1    0    0  502    0  0.00000000000E+00  0.00000000000E+00  0.11480768651E+04  0.11480768651E+04  0.00000000000E+00 0. -1.
          1   -1    0    0  501    0 -0.00000000000E+00 -0.00000000000E+00 -0.73069040746E+03  0.73069040746E+03  0.00000000000E+00 0. -1.
         25    2    1    2    0    0 -0.98732098658E+01  0.80614529121E+01  0.79712622229E+01  0.12590036207E+03  0.12499957141E+03 0.  0.
          2    1    1    2  501    0  0.27098373537E+02  0.88474794538E+01 -0.67128860632E+03  0.67189358734E+03  0.00000000000E+00 0. -1.
          1    1    1    2  502    0 -0.17225163671E+02 -0.16908932366E+02  0.10807038017E+04  0.10809733231E+04  0.00000000000E+00 0. -1.
         22    1    3    3    0    0  0.57701915843E+02  0.35851525855E+01  0.10301421482E+01  0.57822362490E+02  0.00000000000E+00 0. -1.
         22    1    3    3    0    0 -0.67575125709E+02  0.44763003266E+01  0.69411200748E+01  0.68077999582E+02  0.00000000000E+00 0. -1.
</event>
<event>
 7    1  0.5553952E-006  0.5967114E+02  0.7818608E-02  0.1509083E+00
          2   -1    0    0  502    0  0.00000000000E+00  0.00000000000E+00  0.24854828791E+04  0.24854828791E+04  0.00000000000E+00 0. -1.
          1   -1    0    0  501    0 -0.00000000000E+00 -0.00000000000E+00 -0.14028693654E+03  0.14028693654E+03  0.00000000000E+00 0. -1.
         25    2    1    2    0    0  0.66221605720E+02  0.53271764949E+02  0.28805876691E+03  0.32531068862E+03  0.12500403567E+03 0.  0.
          2    1    1    2  501    0 -0.16956078456E+02 -0.20567051444E+02 -0.11979462896E+03  0.12272434693E+03  0.00000000000E+00 0. -1.
          1    1    1    2  502    0 -0.49265527264E+02 -0.32704713505E+02  0.21769318046E+04  0.21777347801E+04  0.00000000000E+00 0. -1.
         22    1    3    3    0    0 -0.83708657126E+01  0.70399304506E+02  0.10290062948E+03  0.12495868523E+03  0.00000000000E+00 0.  1.
         22    1    3    3    0    0  0.74592471433E+02 -0.17127539557E+02  0.18515813743E+03  0.20035200339E+03  0.00000000000E+00 0.  1.
</event>
<event>
 7    1  0.5553952E-006  0.1262256E+03  0.7818608E-02  0.1241851E+00
          2   -1    0    0  502    0  0.00000000000E+00  0.00000000000E+00  0.10557962841E+04  0.10557962841E+04  0.00000000000E+00 0. -1.
          1   -1    0    0  501    0 -0.00000000000E+00 -0.00000000000E+00 -0.10602883189E+04  0.10602883189E+04  0.00000000000E+00 0. -1.
         25    2    1    2    0    0  0.23525508803E+02  0.10478687012E+03  0.30101591376E+03  0.34317552327E+03  0.12500048689E+03 0.  0.
          2    1    1    2  501    0  0.90891040157E+02 -0.88795995040E+02 -0.10307350671E+04  0.10385377646E+04  0.00000000000E+00 0. -1.
          1    1    1    2  502    0 -0.11441654896E+03 -0.15990875083E+02  0.72522711868E+03  0.73437131509E+03  0.00000000000E+00 0. -1.
         22    1    3    3    0    0  0.50548069938E+02  0.12156209622E+03  0.25833066685E+03  0.28994341525E+03  0.00000000000E+00 0.  1.
         22    1    3    3    0    0 -0.27022561135E+02 -0.16775226095E+02  0.42685246904E+02  0.53232108018E+02  0.00000000000E+00 0.  1.
</event>
<event>
 7    1  0.5553952E-006  0.6710588E+02  0.7818608E-02  0.1421060E+00
          2   -1    0    0  502    0  0.00000000000E+00  0.00000000000E+00  0.66230114926E+03  0.66230114926E+03  0.00000000000E+00 0. -1.
          1   -1    0    0  501    0 -0.00000000000E+00 -0.00000000000E+00 -0.46995422290E+02  0.46995422290E+02  0.00000000000E+00 0. -1.
         25    2    1    2    0    0 -0.65708848999E+02 -0.35843877660E+02  0.36755088443E+03  0.39537445883E+03  0.12499949460E+03 0.  0.
          2    1    1    2  501    0  0.67040891100E+02 -0.88826547717E+01  0.58118301060E+01  0.67876063560E+02  0.00000000000E+00 0. -1.
          1    1    1    2  502    0 -0.13320421012E+01  0.44726532431E+02  0.24194301244E+03  0.24604604916E+03  0.00000000000E+00 0. -1.
         22    1    3    3    0    0  0.35922334763E+02  0.19145170390E+00  0.66301141459E+02  0.75407507235E+02  0.00000000000E+00 0.  1.
         22    1    3    3    0    0 -0.10163118376E+03 -0.36035329364E+02  0.30124974297E+03  0.31996695160E+03  0.00000000000E+00 0.  1.
</event>
<event>
 7    1  0.5553952E-006  0.2609843E+03  0.7818608E-02  0.1299071E+00
          2   -1    0    0  502    0  0.00000000000E+00  0.00000000000E+00  0.21495554194E+04  0.21495554194E+04  0.00000000000E+00 0. -1.
          1   -1    0    0  501    0 -0.00000000000E+00 -0.00000000000E+00 -0.13254013350E+04  0.13254013350E+04  0.00000000000E+00 0. -1.
         25    2    1    2    0    0  0.14258055575E+03  0.23580836679E+03  0.19973751790E+04  0.20201652114E+04  0.12500029871E+03 0.  0.
          2    1    1    2  501    0 -0.11045016045E+03 -0.23636766373E+03 -0.12990158684E+04  0.13249570321E+04  0.00000000000E+00 0. -1.
          1    1    1    2  502    0 -0.32130395299E+02  0.55929693568E+00  0.12579477379E+03  0.12983451093E+03  0.00000000000E+00 0. -1.
         22    1    3    3    0    0  0.33260665266E+02  0.10731904882E+03  0.45828255059E+03  0.47185436976E+03  0.00000000000E+00 0. -1.
         22    1    3    3    0    0  0.10931989048E+03  0.12848931797E+03  0.15390926285E+04  0.15483108416E+04  0.00000000000E+00 0. -1.
</event>
<event>
 7    1  0.5553952E-006  0.1287919E+03  0.7818608E-02  0.1404780E+00
          2   -1    0    0  502    0  0.00000000000E+00  0.00000000000E+00  0.17625987640E+04  0.17625987640E+04  0.00000000000E+00 0. -1.
          1   -1    0    0  501    0 -0.00000000000E+00 -0.00000000000E+00 -0.43662447420E+03  0.43662447420E+03  0.00000000000E+00 0. -1.
         25    2    1    2    0    0  0.10605841714E+03  0.10257682665E+03 -0.17342734670E+03  0.25975408862E+03  0.12499899504E+03 0.  0.
          2    1    1    2  501    0 -0.90301956720E+02 -0.81321513703E+02 -0.20314430016E+03  0.23671763488E+03  0.00000000000E+00 0. -1.
          1    1    1    2  502    0 -0.15756460424E+02 -0.21255312942E+02  0.17025459367E+04  0.17027515147E+04  0.00000000000E+00 0. -1.
         22    1    3    3    0    0 -0.27635958250E+02  0.20527167704E+02 -0.47138886640E+02  0.58371101035E+02  0.00000000000E+00 0. -1.
         22    1    3    3    0    0  0.13369437539E+03  0.82049658941E+02 -0.12628846006E+03  0.20138298759E+03  0.00000000000E+00 0. -1.
</event>
<event>
 7    1  0.5553952E-006  0.1980533E+03  0.7818608E-02  0.1244291E+00
          2   -1    0    0  502    0  0.00000000000E+00  0.00000000000E+00  0.27019547671E+04  0.27019547671E+04  0.00000000000E+00 0. -1.
          1   -1    0    0  501    0 -0.00000000000E+00 -0.00000000000E+00 -0.20386575191E+04  0.20386575191E+04  0.00000000000E+00 0. -1.
         25    2    1    2    0    0  0.17725582770E+03  0.18904029729E+03 -0.86701840519E+03  0.91351062972E+03  0.12499957285E+03 0.  0.
          2    1    1    2  501    0 -0.20033969909E+02 -0.68986642092E+02 -0.11436123626E+04  0.11458663765E+04  0.00000000000E+00 0. -1.
          1    1    1    2  502    0 -0.15722185779E+03 -0.12005365520E+03  0.26739280159E+04  0.26812352800E+04  0.00000000000E+00 0. -1.
         22    1    3    3    0    0  0.10647127598E+03  0.17719240185E+03 -0.52898221409E+03  0.56793966467E+03  0.00000000000E+00 0. -1.
         22    1    3    3    0    0  0.70784551721E+02  0.11847895439E+02 -0.33803619110E+03  0.34557096505E+03  0.00000000000E+00 0. -1.
</event>
<event>
 7    1  0.5553952E-006  0.4336278E+02  0.7818608E-02  0.1498526E+00
          2   -1    0    0  502    0  0.00000000000E+00  0.00000000000E+00  0.95869422057E+03  0.95869422057E+03  0.00000000000E+00 0. -1.
          1   -1    0    0  501    0 -0.00000000000E+00 -0.00000000000E+00 -0.32600737861E+02  0.32600737861E+02  0.00000000000E+00 0. -1.
         25    2    1    2    0    0 -0.11618361897E+02  0.43717602066E+02  0.17810106910E+03  0.22224210319E+03  0.12500138620E+03 0.  0.
          2    1    1    2  501    0  0.42437774433E+02 -0.19131137264E+02  0.44312750631E+02  0.64269627199E+02  0.00000000000E+00 0. -1.
          1    1    1    2  502    0 -0.30819412536E+02 -0.24586464803E+02  0.70367966298E+03  0.70478322805E+03  0.00000000000E+00 0. -1.
         22    1    3    3    0    0 -0.37662086803E+02  0.79572023745E+02  0.10837828799E+03  0.13962805253E+03  0.00000000000E+00 0.  1.
         22    1    3    3    0    0  0.26043724906E+02 -0.35854421679E+02  0.69722781109E+02  0.82614050660E+02  0.00000000000E+00 0.  1.
</event>
<event>
 7    1  0.5553952E-006  0.5239275E+02  0.7818608E-02  0.1449027E+00
          2   -1    0    0  502    0  0.00000000000E+00  0.00000000000E+00  0.18447846212E+04  0.18447846212E+04  0.00000000000E+00 0. -1.
          1   -1    0    0  501    0 -0.00000000000E+00 -0.00000000000E+00 -0.17088001941E+03  0.17088001941E+03  0.00000000000E+00 0. -1.
         25    2    1    2    0    0  0.82046889860E+02  0.17694335821E+02 -0.74568306683E+02  0.16801827940E+03  0.12499971279E+03 0.  0.
          2    1    1    2  501    0 -0.32160712749E+02 -0.33492385247E+02 -0.38248948467E+02  0.60158402347E+02  0.00000000000E+00 0. -1.
          1    1    1    2  502    0 -0.49886177110E+02  0.15798049426E+02  0.17867218569E+04  0.17874879589E+04  0.00000000000E+00 0. -1.
         22    1    3    3    0    0  0.45645177330E+02 -0.43718324775E+02  0.21252367319E+01  0.63239945966E+02  0.00000000000E+00 0. -1.
         22    1    3    3    0    0  0.36401712530E+02  0.61412660596E+02 -0.76693543415E+02  0.10477833344E+03  0.00000000000E+00 0. -1.
</event>
<event>
 7    1  0.5553952E-006  0.1246518E+03  0.7818608E-02  0.1247004E+00
          2   -1    0    0  502    0  0.00000000000E+00  0.00000000000E+00  0.96388620300E+03  0.96388620300E+03  0.00000000000E+00 0. -1.
          1   -1    0    0  501    0 -0.00000000000E+00 -0.00000000000E+00 -0.54431660854E+02  0.54431660854E+02  0.00000000000E+00 0. -1.
         25    2    1    2    0    0  0.65644655138E+02 -0.52123317054E+02  0.35333278898E+03  0.38405114642E+03  0.12500064947E+03 0.  0.
          2    1    1    2  501    0  0.82096027863E+01 -0.11076120541E+03  0.12328185952E+03  0.16593329711E+03  0.00000000000E+00 0. -1.
          1    1    1    2  502    0 -0.73854257924E+02  0.16288452246E+03  0.43283989364E+03  0.46833342033E+03  0.00000000000E+00 0. -1.
         22    1    3    3    0    0  0.94162558206E+02 -0.68777904446E+02  0.29137579665E+03  0.31384206598E+03  0.00000000000E+00 0.  1.
         22    1    3    3    0    0 -0.28517903068E+02  0.16654587392E+02  0.61956992329E+02  0.70209080431E+02  0.00000000000E+00 0.  1.
</event>
<event>
 7    1  0.5553952E-006  0.1258043E+03  0.7818608E-02  0.1264761E+00
          2   -1    0    0  502    0  0.00000000000E+00  0.00000000000E+00  0.71185927997E+03  0.71185927997E+03  0.00000000000E+00 0. -1.
          1   -1    0    0  501    0 -0.00000000000E+00 -0.00000000000E+00 -0.13094911015E+04  0.13094911015E+04  0.00000000000E+00 0. -1.
         25    2    1    2    0    0  0.20823383066E+02 -0.94759782623E+02 -0.11433656920E+03  0.19522169876E+03  0.12500252367E+03 0.  0.
          2    1    1    2  501    0 -0.11001235317E+03  0.70935195012E+02 -0.11478010662E+04  0.11552410170E+04  0.00000000000E+00 0. -1.
          1    1    1    2  502    0  0.89188970105E+02  0.23824587612E+02  0.66450581387E+03  0.67088766573E+03  0.00000000000E+00 0. -1.
         22    1    3    3    0    0  0.25890394149E+01 -0.31951317370E+02  0.25424851039E+02  0.40914702212E+02  0.00000000000E+00 0.  1.
         22    1    3    3    0    0  0.18234343651E+02 -0.62808465253E+02 -0.13976142024E+03  0.15430699655E+03  0.00000000000E+00 0.  1.
</event>
<event>
 7    1  0.5553952E-006  0.7986556E+02  0.7818608E-02  0.1415878E+00
          2   -1    0    0  502    0  0.00000000000E+00  0.00000000000E+00  0.63213478473E+03  0.63213478473E+03  0.00000000000E+00 0. -1.
          1   -1    0    0  501    0 -0.00000000000E+00 -0.00000000000E+00 -0.88939707117E+03  0.88939707117E+03  0.00000000000E+00 0. -1.
         25    2    1    2    0    0 -0.55189580389E+02 -0.85679599503E+02 -0.46521776098E+02  0.16785853097E+03  0.12500130884E+03 0.  0.
          2    1    1    2  501    0  0.38295011570E+02  0.80381074963E+01 -0.77895141848E+03  0.77993360706E+03  0.00000000000E+00 0. -1.
          1    1    1    2  502    0  0.16894568819E+02  0.77641492007E+02  0.56821090814E+03  0.57373971787E+03  0.00000000000E+00 0. -1.
         22    1    3    3    0    0  0.91402357737E+01 -0.49789065767E+02  0.32240556880E+02  0.60016235202E+02  0.00000000000E+00 0.  1.
         22    1    3    3    0    0 -0.64329816163E+02 -0.35890533737E+02 -0.78762332977E+02  0.10784229576E+03  0.00000000000E+00 0.  1.
</event>
<event>
 7    1  0.5553952E-006  0.1198382E+03  0.7818608E-02  0.1438481E+00
          2   -1    0    0  502    0  0.00000000000E+00  0.00000000000E+00  0.31102550516E+03  0.31102550516E+03  0.00000000000E+00 0. -1.
          1   -1    0    0  501    0 -0.00000000000E+00 -0.00000000000E+00 -0.42453770597E+03  0.42453770597E+03  0.00000000000E+00 0. -1.
         25    2    1    2    0    0  0.56480520727E+02 -0.11682658912E+03 -0.18245663111E+03  0.25642121034E+03  0.12499165465E+03 0.  0.
          2    1    1    2  501    0 -0.21796368170E+02  0.26416542657E+01 -0.19144980489E+03  0.19270466469E+03  0.00000000000E+00 0. -1.
          1    1    1    2  502    0 -0.34684152557E+02  0.11418493485E+03  0.26039423519E+03  0.28643733609E+03  0.00000000000E+00 0. -1.
         22    1    3    3    0    0  0.24356815834E+02 -0.50863000764E+02  0.35111793075E+01  0.56503342418E+02  0.00000000000E+00 0.  1.
         22    1    3    3    0    0  0.32123704893E+02 -0.65963588352E+02 -0.18596781042E+03  0.19991786792E+03  0.00000000000E+00 0.  1.
</event>
<event>
 7    1  0.5553952E-006  0.8943215E+02  0.7818608E-02  0.1399612E+00
          2   -1    0    0  502    0  0.00000000000E+00  0.00000000000E+00  0.79186825350E+03  0.79186825350E+03  0.00000000000E+00 0. -1.
          1   -1    0    0  501    0 -0.00000000000E+00 -0.00000000000E+00 -0.15836295482E+03  0.15836295482E+03  0.00000000000E+00 0. -1.
         25    2    1    2    0    0  0.25570306853E+02  0.60765282243E+02 -0.68644098699E+00  0.14129475525E+03  0.12496990254E+03 0.  0.
          2    1    1    2  501    0 -0.26190101185E+02  0.29821567476E+02 -0.79850711690E+02  0.89170530133E+02  0.00000000000E+00 0. -1.
          1    1    1    2  502    0  0.61979433253E+00 -0.90586849719E+02  0.71404245136E+03  0.71976592294E+03  0.00000000000E+00 0. -1.
         22    1    3    3    0    0 -0.95750601766E+01 -0.25346363260E+01 -0.51754897156E+02  0.52694169870E+02  0.00000000000E+00 0.  1.
         22    1    3    3    0    0  0.35145367029E+02  0.63299918569E+02  0.51068456169E+02  0.88600585381E+02  0.00000000000E+00 0.  1.
</event>
<event>
 7    1  0.5553952E-006  0.3667009E+02  0.7818608E-02  0.1543148E+00
          2   -1    0    0  502    0  0.00000000000E+00  0.00000000000E+00  0.44025328276E+03  0.44025328276E+03  0.00000000000E+00 0. -1.
          1   -1    0    0  501    0 -0.00000000000E+00 -0.00000000000E+00 -0.10080761461E+04  0.10080761461E+04  0.00000000000E+00 0. -1.
         25    2    1    2    0    0  0.34224714571E+02  0.60686774436E+02 -0.57663660462E+02  0.15428313146E+03  0.12499588488E+03 0.  0.
          2    1    1    2  501    0 -0.11548656627E+02 -0.34549080968E+02 -0.90097021867E+03  0.90170635208E+03  0.00000000000E+00 0. -1.
          1    1    1    2  502    0 -0.22676057945E+02 -0.26137693469E+02  0.39081101580E+03  0.39233994532E+03  0.00000000000E+00 0. -1.
         22    1    3    3    0    0 -0.14742956524E+02 -0.14416965711E+00 -0.73192675873E+02  0.74662864621E+02  0.00000000000E+00 0. -1.
         22    1    3    3    0    0  0.48967671095E+02  0.60830944093E+02  0.15529015411E+02  0.79620266838E+02  0.00000000000E+00 0. -1.
</event>
<event>
 7    1  0.5553952E-006  0.7440195E+02  0.7818608E-02  0.1462850E+00
          2   -1    0    0  502    0  0.00000000000E+00  0.00000000000E+00  0.51042508700E+03  0.51042508700E+03  0.00000000000E+00 0. -1.
          1   -1    0    0  501    0 -0.00000000000E+00 -0.00000000000E+00 -0.91448771294E+03  0.91448771294E+03  0.00000000000E+00 0. -1.
         25    2    1    2    0    0  0.90443485167E+02  0.48278521150E+02  0.91456185242E+02  0.18574910297E+03  0.12501062283E+03 0.  0.
          2    1    1    2  501    0 -0.61854608897E+02 -0.40776168718E+02 -0.86516823834E+03  0.86833448003E+03  0.00000000000E+00 0. -1.
          1    1    1    2  502    0 -0.28588876270E+02 -0.75023524325E+01  0.36964942715E+03  0.37082921694E+03  0.00000000000E+00 0. -1.
         22    1    3    3    0    0  0.81397103958E+02  0.10219819735E+02  0.11411434517E+03  0.14054186928E+03  0.00000000000E+00 0.  1.
         22    1    3    3    0    0  0.90463812088E+01  0.38058701415E+02 -0.22658159924E+02  0.45207233686E+02  0.00000000000E+00 0.  1.
</event>
<event>
 7    1  0.5553952E-006  0.3841750E+02  0.7818608E-02  0.1578708E+00
          2   -1    0    0  502    0  0.00000000000E+00  0.00000000000E+00  0.24991067957E+04  0.24991067957E+04  0.00000000000E+00 0. -1.
          1   -1    0    0  501    0 -0.00000000000E+00 -0.00000000000E+00 -0.30378555444E+03  0.30378555444E+03  0.00000000000E+00 0. -1.
         25    2    1    2    0    0  0.11603148611E+02 -0.45096237474E+01 -0.21774062338E+03  0.25137884910E+03  0.12500150775E+03 0.  0.
          2    1    1    2  501    0  0.20622938336E+02 -0.16434668646E+02 -0.66560120072E+02  0.71593669435E+02  0.00000000000E+00 0. -1.
          1    1    1    2  502    0 -0.32226086947E+02  0.20944292393E+02  0.24796219847E+04  0.24799198316E+04  0.00000000000E+00 0. -1.
         22    1    3    3    0    0  0.24080965433E+02 -0.55883123764E+02 -0.16842766678E+03  0.17908292871E+03  0.00000000000E+00 0. -1.
         22    1    3    3    0    0 -0.12477816822E+02  0.51373500017E+02 -0.49312956601E+02  0.72295920392E+02  0.00000000000E+00 0. -1.
</event>
<event>
 7    1  0.5553952E-006  0.6736431E+02  0.7818608E-02  0.1399296E+00
          2   -1    0    0  502    0  0.00000000000E+00  0.00000000000E+00  0.13690617921E+04  0.13690617921E+04  0.00000000000E+00 0. -1.
          1   -1    0    0  501    0 -0.00000000000E+00 -0.00000000000E+00 -0.26321462282E+03  0.26321462282E+03  0.00000000000E+00 0. -1.
         25    2    1    2    0    0 -0.45973804871E+02  0.20344709961E+02  0.31070714162E+02  0.13826724220E+03  0.12499977212E+03 0.  0.
          2    1    1    2  501    0  0.63058110916E+02  0.29639658824E+02 -0.20326552149E+03  0.21487602694E+03  0.00000000000E+00 0. -1.
          1    1    1    2  502    0 -0.17084306045E+02 -0.49984368785E+02  0.12780419766E+04  0.12791331458E+04  0.00000000000E+00 0. -1.
         22    1    3    3    0    0 -0.71486301031E+02 -0.30943886467E+00 -0.22928441375E+02  0.75073966269E+02  0.00000000000E+00 0. -1.
         22    1    3    3    0    0  0.25512496160E+02  0.20654148826E+02  0.53999155537E+02  0.63193275929E+02  0.00000000000E+00 0. -1.
</event>
<event>
 7    1  0.5553952E-006  0.9106964E+02  0.7818608E-02  0.1357466E+00
          2   -1    0    0  502    0  0.00000000000E+00  0.00000000000E+00  0.14132014182E+04  0.14132014182E+04  0.00000000000E+00 0. -1.
          1   -1    0    0  501    0 -0.00000000000E+00 -0.00000000000E+00 -0.19600773165E+03  0.19600773165E+03  0.00000000000E+00 0. -1.
         25    2    1    2    0    0 -0.45723938544E+02 -0.91107854877E+01 -0.54266274943E+02  0.14401551752E+03  0.12498782229E+03 0.  0.
          2    1    1    2  501    0 -0.42378684380E+02  0.35070274460E+02 -0.87380161846E+02  0.10325294051E+03  0.00000000000E+00 0. -1.
          1    1    1    2  502    0  0.88102622924E+02 -0.25959488972E+02  0.13588401233E+04  0.13619406918E+04  0.00000000000E+00 0. -1.
         22    1    3    3    0    0  0.32291411318E+02 -0.26529537636E+02  0.81729702563E+01  0.42583436392E+02  0.00000000000E+00 0.  1.
         22    1    3    3    0    0 -0.78015349862E+02  0.17418752149E+02 -0.62439245199E+02  0.10143208113E+03  0.00000000000E+00 0.  1.
</event>
<event>
 7    1  0.5553952E-006  0.1195161E+03  0.7818608E-02  0.1340300E+00
          2   -1    0    0  502    0  0.00000000000E+00  0.00000000000E+00  0.45769568368E+03  0.45769568368E+03  0.00000000000E+00 0. -1.
          1   -1    0    0  501    0 -0.00000000000E+00 -0.00000000000E+00 -0.13850094181E+03  0.13850094181E+03  0.00000000000E+00 0. -1.
         25    2    1    2    0    0  0.15011010323E+03  0.50313194934E+02  0.11500359843E+03  0.23217587717E+03  0.12496139249E+03 0.  0.
          2    1    1    2  501    0 -0.10216584975E+03 -0.42740246654E+02 -0.37946257468E+02  0.11706625472E+03  0.00000000000E+00 0. -1.
          1    1    1    2  502    0 -0.47944253480E+02 -0.75729482805E+01  0.24213740091E+03  0.24695449360E+03  0.00000000000E+00 0. -1.
         22    1    3    3    0    0  0.11666963888E+03  0.91739888859E+02  0.82737171305E+02  0.16992189782E+03  0.00000000000E+00 0. -1.
         22    1    3    3    0    0  0.33440464355E+02 -0.41426693925E+02  0.32266427123E+02  0.62253979352E+02  0.00000000000E+00 0. -1.
</event>
<event>
 7    1  0.5553952E-006  0.2930766E+03  0.7818608E-02  0.1096011E+00
          2   -1    0    0  502    0  0.00000000000E+00  0.00000000000E+00  0.12412492908E+04  0.12412492908E+04  0.00000000000E+00 0. -1.
          1   -1    0    0  501    0 -0.00000000000E+00 -0.00000000000E+00 -0.21108631691E+03  0.21108631691E+03  0.00000000000E+00 0. -1.
         25    2    1    2    0    0 -0.14356002592E+03 -0.21811215940E+03  0.33808275949E+03  0.44509286162E+03  0.12500123233E+03 0.  0.
          2    1    1    2  501    0 -0.18914671384E+03  0.22386923021E+03  0.69329392816E+02  0.30116519769E+03  0.00000000000E+00 0. -1.
          1    1    1    2  502    0  0.33270673977E+03 -0.57570708034E+01  0.62275082159E+03  0.70607754839E+03  0.00000000000E+00 0. -1.
         22    1    3    3    0    0 -0.86333176018E+02 -0.13003719772E+03  0.10134779328E+03  0.18610337255E+03  0.00000000000E+00 0. -1.
         22    1    3    3    0    0 -0.57226849905E+02 -0.88074961687E+02  0.23673496621E+03  0.25898948907E+03  0.00000000000E+00 0. -1.
</event>
<event>
 7    1  0.5553952E-006  0.3832175E+02  0.7818608E-02  0.1571081E+00
          2   -1    0    0  502    0  0.00000000000E+00  0.00000000000E+00  0.69272789233E+03  0.69272789233E+03  0.00000000000E+00 0. -1.
          1   -1    0    0  501    0 -0.00000000000E+00 -0.00000000000E+00 -0.83416485951E+02  0.83416485951E+02  0.00000000000E+00 0. -1.
         25    2    1    2    0    0  0.14860904253E+02  0.57307486649E+02  0.19421104945E+03  0.23842876299E+03  0.12500139516E+03 0.  0.
          2    1    1    2  501    0 -0.22293349185E+02 -0.30602508829E+02 -0.55014624638E+02  0.66784099069E+02  0.00000000000E+00 0. -1.
          1    1    1    2  502    0  0.74324449315E+01 -0.26704977820E+02  0.47011498156E+03  0.47093151622E+03  0.00000000000E+00 0. -1.
         22    1    3    3    0    0  0.52504949619E+02  0.72525085666E+02  0.91667167842E+02  0.12813870393E+03  0.00000000000E+00 0. -1.
         22    1    3    3    0    0 -0.37644045366E+02 -0.15217599018E+02  0.10254388161E+03  0.11029005906E+03  0.00000000000E+00 0. -1.
</event>
<event>
 7    1  0.5553952E-006  0.4305583E+02  0.7818608E-02  0.1581813E+00
          2   -1    0    0  502    0  0.00000000000E+00  0.00000000000E+00  0.35287581214E+03  0.35287581214E+03  0.00000000000E+00 0. -1.
          1   -1    0    0  501    0 -0.00000000000E+00 -0.00000000000E+00 -0.84682622610E+03  0.84682622610E+03  0.00000000000E+00 0. -1.
         25    2    1    2    0    0 -0.50736040986E+02 -0.34760984812E+02  0.16775606120E+03  0.21805963093E+03  0.12500173859E+03 0.  0.
          2    1    1    2  501    0  0.22622432038E+02  0.45884919199E+01 -0.81885113189E+03  0.81917641866E+03  0.00000000000E+00 0. -1.
          1    1    1    2  502    0  0.28113608948E+02  0.30172492893E+02  0.15714465673E+03  0.16246598867E+03  0.00000000000E+00 0. -1.
         22    1    3    3    0    0 -0.34283727236E+02 -0.46432244743E+02  0.18356881704E+03  0.19242878655E+03  0.00000000000E+00 0.  1.
         22    1    3    3    0    0 -0.16452313750E+02  0.11671259930E+02 -0.15812755839E+02  0.25630844374E+02  0.00000000000E+00 0.  1.
</event>
<event>
 7    1  0.5553952E-006  0.5347070E+02  0.7818608E-02  0.1540444E+00
          2   -1    0    0  502    0  0.00000000000E+00  0.00000000000E+00  0.16042994279E+04  0.16042994279E+04  0.00000000000E+00 0. -1.
          1   -1    0    0  501    0 -0.00000000000E+00 -0.00000000000E+00 -0.10686622113E+03  0.10686622113E+03  0.00000000000E+00 0. -1.
         25    2    1    2    0    0  0.38332296277E+02  0.38406962131E+01  0.15243272921E+03  0.20086106685E+03  0.12500126141E+03 0.  0.
          2    1    1    2  501    0 -0.47705526607E+02 -0.26098796468E+02 -0.73594117369E+02  0.91504418239E+02  0.00000000000E+00 0. -1.
          1    1    1    2  502    0  0.93732303300E+01  0.22258100255E+02  0.14185945950E+04  0.14188001640E+04  0.00000000000E+00 0. -1.
         22    1    3    3    0    0 -0.36848788717E+02 -0.26934851319E+02  0.79590914822E+02  0.91749840151E+02  0.00000000000E+00 0. -1.
         22    1    3    3    0    0  0.75181084994E+02  0.30775547532E+02  0.72841814392E+02  0.10911122669E+03  0.00000000000E+00 0. -1.
</event>
<event>
 7    1  0.5553952E-006  0.9622391E+02  0.7818608E-02  0.1385318E+00
          2   -1    0    0  502    0  0.00000000000E+00  0.00000000000E+00  0.81997812755E+02  0.81997812755E+02  0.00000000000E+00 0. -1.
          1   -1    0    0  501    0 -0.00000000000E+00 -0.00000000000E+00 -0.32647662279E+04  0.32647662279E+04  0.00000000000E+00 0. -1.
         25    2    1    2    0    0  0.59862453623E+01 -0.64716429104E+02 -0.81976368758E+03  0.83178476797E+03  0.12501738051E+03 0.  0.
          2    1    1    2  501    0 -0.28202883625E+02 -0.30253838242E+02 -0.24074432545E+04  0.24077985217E+04  0.00000000000E+00 0. -1.
          1    1    1    2  502    0  0.22216638263E+02  0.94970267347E+02  0.44438526978E+02  0.10718075096E+03  0.00000000000E+00 0. -1.
         22    1    3    3    0    0  0.15782315004E+02 -0.50691130587E+02 -0.81067709603E+03  0.81241370386E+03  0.00000000000E+00 0.  1.
         22    1    3    3    0    0 -0.97960696417E+01 -0.14025298518E+02 -0.90865915440E+01  0.19371064112E+02  0.00000000000E+00 0.  1.
</event>
<event>
 7    1  0.5553952E-006  0.8480344E+02  0.7818608E-02  0.1322485E+00
          2   -1    0    0  502    0  0.00000000000E+00  0.00000000000E+00  0.18884952434E+04  0.18884952434E+04  0.00000000000E+00 0. -1.
          1   -1    0    0  501    0 -0.00000000000E+00 -0.00000000000E+00 -0.40250709133E+03  0.40250709133E+03  0.00000000000E+00 0. -1.
         25    2    1    2    0    0 -0.12658273082E+03  0.11534989670E+01  0.20475409785E+03  0.27124452499E+03  0.12499933380E+03 0.  0.
          2    1    1    2  501    0  0.60970992119E+02  0.51772376852E+02 -0.36383848405E+03  0.37252688945E+03  0.00000000000E+00 0. -1.
          1    1    1    2  502    0  0.65611738702E+02 -0.52925875819E+02  0.16450725383E+04  0.16472309203E+04  0.00000000000E+00 0. -1.
         22    1    3    3    0    0 -0.68044098231E+02  0.35196452488E+01  0.11239558080E+02  0.69055882245E+02  0.00000000000E+00 0.  1.
         22    1    3    3    0    0 -0.58538632590E+02 -0.23661462818E+01  0.19351453977E+03  0.20218864274E+03  0.00000000000E+00 0.  1.
</event>
<event>
 7    1  0.5553952E-006  0.6889205E+02  0.7818608E-02  0.1397544E+00
          2   -1    0    0  502    0  0.00000000000E+00  0.00000000000E+00  0.18923161032E+03  0.18923161032E+03  0.00000000000E+00 0. -1.
          1   -1    0    0  501    0 -0.00000000000E+00 -0.00000000000E+00 -0.25501521260E+03  0.25501521260E+03  0.00000000000E+00 0. -1.
         25    2    1    2    0    0  0.24979564493E+02 -0.37593758311E+02  0.77492091576E+01  0.13312428978E+03  0.12499902792E+03 0.  0.
          2    1    1    2  501    0 -0.71362062289E+02  0.13266052123E+02 -0.17911504535E+03  0.19326337352E+03  0.00000000000E+00 0. -1.
          1    1    1    2  502    0  0.46382497796E+02  0.24327706188E+02  0.10558223391E+03  0.11785915963E+03  0.00000000000E+00 0. -1.
         22    1    3    3    0    0 -0.29180773233E+02 -0.16552674188E+02 -0.43990147494E+02  0.55323065947E+02  0.00000000000E+00 0. -1.
         22    1    3    3    0    0  0.54160337726E+02 -0.21041084124E+02  0.51739356652E+02  0.77801223836E+02  0.00000000000E+00 0. -1.
</event>
<event>
 7    1  0.5553952E-006  0.3946951E+02  0.7818608E-02  0.1516787E+00
          2   -1    0    0  502    0  0.00000000000E+00  0.00000000000E+00  0.47663110984E+04  0.47663110984E+04  0.00000000000E+00 0. -1.
          1   -1    0    0  501    0 -0.00000000000E+00 -0.00000000000E+00 -0.25365251115E+02  0.25365251115E+02  0.00000000000E+00 0. -1.
         25    2    1    2    0    0 -0.32257181861E+02 -0.69513334650E+02  0.20960720578E+04  0.21011956480E+04  0.12502979806E+03 0.  0.
          2    1    1    2  501    0  0.11292560710E+02  0.37513024026E+02 -0.57371212358E+01  0.39593730047E+02  0.00000000000E+00 0. -1.
          1    1    1    2  502    0  0.20964621151E+02  0.32000310624E+02  0.26506109107E+04  0.26508869714E+04  0.00000000000E+00 0. -1.
         22    1    3    3    0    0  0.40260850552E+02 -0.81105533267E+01  0.32629522680E+03  0.32886971919E+03  0.00000000000E+00 0.  1.
         22    1    3    3    0    0 -0.72518032413E+02 -0.61402781323E+02  0.17697768309E+04  0.17723259288E+04  0.00000000000E+00 0.  1.
</event>
<event>
 7    1  0.5553952E-006  0.3449879E+02  0.7818608E-02  0.1589276E+00
          2   -1    0    0  502    0  0.00000000000E+00  0.00000000000E+00  0.13507346880E+04  0.13507346880E+04  0.00000000000E+00 0. -1.
          1   -1    0    0  501    0 -0.00000000000E+00 -0.00000000000E+00 -0.11427513833E+03  0.11427513833E+03  0.00000000000E+00 0. -1.
         25    2    1    2    0    0 -0.15496602681E+02  0.22795502467E+01  0.46661753192E+03  0.48332406008E+03  0.12499953966E+03 0.  0.
          2    1    1    2  501    0 -0.43823624855E+01  0.27169080607E+02 -0.10376709653E+03  0.10735443337E+03  0.00000000000E+00 0. -1.
          1    1    1    2  502    0  0.19878965167E+02 -0.29448630854E+02  0.87360911432E+03  0.87433133293E+03  0.00000000000E+00 0. -1.
         22    1    3    3    0    0  0.22119369526E+02  0.51733824254E+02  0.30555532112E+03  0.31069230654E+03  0.00000000000E+00 0. -1.
         22    1    3    3    0    0 -0.37615972207E+02 -0.49454274007E+02  0.16106221080E+03  0.17263175354E+03  0.00000000000E+00 0. -1.
</event>
<event>
 7    1  0.5553952E-006  0.7591840E+02  0.7818608E-02  0.1443527E+00
          2   -1    0    0  502    0  0.00000000000E+00  0.00000000000E+00  0.71213934998E+03  0.71213934998E+03  0.00000000000E+00 0. -1.
          1   -1    0    0  501    0 -0.00000000000E+00 -0.00000000000E+00 -0.79293019757E+02  0.79293019757E+02  0.00000000000E+00 0. -1.
         25    2    1    2    0    0 -0.60364056834E+02 -0.92713988216E+01  0.18513190254E+03  0.23157857918E+03  0.12500015521E+03 0.  0.
          2    1    1    2  501    0  0.66269295677E+02  0.42121694046E+02 -0.27702751529E+02  0.83266434420E+02  0.00000000000E+00 0. -1.
          1    1    1    2  502    0 -0.59052388424E+01 -0.32850295224E+02  0.47541717922E+03  0.47658735614E+03  0.00000000000E+00 0. -1.
         22    1    3    3    0    0  0.26347361878E+02 -0.16589611920E+02  0.11696571487E+03  0.12103874238E+03  0.00000000000E+00 0.  1.
         22    1    3    3    0    0 -0.86711418713E+02  0.73182130981E+01  0.68166187674E+02  0.11053983680E+03  0.00000000000E+00 0.  1.
</event>
<event>
 7    1  0.5553952E-006  0.8384463E+02  0.7818608E-02  0.1440557E+00
          2   -1    0    0  502    0  0.00000000000E+00  0.00000000000E+00  0.13008022239E+04  0.13008022239E+04  0.00000000000E+00 0. -1.
          1   -1    0    0  501    0 -0.00000000000E+00 -0.00000000000E+00 -0.17011527864E+04  0.17011527864E+04  0.00000000000E+00 0. -1.
         25    2    1    2    0    0  0.53050275774E+02 -0.10015721158E+03  0.88473384242E+02  0.19052149886E+03  0.12500041207E+03 0.  0.
          2    1    1    2  501    0 -0.32573543608E+02  0.77018873686E+02 -0.16488634366E+04  0.16509826090E+04  0.00000000000E+00 0. -1.
          1    1    1    2  502    0 -0.20476732166E+02  0.23138337891E+02  0.11600394898E+04  0.11604509025E+04  0.00000000000E+00 0. -1.
         22    1    3    3    0    0  0.32986377875E+02 -0.11280901178E+03  0.10813705644E+03  0.15971098034E+03  0.00000000000E+00 0. -1.
         22    1    3    3    0    0  0.20063897899E+02  0.12651800201E+02 -0.19663672200E+02  0.30810518522E+02  0.00000000000E+00 0. -1.
</event>
<event>
 7    1  0.5553952E-006  0.1643778E+03  0.7818608E-02  0.1291639E+00
          2   -1    0    0  502    0  0.00000000000E+00  0.00000000000E+00  0.38296804047E+03  0.38296804047E+03  0.00000000000E+00 0. -1.
          1   -1    0    0  501    0 -0.00000000000E+00 -0.00000000000E+00 -0.57675569048E+03  0.57675569048E+03  0.00000000000E+00 0. -1.
         25    2    1    2    0    0  0.72892288031E+02 -0.15995266302E+03 -0.67681226537E+02  0.22606149179E+03  0.12499963833E+03 0.  0.
          2    1    1    2  501    0  0.37938492167E+02  0.39359613987E+02 -0.40584056876E+03  0.40950589209E+03  0.00000000000E+00 0. -1.
          1    1    1    2  502    0 -0.11083078020E+03  0.12059304903E+03  0.27973414529E+03  0.32415634708E+03  0.00000000000E+00 0. -1.
         22    1    3    3    0    0  0.54355718215E+02 -0.13001624894E+03  0.94866147851E+01  0.14124009683E+03  0.00000000000E+00 0.  1.
         22    1    3    3    0    0  0.18536569816E+02 -0.29936414073E+02 -0.77167841322E+02  0.84821394957E+02  0.00000000000E+00 0.  1.
</event>
<event>
 7    1  0.5553952E-006  0.8853714E+02  0.7818608E-02  0.1307100E+00
          2   -1    0    0  502    0  0.00000000000E+00  0.00000000000E+00  0.75355326030E+02  0.75355326030E+02  0.00000000000E+00 0. -1.
          1   -1    0    0  501    0 -0.00000000000E+00 -0.00000000000E+00 -0.23207437607E+04  0.23207437607E+04  0.00000000000E+00 0. -1.
         25    2    1    2    0    0 -0.22074095414E+02 -0.38083409332E+02 -0.43302073663E+03  0.45284566574E+03  0.12499850745E+03 0.  0.
          2    1    1    2  501    0 -0.55120629666E+02  0.80333014467E+02 -0.18463508050E+04  0.18489194066E+04  0.00000000000E+00 0. -1.
          1    1    1    2  502    0  0.77194725080E+02 -0.42249605135E+02  0.33983106949E+02  0.94334014396E+02  0.00000000000E+00 0. -1.
         22    1    3    3    0    0  0.33503230948E+02 -0.21075768194E+02 -0.34564964095E+03  0.34790850633E+03  0.00000000000E+00 0. -1.
         22    1    3    3    0    0 -0.55577326362E+02 -0.17007641138E+02 -0.87371095681E+02  0.10493715940E+03  0.00000000000E+00 0. -1.
</event>
<event>
 7    1  0.5553952E-006  0.8926480E+02  0.7818608E-02  0.1466586E+00
          2   -1    0    0  502    0  0.00000000000E+00  0.00000000000E+00  0.22189129948E+03  0.22189129948E+03  0.00000000000E+00 0. -1.
          1   -1    0    0  501    0 -0.00000000000E+00 -0.00000000000E+00 -0.17878645789E+04  0.17878645789E+04  0.00000000000E+00 0. -1.
         25    2    1    2    0    0  0.73468480397E+02 -0.19314520434E+01 -0.53367829467E+03  0.55302095507E+03  0.12497322286E+03 0.  0.
          2    1    1    2  501    0 -0.90250645618E+02  0.19060877592E+02 -0.12421218811E+04  0.12455421565E+04  0.00000000000E+00 0. -1.
          1    1    1    2  502    0  0.16782165221E+02 -0.17129425548E+02  0.20982689639E+03  0.21119276677E+03  0.00000000000E+00 0. -1.
         22    1    3    3    0    0  0.39379859177E+02  0.61325891578E+02 -0.25272036401E+03  0.26301943021E+03  0.00000000000E+00 0.  1.
         22    1    3    3    0    0  0.34088621221E+02 -0.63257343622E+02 -0.28095793066E+03  0.29000152486E+03  0.00000000000E+00 0.  1.
</event>
<event>
 7    1  0.5553952E-006  0.2265182E+03  0.7818608E-02  0.1217320E+00
          2   -1    0    0  502    0  0.00000000000E+00  0.00000000000E+00  0.88517893359E+03  0.88517893359E+03  0.00000000000E+00 0. -1.
          1   -1    0    0  501    0 -0.00000000000E+00 -0.00000000000E+00 -0.22860798927E+03  0.22860798927E+03  0.00000000000E+00 0. -1.
         25    2    1    2    0    0  0.24030041387E+03  0.16972257518E+03  0.70480975828E+02  0.32732835074E+03  0.12500495916E+03 0.  0.
          2    1    1    2  501    0 -0.79626524784E+02 -0.23241378079E+02 -0.61553845735E+02  0.10329288954E+03  0.00000000000E+00 0. -1.
          1    1    1    2  502    0 -0.16067388908E+03 -0.14648119710E+03  0.64764381423E+03  0.68316568258E+03  0.00000000000E+00 0. -1.
         22    1    3    3    0    0  0.18833213128E+03  0.73783208124E+02  0.80628094902E+02  0.21774720012E+03  0.00000000000E+00 0.  1.
         22    1    3    3    0    0  0.51968282590E+02  0.95939367052E+02 -0.10147119074E+02  0.10958115062E+03  0.00000000000E+00 0.  1.
</event>
<event>
 7    1  0.5553952E-006  0.6655754E+02  0.7818608E-02  0.1413503E+00
          2   -1    0    0  502    0  0.00000000000E+00  0.00000000000E+00  0.14733626187E+04  0.14733626187E+04  0.00000000000E+00 0. -1.
          1   -1    0    0  501    0 -0.00000000000E+00 -0.00000000000E+00 -0.42579703428E+03  0.42579703428E+03  0.00000000000E+00 0. -1.
         25    2    1    2    0    0 -0.76283805496E+02  0.45998294742E+02  0.15495185697E+03  0.21810362606E+03  0.12499620643E+03 0.  0.
          2    1    1    2  501    0  0.30289791422E+02 -0.59107037808E+02 -0.39097529404E+03  0.39657634061E+03  0.00000000000E+00 0. -1.
          1    1    1    2  502    0  0.45994014074E+02  0.13108743067E+02  0.12835890215E+04  0.12844796863E+04  0.00000000000E+00 0. -1.
         22    1    3    3    0    0 -0.58426262563E+02  0.35893587444E+02  0.72158458174E+01  0.68949591786E+02  0.00000000000E+00 0.  1.
         22    1    3    3    0    0 -0.17857542933E+02  0.10104707298E+02  0.14773601115E+03  0.14915403427E+03  0.00000000000E+00 0.  1.
</event>
<event>
 7    1  0.5553952E-006  0.9334415E+02  0.7818608E-02  0.1420726E+00
          2   -1    0    0  502    0  0.00000000000E+00  0.00000000000E+00  0.70212326491E+03  0.70212326491E+03  0.00000000000E+00 0. -1.
          1   -1    0    0  501    0 -0.00000000000E+00 -0.00000000000E+00 -0.68604733942E+03  0.68604733942E+03  0.00000000000E+00 0. -1.
         25    2    1    2    0    0 -0.38370027582E+02 -0.98730677399E+02 -0.63558075414E+02  0.17573982651E+03  0.12499940798E+03 0.  0.
          2    1    1    2  501    0  0.31716139296E+02  0.58495971135E+01 -0.56257860365E+03  0.56350227733E+03  0.00000000000E+00 0. -1.
          1    1    1    2  502    0  0.66538882859E+01  0.92881080285E+02  0.64221260455E+03  0.64892850049E+03  0.00000000000E+00 0. -1.
         22    1    3    3    0    0 -0.56308241575E+02 -0.56734436898E+02  0.18302913279E+02  0.82002506266E+02  0.00000000000E+00 0. -1.
         22    1    3    3    0    0  0.17938213993E+02 -0.41996240501E+02 -0.81860988692E+02  0.93737320247E+02  0.00000000000E+00 0. -1.
</event>
<event>
 7    1  0.5553952E-006  0.1003636E+03  0.7818608E-02  0.1407826E+00
          2   -1    0    0  502    0  0.00000000000E+00  0.00000000000E+00  0.41336215742E+03  0.41336215742E+03  0.00000000000E+00 0. -1.
          1   -1    0    0  501    0 -0.00000000000E+00 -0.00000000000E+00 -0.26965688183E+04  0.26965688183E+04  0.00000000000E+00 0. -1.
         25    2    1    2    0    0  0.68810959514E+02  0.31728394443E+02 -0.80840666196E+03  0.82151587286E+03  0.12500143641E+03 0.  0.
          2    1    1    2  501    0 -0.10190096694E+03 -0.29714828538E+02 -0.18794321717E+04  0.18824271742E+04  0.00000000000E+00 0. -1.
          1    1    1    2  502    0  0.33090007427E+02 -0.20135659055E+01  0.40463217274E+03  0.40598792871E+03  0.00000000000E+00 0. -1.
         22    1    3    3    0    0 -0.35843981400E+02 -0.10313776148E+01 -0.16755011662E+03  0.17134437931E+03  0.00000000000E+00 0.  1.
         22    1    3    3    0    0  0.10465494091E+03  0.32759772058E+02 -0.64085654534E+03  0.65017149355E+03  0.00000000000E+00 0.  1.
</event>
<event>
 7    1  0.5553952E-006  0.2606369E+02  0.7818608E-02  0.1679728E+00
          2   -1    0    0  502    0  0.00000000000E+00  0.00000000000E+00  0.10069612699E+02  0.10069612699E+02  0.00000000000E+00 0. -1.
          1   -1    0    0  501    0 -0.00000000000E+00 -0.00000000000E+00 -0.10812541925E+04  0.10812541925E+04  0.00000000000E+00 0. -1.
         25    2    1    2    0    0  0.42219427473E+02 -0.39633879183E+01 -0.64948490120E+03  0.66276235802E+03  0.12500047130E+03 0.  0.
          2    1    1    2  501    0 -0.18335058577E+02  0.11476403008E+02 -0.37456716608E+03  0.37519121006E+03  0.00000000000E+00 0. -1.
          1    1    1    2  502    0 -0.23884368897E+02 -0.75130150901E+01 -0.47132512510E+02  0.53370237107E+02  0.00000000000E+00 0. -1.
         22    1    3    3    0    0  0.27171672126E+02  0.21037592951E+01 -0.64547404763E+03  0.64604912487E+03  0.00000000000E+00 0. -1.
         22    1    3    3    0    0  0.15047755347E+02 -0.60671472134E+01 -0.40108535662E+01  0.16713233159E+02  0.00000000000E+00 0. -1.
</event>
<event>
 7    1  0.5553952E-006  0.9300479E+02  0.7818608E-02  0.1312238E+00
          2   -1    0    0  502    0  0.00000000000E+00  0.00000000000E+00  0.85076159330E+03  0.85076159330E+03  0.00000000000E+00 0. -1.
          1   -1    0    0  501    0 -0.00000000000E+00 -0.00000000000E+00 -0.62529096439E+02  0.62529096439E+02  0.00000000000E+00 0. -1.
         25    2    1    2    0    0 -0.74120165887E+02 -0.32102035230E+01  0.38322976594E+03  0.40986132113E+03  0.12496857470E+03 0.  0.
          2    1    1    2  501    0  0.56959452859E+02  0.81302072524E+02  0.92711590169E+01  0.99701357343E+02  0.00000000000E+00 0. -1.
          1    1    1    2  502    0  0.17160713029E+02 -0.78091869001E+02  0.39573157191E+03  0.40372801127E+03  0.00000000000E+00 0. -1.
         22    1    3    3    0    0 -0.80875351619E+02  0.20937659159E+01  0.11026266531E+03  0.13675913760E+03  0.00000000000E+00 0.  1.
         22    1    3    3    0    0  0.67551857316E+01 -0.53039694389E+01  0.27296710063E+03  0.27310218353E+03  0.00000000000E+00 0.  1.
</event>
<event>
 7    1  0.5553952E-006  0.1199202E+03  0.7818608E-02  0.1411897E+00
          2   -1    0    0  502    0  0.00000000000E+00  0.00000000000E+00  0.47047477454E+04  0.47047477454E+04  0.00000000000E+00 0. -1.
          1   -1    0    0  501    0 -0.00000000000E+00 -0.00000000000E+00 -0.45895789524E+02  0.45895789524E+02  0.00000000000E+00 0. -1.
         25    2    1    2    0    0 -0.73926376670E+02  0.74345735645E+02  0.12729404524E+03  0.20693081617E+03  0.12499676455E+03 0.  0.
          2    1    1    2  501    0 -0.25881271073E+02 -0.72495483632E+01  0.28965649239E+02  0.39514617291E+02  0.00000000000E+00 0. -1.
          1    1    1    2  502    0  0.99807647744E+02 -0.67096187281E+02  0.45025922614E+04  0.45041981015E+04  0.00000000000E+00 0. -1.
         22    1    3    3    0    0 -0.90869517035E+01  0.93159050202E+02  0.89763615457E+02  0.12968688440E+03  0.00000000000E+00 0. -1.
         22    1    3    3    0    0 -0.64839424967E+02 -0.18813314557E+02  0.37530429788E+02  0.77243931766E+02  0.00000000000E+00 0. -1.
</event>
<event>
 7    1  0.5553952E-006  0.4391634E+02  0.7818608E-02  0.1496549E+00
          2   -1    0    0  502    0  0.00000000000E+00  0.00000000000E+00  0.52805775282E+03  0.52805775282E+03  0.00000000000E+00 0. -1.
          1   -1    0    0  501    0 -0.00000000000E+00 -0.00000000000E+00 -0.65590755684E+03  0.65590755684E+03  0.00000000000E+00 0. -1.
         25    2    1    2    0    0  0.38357429564E+02  0.90038788224E+01  0.86146664889E+02  0.15683983227E+03  0.12500049151E+03 0.  0.
          2    1    1    2  501    0 -0.32277147611E+02  0.29987178889E+02 -0.61881836198E+03  0.62038472763E+03  0.00000000000E+00 0. -1.
          1    1    1    2  502    0 -0.60802819536E+01 -0.38991057711E+02  0.40482189307E+03  0.40674074977E+03  0.00000000000E+00 0. -1.
         22    1    3    3    0    0  0.97456942450E+01  0.43250366122E+02 -0.14579761227E+02  0.46670570635E+02  0.00000000000E+00 0.  1.
         22    1    3    3    0    0  0.28611735319E+02 -0.34246487299E+02  0.10072642612E+03  0.11016926163E+03  0.00000000000E+00 0.  1.
</event>
<event>
 7    1  0.5553952E-006  0.4352768E+02  0.7818608E-02  0.1547699E+00
          2   -1    0    0  502    0  0.00000000000E+00  0.00000000000E+00  0.56032710224E+03  0.56032710224E+03  0.00000000000E+00 0. -1.
          1   -1    0    0  501    0 -0.00000000000E+00 -0.00000000000E+00 -0.18339330122E+03  0.18339330122E+03  0.00000000000E+00 0. -1.
         25    2    1    2    0    0  0.16320279648E+02  0.40551821925E+01  0.37694267498E+02  0.13163365515E+03  0.12499506124E+03 0.  0.
          2    1    1    2  501    0  0.27783797230E+02 -0.54165909251E+01 -0.13391759636E+03  0.13687659208E+03  0.00000000000E+00 0. -1.
          1    1    1    2  502    0 -0.44104076878E+02  0.13614087326E+01  0.47315712988E+03  0.47521015623E+03  0.00000000000E+00 0. -1.
         22    1    3    3    0    0  0.72878381720E+01 -0.18817604951E+02 -0.42879549667E+02  0.47390617436E+02  0.00000000000E+00 0.  1.
         22    1    3    3    0    0  0.90324414756E+01  0.22872787144E+02  0.80573817165E+02  0.84243037714E+02  0.00000000000E+00 0.  1.
</event>
<event>
 7    1  0.5553952E-006  0.9030478E+02  0.7818608E-02  0.1407215E+00
          2   -1    0    0  502    0  0.00000000000E+00  0.00000000000E+00  0.33493984142E+03  0.33493984142E+03  0.00000000000E+00 0. -1.
          1   -1    0    0  501    0 -0.00000000000E+00 -0.00000000000E+00 -0.56550918563E+03  0.56550918563E+03  0.00000000000E+00 0. -1.
         25    2    1    2    0    0  0.53841403659E+02  0.30200272718E+02  0.60716402024E+02  0.15206387159E+03  0.12500394534E+03 0.  0.
          2    1    1    2  501    0  0.36803279502E+02  0.40059246585E+01 -0.50886523048E+03  0.51021010536E+03  0.00000000000E+00 0. -1.
          1    1    1    2  502    0 -0.90644683161E+02 -0.34206197376E+02  0.21757948424E+03  0.23817505010E+03  0.00000000000E+00 0. -1.
         22    1    3    3    0    0 -0.76785669922E+01 -0.43182181577E+01 -0.33345125159E+02  0.34489197888E+02  0.00000000000E+00 0.  1.
         22    1    3    3    0    0  0.61519970651E+02  0.34518490875E+02  0.94061527183E+02  0.11757467371E+03  0.00000000000E+00 0.  1.
</event>
<event>
 7    1  0.5553952E-006  0.8305945E+02  0.7818608E-02  0.1345464E+00
          2   -1    0    0  502    0  0.00000000000E+00  0.00000000000E+00  0.56583847165E+03  0.56583847165E+03  0.00000000000E+00 0. -1.
          1   -1    0    0  501    0 -0.00000000000E+00 -0.00000000000E+00 -0.32612821180E+04  0.32612821180E+04  0.00000000000E+00 0. -1.
         25    2    1    2    0    0  0.13199815736E+03  0.55932415769E+02 -0.15977328897E+04  0.16090149644E+04  0.12500728091E+03 0.  0.
          2    1    1    2  501    0 -0.49839425559E+02 -0.44479236493E+02 -0.16541594529E+04  0.16555077368E+04  0.00000000000E+00 0. -1.
          1    1    1    2  502    0 -0.82158731796E+02 -0.11453179277E+02  0.55644869626E+03  0.56259788846E+03  0.00000000000E+00 0. -1.
         22    1    3    3    0    0 -0.23122995141E+02 -0.46943219686E+01 -0.18483256529E+03  0.18633246296E+03  0.00000000000E+00 0.  1.
         22    1    3    3    0    0  0.15512115250E+03  0.60626737738E+02 -0.14129003244E+04  0.14226825014E+04  0.00000000000E+00 0.  1.
</event>
<event>
 7    1  0.5553952E-006  0.1204132E+03  0.7818608E-02  0.1277917E+00
          2   -1    0    0  502    0  0.00000000000E+00  0.00000000000E+00  0.39694639455E+03  0.39694639455E+03  0.00000000000E+00 0. -1.
          1   -1    0    0  501    0 -0.00000000000E+00 -0.00000000000E+00 -0.70473054255E+03  0.70473054255E+03  0.00000000000E+00 0. -1.
         25    2    1    2    0    0 -0.78411731763E+02 -0.18224510235E+03  0.63468089644E+01  0.23457671008E+03  0.12499709565E+03 0.  0.
          2    1    1    2  501    0  0.29131357139E+02  0.11304814877E+03 -0.57811481054E+03  0.58978407411E+03  0.00000000000E+00 0. -1.
          1    1    1    2  502    0  0.49280374624E+02  0.69196953580E+02  0.26398385358E+03  0.27731615290E+03  0.00000000000E+00 0. -1.
         22    1    3    3    0    0 -0.11059169684E+03 -0.14475266060E+03  0.20151573624E+02  0.18327559052E+03  0.00000000000E+00 0.  1.
         22    1    3    3    0    0  0.32179965081E+02 -0.37492441751E+02 -0.13804764660E+02  0.51301119563E+02  0.00000000000E+00 0.  1.
</event>
<event>
 7    1  0.5553952E-006  0.7482611E+02  0.7818608E-02  0.1465540E+00
          2   -1    0    0  502    0  0.00000000000E+00  0.00000000000E+00  0.14459432345E+04  0.14459432345E+04  0.00000000000E+00 0. -1.
          1   -1    0    0  501    0 -0.00000000000E+00 -0.00000000000E+00 -0.14822575213E+02  0.14822575213E+02  0.00000000000E+00 0. -1.
         25    2    1    2    0    0  0.46987125649E+02  0.55182003415E+02  0.88607452735E+03  0.89777801824E+03  0.12499783409E+03 0.  0.
          2    1    1    2  501    0  0.21780211506E+02 -0.18879628102E+02  0.28199081339E+02  0.40323766675E+02  0.00000000000E+00 0. -1.
          1    1    1    2  502    0 -0.68767337156E+02 -0.36302375313E+02  0.51684705060E+03  0.52266402481E+03  0.00000000000E+00 0. -1.
         22    1    3    3    0    0 -0.28629842304E+02  0.33883278090E+02  0.58307694362E+03  0.58476188879E+03  0.00000000000E+00 0.  1.
         22    1    3    3    0    0  0.75616967954E+02  0.21298725325E+02  0.30299758373E+03  0.31301612944E+03  0.00000000000E+00 0.  1.
</event>
<event>
 7    1  0.5553952E-006  0.1472624E+03  0.7818608E-02  0.1283505E+00
          2   -1    0    0  502    0  0.00000000000E+00  0.00000000000E+00  0.42886611013E+04  0.42886611013E+04  0.00000000000E+00 0. -1.
          1   -1    0    0  501    0 -0.00000000000E+00 -0.00000000000E+00 -0.24619635538E+03  0.24619635538E+03  0.00000000000E+00 0. -1.
         25    2    1    2    0    0 -0.52624401756E+02  0.19456389334E+03  0.15940224091E+04  0.16115696411E+04  0.12499932385E+03 0.  0.
          2    1    1    2  501    0  0.85149785109E+01 -0.65317315223E+02 -0.23108137715E+03  0.24028620309E+03  0.00000000000E+00 0. -1.
          1    1    1    2  502    0  0.44109423245E+02 -0.12924657812E+03  0.26795237140E+04  0.26830016125E+04  0.00000000000E+00 0. -1.
         22    1    3    3    0    0 -0.30780280157E+01 -0.18329509858E+02  0.12562611422E+03  0.12699356583E+03  0.00000000000E+00 0.  1.
         22    1    3    3    0    0 -0.49546373741E+02  0.21289340320E+03  0.14683962949E+04  0.14845760752E+04  0.00000000000E+00 0.  1.
</event>
<event>
 7    1  0.5553952E-006  0.8404143E+02  0.7818608E-02  0.1471930E+00
          2   -1    0    0  502    0  0.00000000000E+00  0.00000000000E+00  0.14171806193E+04  0.14171806193E+04  0.00000000000E+00 0. -1.
          1   -1    0    0  501    0 -0.00000000000E+00 -0.00000000000E+00 -0.38031131230E+02  0.38031131230E+02  0.00000000000E+00 0. -1.
         25    2    1    2    0    0 -0.53987165385E+02  0.91711114732E+02  0.74995312109E+03  0.76771132801E+03  0.12500182689E+03 0.  0.
          2    1    1    2  501    0  0.38318594452E+02 -0.72859150362E+02  0.29717920316E+02  0.87520998967E+02  0.00000000000E+00 0. -1.
          1    1    1    2  502    0  0.15668570933E+02 -0.18851964370E+02  0.59947844667E+03  0.59997942356E+03  0.00000000000E+00 0. -1.
         22    1    3    3    0    0 -0.66968030021E+02  0.21094429242E+02  0.17926658810E+03  0.19252584658E+03  0.00000000000E+00 0. -1.
         22    1    3    3    0    0  0.12980864636E+02  0.70616685490E+02  0.57068653299E+03  0.57518548143E+03  0.00000000000E+00 0. -1.
</event>
<event>
 7    1  0.5553952E-006  0.4417263E+02  0.7818608E-02  0.1528287E+00
          2   -1    0    0  502    0  0.00000000000E+00  0.00000000000E+00  0.27975581809E+04  0.27975581809E+04  0.00000000000E+00 0. -1.
          1   -1    0    0  501    0 -0.00000000000E+00 -0.00000000000E+00 -0.51253067828E+02  0.51253067828E+02  0.00000000000E+00 0. -1.
         25    2    1    2    0    0  0.29922281185E+02  0.11389789841E+02  0.60278505238E+03  0.61644201998E+03  0.12500349755E+03 0.  0.
          2    1    1    2  501    0 -0.40582597497E+02  0.18422727548E+02 -0.33102229250E+02  0.55516679397E+02  0.00000000000E+00 0. -1.
          1    1    1    2  502    0  0.10660316311E+02 -0.29812517390E+02  0.21766222900E+04  0.21768525494E+04  0.00000000000E+00 0. -1.
         22    1    3    3    0    0 -0.53625908865E+01  0.39616643270E+02  0.52473437558E+03  0.52625507192E+03  0.00000000000E+00 0. -1.
         22    1    3    3    0    0  0.35284872072E+02 -0.28226853429E+02  0.78050676798E+02  0.90186948059E+02  0.00000000000E+00 0. -1.
</event>
<event>
 7    1  0.5553952E-006  0.5968803E+02  0.7818608E-02  0.1404355E+00
          2   -1    0    0  502    0  0.00000000000E+00  0.00000000000E+00  0.12624348184E+03  0.12624348184E+03  0.00000000000E+00 0. -1.
          1   -1    0    0  501    0 -0.00000000000E+00 -0.00000000000E+00 -0.53422719252E+03  0.53422719252E+03  0.00000000000E+00 0. -1.
         25    2    1    2    0    0 -0.56250563790E+02  0.71099882911E+02 -0.40345194292E+03  0.43199345226E+03  0.12500221307E+03 0.  0.
          2    1    1    2  501    0 -0.15591372698E+01 -0.57261012356E+02 -0.10044891800E+03  0.11563407617E+03  0.00000000000E+00 0. -1.
          1    1    1    2  502    0  0.57809701060E+02 -0.13838870555E+02  0.95917150232E+02  0.11284314593E+03  0.00000000000E+00 0. -1.
         22    1    3    3    0    0 -0.22948742583E+02  0.10022461580E+03 -0.33556132589E+03  0.35096014280E+03  0.00000000000E+00 0.  1.
         22    1    3    3    0    0 -0.33301821207E+02 -0.29124732890E+02 -0.67890617026E+02  0.81033309458E+02  0.00000000000E+00 0.  1.
</event>
<event>
 7    1  0.5553952E-006  0.4364801E+02  0.7818608E-02  0.1508127E+00
          2   -1    0    0  502    0  0.00000000000E+00  0.00000000000E+00  0.14528419854E+04  0.14528419854E+04  0.00000000000E+00 0. -1.
          1   -1    0    0  501    0 -0.00000000000E+00 -0.00000000000E+00 -0.47965824262E+02  0.47965824262E+02  0.00000000000E+00 0. -1.
         25    2    1    2    0    0 -0.17443091306E+02  0.68684857418E+02  0.13038589090E+03  0.19402965693E+03  0.12500062460E+03 0.  0.
          2    1    1    2  501    0  0.23368549178E+02 -0.32488851782E+02  0.93390795853E+01  0.41095413227E+02  0.00000000000E+00 0. -1.
          1    1    1    2  502    0 -0.59254578721E+01 -0.36196005636E+02  0.12651511906E+04  0.12656827395E+04  0.00000000000E+00 0. -1.
         22    1    3    3    0    0 -0.73409285045E+01  0.91627102257E+02  0.13974931372E+03  0.16727009829E+03  0.00000000000E+00 0.  1.
         22    1    3    3    0    0 -0.10102162801E+02 -0.22942244839E+02 -0.93634228160E+01  0.26759558635E+02  0.00000000000E+00 0.  1.
</event>
<event>
 7    1  0.5553952E-006  0.3269810E+02  0.7818608E-02  0.1634601E+00
          2   -1    0    0  502    0  0.00000000000E+00  0.00000000000E+00  0.34359549305E+02  0.34359549305E+02  0.00000000000E+00 0. -1.
          1   -1    0    0  501    0 -0.00000000000E+00 -0.00000000000E+00 -0.70143619689E+03  0.70143619689E+03  0.00000000000E+00 0. -1.
         25    2    1    2    0    0  0.56050624194E+01 -0.19561728568E+02 -0.23826434525E+03  0.26983181225E+03  0.12500092292E+03 0.  0.
          2    1    1    2  501    0  0.22191778369E+02  0.45634291617E+00 -0.43155282054E+03  0.43212326967E+03  0.00000000000E+00 0. -1.
          1    1    1    2  502    0 -0.27796840788E+02  0.19105385652E+02  0.27405182075E+01  0.33840664278E+02  0.00000000000E+00 0. -1.
         22    1    3    3    0    0 -0.15019323839E+01 -0.70521406879E+02 -0.17225686879E+03  0.18613960748E+03  0.00000000000E+00 0. -1.
         22    1    3    3    0    0  0.71069948033E+01  0.50959678311E+02 -0.66007476463E+02  0.83692204760E+02  0.00000000000E+00 0. -1.
</event>
<event>
 7    1  0.5553952E-006  0.1253809E+03  0.7818608E-02  0.1316635E+00
          2   -1    0    0  502    0  0.00000000000E+00  0.00000000000E+00  0.58929770476E+03  0.58929770476E+03  0.00000000000E+00 0. -1.
          1   -1    0    0  501    0 -0.00000000000E+00 -0.00000000000E+00 -0.80694808590E+03  0.80694808590E+03  0.00000000000E+00 0. -1.
         25    2    1    2    0    0 -0.11292314006E+03 -0.14109560320E+03  0.10835064171E+03  0.24499908819E+03  0.12500034740E+03 0.  0.
          2    1    1    2  501    0  0.75966062274E+02  0.97693748607E+02 -0.73143228248E+03  0.74182753723E+03  0.00000000000E+00 0. -1.
          1    1    1    2  502    0  0.36957077783E+02  0.43401854598E+02  0.40543125963E+03  0.40941916524E+03  0.00000000000E+00 0. -1.
         22    1    3    3    0    0 -0.68034677573E+02 -0.15769034457E+03  0.81099337926E+02  0.18992647192E+03  0.00000000000E+00 0. -1.
         22    1    3    3    0    0 -0.44888462485E+02  0.16594741366E+02  0.27251303787E+02  0.55072616274E+02  0.00000000000E+00 0. -1.
</event>
<event>
 7    1  0.5553952E-006  0.6199114E+02  0.7818608E-02  0.1459800E+00
          2   -1    0    0  502    0  0.00000000000E+00  0.00000000000E+00  0.12641470450E+04  0.12641470450E+04  0.00000000000E+00 0. -1.
          1   -1    0    0  501    0 -0.00000000000E+00 -0.00000000000E+00 -0.19482468497E+04  0.19482468497E+04  0.00000000000E+00 0. -1.
         25    2    1    2    0    0 -0.22918863600E+02 -0.33791951801E+02  0.11835036409E+03  0.17691750095E+03  0.12500329254E+03 0.  0.
          2    1    1    2  501    0 -0.35008936836E+02  0.94714264198E+01 -0.19179079020E+04  0.19182507798E+04  0.00000000000E+00 0. -1.
          1    1    1    2  502    0  0.57927800436E+02  0.24320525381E+02  0.11154577332E+04  0.11172256140E+04  0.00000000000E+00 0. -1.
         22    1    3    3    0    0  0.42645394106E+02 -0.35963197340E+02  0.21167551755E+02  0.59666124800E+02  0.00000000000E+00 0. -1.
         22    1    3    3    0    0 -0.65564257706E+02  0.21712455395E+01  0.97182812338E+02  0.11725137615E+03  0.00000000000E+00 0. -1.
</event>
<event>
 7    1  0.5553952E-006  0.1333420E+03  0.7818608E-02  0.1279451E+00
          2   -1    0    0  502    0  0.00000000000E+00  0.00000000000E+00  0.96653675370E+03  0.96653675370E+03  0.00000000000E+00 0. -1.
          1   -1    0    0  501    0 -0.00000000000E+00 -0.00000000000E+00 -0.34490758652E+03  0.34490758652E+03  0.00000000000E+00 0. -1.
         25    2    1    2    0    0 -0.12163979340E+03  0.11843914874E+03 -0.22245930214E+03  0.30649155681E+03  0.12499944796E+03 0.  0.
          2    1    1    2  501    0  0.93812999004E+02 -0.48145690986E+02 -0.43561020586E+02  0.11408965272E+03  0.00000000000E+00 0. -1.
          1    1    1    2  502    0  0.27826794398E+02 -0.70293457758E+02  0.88764948991E+03  0.89086313069E+03  0.00000000000E+00 0. -1.
         22    1    3    3    0    0 -0.82252693929E+02 -0.26882815773E+01 -0.71883375779E+02  0.10927008845E+03  0.00000000000E+00 0.  1.
         22    1    3    3    0    0 -0.39387099474E+02  0.12112743032E+03 -0.15057592636E+03  0.19722146836E+03  0.00000000000E+00 0.  1.
</event>
<event>
 7    1  0.5553952E-006  0.8796369E+02  0.7818608E-02  0.1358307E+00
          2   -1    0    0  502    0  0.00000000000E+00  0.00000000000E+00  0.17329445742E+04  0.17329445742E+04  0.00000000000E+00 0. -1.
          1   -1    0    0  501    0 -0.00000000000E+00 -0.00000000000E+00 -0.51310990080E+02  0.51310990080E+02  0.00000000000E+00 0. -1.
         25    2    1    2    0    0 -0.49025145410E+02 -0.11512123719E+03  0.46140922546E+03  0.49414611846E+03  0.12500219565E+03 0.  0.
          2    1    1    2  501    0  0.60188945689E+02  0.59686019343E+02  0.18125647692E+02  0.86681423572E+02  0.00000000000E+00 0. -1.
          1    1    1    2  502    0 -0.11163800280E+02  0.55435217851E+02  0.12020987110E+04  0.12034280223E+04  0.00000000000E+00 0. -1.
         22    1    3    3    0    0  0.23813417906E+02  0.36313054522E+01  0.20109135639E+02  0.31379015086E+02  0.00000000000E+00 0.  1.
         22    1    3    3    0    0 -0.72838563316E+02 -0.11875254265E+03  0.44130008982E+03  0.46276710337E+03  0.00000000000E+00 0.  1.
</event>
<event>
 7    1  0.5553952E-006  0.8074017E+02  0.7818608E-02  0.1499308E+00
          2   -1    0    0  502    0  0.00000000000E+00  0.00000000000E+00  0.93012601009E+03  0.93012601009E+03  0.00000000000E+00 0. -1.
          1   -1    0    0  501    0 -0.00000000000E+00 -0.00000000000E+00 -0.73778610660E+03  0.73778610660E+03  0.00000000000E+00 0. -1.
         25    2    1    2    0    0  0.82053613327E+02  0.49910748385E+02 -0.25999224480E+03  0.30404752838E+03  0.12500021558E+03 0.  0.
          2    1    1    2  501    0 -0.60999257428E+02 -0.49415297876E+02 -0.45226229915E+03  0.45902501926E+03  0.00000000000E+00 0. -1.
          1    1    1    2  502    0 -0.21054355898E+02 -0.49545050891E+00  0.90459444744E+03  0.90483956905E+03  0.00000000000E+00 0. -1.
         22    1    3    3    0    0 -0.25919631542E+02  0.17062099330E+02 -0.12146438678E+03  0.12536562443E+03  0.00000000000E+00 0.  1.
         22    1    3    3    0    0  0.10797324487E+03  0.32848649054E+02 -0.13852785802E+03  0.17868190395E+03  0.00000000000E+00 0.  1.
</event>
<event>
 7    1  0.5553952E-006  0.1324011E+03  0.7818608E-02  0.1286849E+00
          2   -1    0    0  502    0  0.00000000000E+00  0.00000000000E+00  0.21580350923E+04  0.21580350923E+04  0.00000000000E+00 0. -1.
          1   -1    0    0  501    0 -0.00000000000E+00 -0.00000000000E+00 -0.37244573932E+03  0.37244573932E+03  0.00000000000E+00 0. -1.
         25    2    1    2    0    0 -0.67178402244E+02  0.15548780693E+03  0.65739488030E+02  0.22053921795E+03  0.12500588201E+03 0.  0.
          2    1    1    2  501    0  0.93917092266E+02 -0.89728522152E+02 -0.28008980466E+03  0.30874249235E+03  0.00000000000E+00 0. -1.
          1    1    1    2  502    0 -0.26738690022E+02 -0.65759284773E+02  0.19999396696E+04  0.20011991213E+04  0.00000000000E+00 0. -1.
         22    1    3    3    0    0 -0.61314728332E+02  0.12538303581E+03  0.10212995832E+03  0.17294776658E+03  0.00000000000E+00 0. -1.
         22    1    3    3    0    0 -0.58636739119E+01  0.30104771118E+02 -0.36390470290E+02  0.47591451372E+02  0.00000000000E+00 0. -1.
</event>
<event>
 7    1  0.5553952E-006  0.1230118E+03  0.7818608E-02  0.1258236E+00
          2   -1    0    0  502    0  0.00000000000E+00  0.00000000000E+00  0.37043684694E+03  0.37043684694E+03  0.00000000000E+00 0. -1.
          1   -1    0    0  501    0 -0.00000000000E+00 -0.00000000000E+00 -0.21507151667E+04  0.21507151667E+04  0.00000000000E+00 0. -1.
         25    2    1    2    0    0  0.14140627872E+03  0.10029104346E+03 -0.11426685515E+04  0.11624858540E+04  0.12501165149E+03 0.  0.
          2    1    1    2  501    0 -0.99499286621E+02  0.15169158433E+02 -0.98503675992E+03  0.99016545577E+03  0.00000000000E+00 0. -1.
          1    1    1    2  502    0 -0.41906992097E+02 -0.11546020189E+03  0.34742699169E+03  0.36850070388E+03  0.00000000000E+00 0. -1.
         22    1    3    3    0    0  0.20490870369E+02 -0.14519174269E+01 -0.50885123375E+03  0.50926570856E+03  0.00000000000E+00 0. -1.
         22    1    3    3    0    0  0.12091540835E+03  0.10174296089E+03 -0.63381731776E+03  0.65322014540E+03  0.00000000000E+00 0. -1.
</event>
<event>
 7    1  0.6604925E-006  0.8465116E+02  0.7818608E-02  0.1423944E+00
          2   -1    0    0  502    0  0.00000000000E+00  0.00000000000E+00  0.13093005440E+04  0.13093005440E+04  0.00000000000E+00 0. -1.
          1   -1    0    0  501    0 -0.00000000000E+00 -0.00000000000E+00 -0.17004953954E+04  0.17004953954E+04  0.00000000000E+00 0. -1.
         25    2    1    2    0    0 -0.79099423795E+02 -0.17557709699E+02 -0.36298797518E+03  0.39236535923E+03  0.12500125194E+03 0.  0.
          2    1    1    2  501    0  0.68937329799E+02  0.50732909774E+02 -0.13212011820E+04  0.13239708256E+04  0.00000000000E+00 0. -1.
          1    1    1    2  502    0  0.10162093997E+02 -0.33175200075E+02  0.12929943058E+04  0.12934597547E+04  0.00000000000E+00 0. -1.
         22    1    3    3    0    0 -0.12549505321E+02 -0.40209328569E+02 -0.29196745287E+02  0.51251635322E+02  0.00000000000E+00 0. -1.
         22    1    3    3    0    0 -0.66549918475E+02  0.22651618871E+02 -0.33379122989E+03  0.34111372391E+03  0.00000000000E+00 0. -1.
</event>
<event>
 7    1  0.5553952E-006  0.4886813E+02  0.7818608E-02  0.1482883E+00
          2   -1    0    0  502    0  0.00000000000E+00  0.00000000000E+00  0.52679730695E+03  0.52679730695E+03  0.00000000000E+00 0. -1.
          1   -1    0    0  501    0 -0.00000000000E+00 -0.00000000000E+00 -0.18939469292E+03  0.18939469292E+03  0.00000000000E+00 0. -1.
         25    2    1    2    0    0 -0.92519077834E+01 -0.13212630790E+02 -0.36816671079E+02  0.13130138321E+03  0.12499765819E+03 0.  0.
          2    1    1    2  501    0  0.14106295428E+02  0.51916866375E+02 -0.97608584254E+02  0.11145305875E+03  0.00000000000E+00 0. -1.
          1    1    1    2  502    0 -0.48543876443E+01 -0.38704235585E+02  0.47182786936E+03  0.47343755791E+03  0.00000000000E+00 0. -1.
         22    1    3    3    0    0 -0.49198954297E+02  0.33124741007E+02 -0.37402068029E+02  0.70119186130E+02  0.00000000000E+00 0.  1.
         22    1    3    3    0    0  0.39947046513E+02 -0.46337371797E+02  0.58539695064E+00  0.61182197082E+02  0.00000000000E+00 0.  1.
</event>
<event>
 7    1  0.5553952E-006  0.8727760E+02  0.7818608E-02  0.1490453E+00
          2   -1    0    0  502    0  0.00000000000E+00  0.00000000000E+00  0.89321512237E+03  0.89321512237E+03  0.00000000000E+00 0. -1.
          1   -1    0    0  501    0 -0.00000000000E+00 -0.00000000000E+00 -0.20563460724E+03  0.20563460724E+03  0.00000000000E+00 0. -1.
         25    2    1    2    0    0 -0.66282001646E+02  0.13637655961E+02 -0.96845257704E+02  0.17199986655E+03  0.12500264297E+03 0.  0.
          2    1    1    2  501    0 -0.20587537600E+02 -0.22845660854E+01 -0.67410054598E+02  0.70520787060E+02  0.00000000000E+00 0. -1.
          1    1    1    2  502    0  0.86869539246E+02 -0.11353089875E+02  0.85183582744E+03  0.85632907600E+03  0.00000000000E+00 0. -1.
         22    1    3    3    0    0 -0.36018247484E+01  0.62347746730E+02 -0.37026383218E+02  0.72602807921E+02  0.00000000000E+00 0.  1.
         22    1    3    3    0    0 -0.62680176898E+02 -0.48710090769E+02 -0.59818874485E+02  0.99397058625E+02  0.00000000000E+00 0.  1.
</event>
<event>
 7    1  0.5553952E-006  0.8752314E+02  0.7818608E-02  0.1488762E+00
          2   -1    0    0  502    0  0.00000000000E+00  0.00000000000E+00  0.50333847668E+03  0.50333847668E+03  0.00000000000E+00 0. -1.
          1   -1    0    0  501    0 -0.00000000000E+00 -0.00000000000E+00 -0.30131877282E+03  0.30131877282E+03  0.00000000000E+00 0. -1.
         25    2    1    2    0    0 -0.47340919348E+02  0.94141588466E+02 -0.37483372583E+02  0.16773010131E+03  0.12499832935E+03 0.  0.
          2    1    1    2  501    0  0.34272656906E+02 -0.77830355675E+02 -0.18934704434E+03  0.20756801891E+03  0.00000000000E+00 0. -1.
          1    1    1    2  502    0  0.13068262443E+02 -0.16311232791E+02  0.42885012078E+03  0.42935912927E+03  0.00000000000E+00 0. -1.
         22    1    3    3    0    0 -0.54229913289E+02  0.11861615892E+03 -0.10797873874E+02  0.13087119902E+03  0.00000000000E+00 0. -1.
         22    1    3    3    0    0  0.68889939406E+01 -0.24474570456E+02 -0.26685498709E+02  0.36858902288E+02  0.00000000000E+00 0. -1.
</event>
<event>
 7    1  0.5553952E-006  0.7003661E+02  0.7818608E-02  0.1412243E+00
          2   -1    0    0  502    0  0.00000000000E+00  0.00000000000E+00  0.47896733895E+03  0.47896733895E+03  0.00000000000E+00 0. -1.
          1   -1    0    0  501    0 -0.00000000000E+00 -0.00000000000E+00 -0.31837578123E+03  0.31837578123E+03  0.00000000000E+00 0. -1.
         25    2    1    2    0    0 -0.69817218695E+02  0.21778878369E+02 -0.50635190510E+02  0.15340059473E+03  0.12497622325E+03 0.  0.
          2    1    1    2  501    0  0.29025754556E+02  0.35553246499E+02 -0.21097910930E+03  0.21591366869E+03  0.00000000000E+00 0. -1.
          1    1    1    2  502    0  0.40791464139E+02 -0.57332124868E+02  0.42220585753E+03  0.42802885676E+03  0.00000000000E+00 0. -1.
         22    1    3    3    0    0 -0.72446808270E+02  0.59791158202E+02 -0.51640478896E+01  0.94075448542E+02  0.00000000000E+00 0.  1.
         22    1    3    3    0    0  0.26295895757E+01 -0.38012279833E+02 -0.45471142620E+02  0.59325146192E+02  0.00000000000E+00 0.  1.
</event>
<event>
 7    1  0.8184236E-006  0.6700654E+02  0.7818608E-02  0.1370716E+00
          2   -1    0    0  502    0  0.00000000000E+00  0.00000000000E+00  0.67005530972E+03  0.67005530972E+03  0.00000000000E+00 0. -1.
          1   -1    0    0  501    0 -0.00000000000E+00 -0.00000000000E+00 -0.75853531456E+03  0.75853531456E+03  0.00000000000E+00 0. -1.
         25    2    1    2    0    0  0.36029099372E+00  0.77819419725E+01 -0.23436883841E+03  0.26573431140E+03  0.12500113362E+03 0.  0.
          2    1    1    2  501    0 -0.66959267425E+02  0.25164282440E+01 -0.50452772868E+03  0.50895786163E+03  0.00000000000E+00 0. -1.
          1    1    1    2  502    0  0.66598976431E+02 -0.10298370217E+02  0.65041656225E+03  0.65389845125E+03  0.00000000000E+00 0. -1.
         22    1    3    3    0    0  0.12376021965E+02  0.24684789130E+02  0.27136593581E+01  0.27746507550E+02  0.00000000000E+00 0.  1.
         22    1    3    3    0    0 -0.12015730972E+02 -0.16902847158E+02 -0.23708249777E+03  0.23798780385E+03  0.00000000000E+00 0.  1.
</event>
<event>
 7    1  0.5553952E-006  0.3300451E+03  0.7818608E-02  0.1275920E+00
          2   -1    0    0  502    0  0.00000000000E+00  0.00000000000E+00  0.41235748683E+03  0.41235748683E+03  0.00000000000E+00 0. -1.
          1   -1    0    0  501    0 -0.00000000000E+00 -0.00000000000E+00 -0.19323134417E+04  0.19323134417E+04  0.00000000000E+00 0. -1.
         25    2    1    2    0    0  0.30893181634E+03  0.58531766003E+01 -0.38788232662E+03  0.51142073787E+03  0.12500137999E+03 0.  0.
          2    1    1    2  501    0 -0.33651077173E+03  0.95548772559E+01 -0.14627901429E+04  0.15010282467E+04  0.00000000000E+00 0. -1.
          1    1    1    2  502    0  0.27578955393E+02 -0.15408053856E+02  0.33071651472E+03  0.33222194391E+03  0.00000000000E+00 0. -1.
         22    1    3    3    0    0  0.19466631601E+03 -0.19301398275E+02 -0.32303718284E+03  0.37765134723E+03  0.00000000000E+00 0. -1.
         22    1    3    3    0    0  0.11426550033E+03  0.25154574876E+02 -0.64845143780E+02  0.13376939065E+03  0.00000000000E+00 0. -1.
</event>
<event>
 7    1  0.5553952E-006  0.8473136E+02  0.7818608E-02  0.1393722E+00
          2   -1    0    0  502    0  0.00000000000E+00  0.00000000000E+00  0.84206801463E+02  0.84206801463E+02  0.00000000000E+00 0. -1.
          1   -1    0    0  501    0 -0.00000000000E+00 -0.00000000000E+00 -0.19556022983E+04  0.19556022983E+04  0.00000000000E+00 0. -1.
         25    2    1    2    0    0 -0.10116830257E+03  0.72003027461E+02 -0.57348531038E+03  0.59993997698E+03  0.12499245314E+03 0.  0.
          2    1    1    2  501    0  0.61752728391E+02 -0.52670348851E+02 -0.13607744485E+04  0.13631928201E+04  0.00000000000E+00 0. -1.
          1    1    1    2  502    0  0.39415574183E+02 -0.19332678610E+02  0.62864262042E+02  0.76676302678E+02  0.00000000000E+00 0. -1.
         22    1    3    3    0    0 -0.26284923508E+02  0.24780633975E+02 -0.42879941722E+03  0.43031839054E+03  0.00000000000E+00 0.  1.
         22    1    3    3    0    0 -0.74883379066E+02  0.47222393486E+02 -0.14468589316E+03  0.16962158644E+03  0.00000000000E+00 0.  1.
</event>
<event>
 7    1  0.5553952E-006  0.4455840E+02  0.7818608E-02  0.1507047E+00
          2   -1    0    0  502    0  0.00000000000E+00  0.00000000000E+00  0.58828401426E+02  0.58828401426E+02  0.00000000000E+00 0. -1.
          1   -1    0    0  501    0 -0.00000000000E+00 -0.00000000000E+00 -0.19076185018E+04  0.19076185018E+04  0.00000000000E+00 0. -1.
         25    2    1    2    0    0  0.65171357800E+02 -0.30425412540E+02 -0.10458092718E+04  0.10557058970E+04  0.12499958539E+03 0.  0.
          2    1    1    2  501    0 -0.36063387146E+02 -0.30654096118E+01 -0.84727298342E+03  0.84804567864E+03  0.00000000000E+00 0. -1.
          1    1    1    2  502    0 -0.29107970654E+02  0.33490822151E+02  0.44292154834E+02  0.62695327608E+02  0.00000000000E+00 0. -1.
         22    1    3    3    0    0  0.91501091336E+02 -0.25678888940E+02 -0.48299329672E+03  0.49225438518E+03  0.00000000000E+00 0.  1.
         22    1    3    3    0    0 -0.26329733536E+02 -0.47465235995E+01 -0.56281597505E+03  0.56345151178E+03  0.00000000000E+00 0.  1.
</event>
<event>
 7    1  0.5553952E-006  0.4442096E+02  0.7818608E-02  0.1508031E+00
          2   -1    0    0  502    0  0.00000000000E+00  0.00000000000E+00  0.96749650183E+03  0.96749650183E+03  0.00000000000E+00 0. -1.
          1   -1    0    0  501    0 -0.00000000000E+00 -0.00000000000E+00 -0.11544199257E+03  0.11544199257E+03  0.00000000000E+00 0. -1.
         25    2    1    2    0    0  0.18974113909E+02 -0.11478251798E+02  0.19540215215E+03  0.23302041029E+03  0.12499897314E+03 0.  0.
          2    1    1    2  501    0 -0.42216923275E+02 -0.16095710281E+02 -0.90893136116E+02  0.10150321519E+03  0.00000000000E+00 0. -1.
          1    1    1    2  502    0  0.23242809366E+02  0.27573962079E+02  0.74754549323E+03  0.74841486892E+03  0.00000000000E+00 0. -1.
         22    1    3    3    0    0  0.10797390085E+02 -0.33180410877E+02 -0.13374356137E+01  0.34918648780E+02  0.00000000000E+00 0.  1.
         22    1    3    3    0    0  0.81767238239E+01  0.21702159079E+02  0.19673958776E+03  0.19810176151E+03  0.00000000000E+00 0.  1.
</event>
<event>
 7    1  0.5553952E-006  0.1467496E+03  0.7818608E-02  0.1403268E+00
          2   -1    0    0  502    0  0.00000000000E+00  0.00000000000E+00  0.57536680211E+03  0.57536680211E+03  0.00000000000E+00 0. -1.
          1   -1    0    0  501    0 -0.00000000000E+00 -0.00000000000E+00 -0.14743429893E+03  0.14743429893E+03  0.00000000000E+00 0. -1.
         25    2    1    2    0    0 -0.10928208607E+03 -0.11884205934E+03  0.13750445986E+03  0.24616049987E+03  0.12498602247E+03 0.  0.
          2    1    1    2  501    0  0.24687022694E+01  0.23368895541E+02 -0.77934378807E+02  0.81400044040E+02  0.00000000000E+00 0. -1.
          1    1    1    2  502    0  0.10681338380E+03  0.95473163799E+02  0.36836242212E+03  0.39524055713E+03  0.00000000000E+00 0. -1.
         22    1    3    3    0    0 -0.25725928504E+02  0.23751959723E+02  0.44138190516E+02  0.56339673855E+02  0.00000000000E+00 0. -1.
         22    1    3    3    0    0 -0.83556157564E+02 -0.14259401906E+03  0.93366269340E+02  0.18982082602E+03  0.00000000000E+00 0. -1.
</event>
<event>
 7    1  0.5553952E-006  0.1705700E+03  0.7818608E-02  0.1296279E+00
          2   -1    0    0  502    0  0.00000000000E+00  0.00000000000E+00  0.14920110857E+04  0.14920110857E+04  0.00000000000E+00 0. -1.
          1   -1    0    0  501    0 -0.00000000000E+00 -0.00000000000E+00 -0.71523782414E+03  0.71523782414E+03  0.00000000000E+00 0. -1.
         25    2    1    2    0    0  0.12056013808E+03  0.10815772228E+03  0.37280395038E+02  0.20795725258E+03  0.12499420492E+03 0.  0.
          2    1    1    2  501    0 -0.32181464684E+02  0.38860808420E+02 -0.62350434184E+03  0.62554254324E+03  0.00000000000E+00 0. -1.
          1    1    1    2  502    0 -0.88378673392E+02 -0.14701853070E+03  0.13629972083E+04  0.13737491140E+04  0.00000000000E+00 0. -1.
         22    1    3    3    0    0 -0.15381274085E+02 -0.12454469953E+02 -0.68470328457E+01  0.20942284333E+02  0.00000000000E+00 0. -1.
         22    1    3    3    0    0  0.13594141216E+03  0.12061219223E+03  0.44127427884E+02  0.18701496824E+03  0.00000000000E+00 0. -1.
</event>
<event>
 7    1  0.5553952E-006  0.6103449E+02  0.7818608E-02  0.1539978E+00
          2   -1    0    0  502    0  0.00000000000E+00  0.00000000000E+00  0.10551089437E+04  0.10551089437E+04  0.00000000000E+00 0. -1.
          1   -1    0    0  501    0 -0.00000000000E+00 -0.00000000000E+00 -0.46513338584E+03  0.46513338584E+03  0.00000000000E+00 0. -1.
         25    2    1    2    0    0 -0.39901672441E+02 -0.90023291190E+01  0.25661029208E+03  0.28835136883E+03  0.12499793803E+03 0.  0.
          2    1    1    2  501    0  0.60901950100E+02  0.59394242306E+01 -0.44703432873E+03  0.45120285388E+03  0.00000000000E+00 0. -1.
          1    1    1    2  502    0 -0.21000277659E+02  0.30629048884E+01  0.78039959446E+03  0.78068810679E+03  0.00000000000E+00 0. -1.
         22    1    3    3    0    0 -0.76980787201E+02  0.24477260289E+02  0.14290631855E+03  0.16415661348E+03  0.00000000000E+00 0.  1.
         22    1    3    3    0    0  0.37079114761E+02 -0.33479589408E+02  0.11370397354E+03  0.12419475535E+03  0.00000000000E+00 0.  1.
</event>
<event>
 7    1  0.5553952E-006  0.1089250E+03  0.7818608E-02  0.1412308E+00
          2   -1    0    0  502    0  0.00000000000E+00  0.00000000000E+00  0.33668471061E+03  0.33668471061E+03  0.00000000000E+00 0. -1.
          1   -1    0    0  501    0 -0.00000000000E+00 -0.00000000000E+00 -0.19754577489E+03  0.19754577489E+03  0.00000000000E+00 0. -1.
         25    2    1    2    0    0 -0.89118834905E+02 -0.27107427774E+02  0.95536558158E+02  0.18283582592E+03  0.12499890368E+03 0.  0.
          2    1    1    2  501    0 -0.25737859717E+02  0.14407427230E+02 -0.13526663185E+03  0.13844519881E+03  0.00000000000E+00 0. -1.
          1    1    1    2  502    0  0.11485669462E+03  0.12700000544E+02  0.17886900941E+03  0.21294946077E+03  0.00000000000E+00 0. -1.
         22    1    3    3    0    0  0.17241545528E+02  0.20016532418E+02 -0.74696524133E+01  0.27454110247E+02  0.00000000000E+00 0.  1.
         22    1    3    3    0    0 -0.10636038043E+03 -0.47123960192E+02  0.10300621057E+03  0.15538171568E+03  0.00000000000E+00 0.  1.
</event>
<event>
 7    1  0.5553952E-006  0.7921505E+02  0.7818608E-02  0.1396768E+00
          2   -1    0    0  502    0  0.00000000000E+00  0.00000000000E+00  0.67593857446E+03  0.67593857446E+03  0.00000000000E+00 0. -1.
          1   -1    0    0  501    0 -0.00000000000E+00 -0.00000000000E+00 -0.28099808182E+04  0.28099808182E+04  0.00000000000E+00 0. -1.
         25    2    1    2    0    0  0.86590226718E+02 -0.71915937686E+02  0.31897941579E+02  0.17120743404E+03  0.12499894934E+03 0.  0.
          2    1    1    2  501    0 -0.45508994312E+02  0.54294501802E+01 -0.27374748207E+04  0.27378584590E+04  0.00000000000E+00 0. -1.
          1    1    1    2  502    0 -0.41081232407E+02  0.66486487506E+02  0.57153463535E+03  0.57685349967E+03  0.00000000000E+00 0. -1.
         22    1    3    3    0    0  0.11039628874E+03 -0.82750078328E+02  0.12280374762E+02  0.13851253963E+03  0.00000000000E+00 0.  1.
         22    1    3    3    0    0 -0.23806062023E+02  0.10834140642E+02  0.19617566816E+02  0.32694894407E+02  0.00000000000E+00 0.  1.
</event>
<event>
 7    1  0.5553952E-006  0.8442734E+02  0.7818608E-02  0.1360614E+00
          2   -1    0    0  502    0  0.00000000000E+00  0.00000000000E+00  0.17139401660E+04  0.17139401660E+04  0.00000000000E+00 0. -1.
          1   -1    0    0  501    0 -0.00000000000E+00 -0.00000000000E+00 -0.26107428575E+03  0.26107428575E+03  0.00000000000E+00 0. -1.
         25    2    1    2    0    0 -0.11941314549E+03 -0.58566379781E+02  0.98153792166E+02  0.20724005941E+03  0.12499902059E+03 0.  0.
          2    1    1    2  501    0  0.37104823254E+02  0.44298083617E+02 -0.20134690342E+03  0.20947473270E+03  0.00000000000E+00 0. -1.
          1    1    1    2  502    0  0.82308322241E+02  0.14268296165E+02  0.15560589915E+04  0.15582996597E+04  0.00000000000E+00 0. -1.
         22    1    3    3    0    0 -0.15152197819E+02 -0.67140324070E+02  0.71583511939E+02  0.99305646347E+02  0.00000000000E+00 0. -1.
         22    1    3    3    0    0 -0.10426094768E+03  0.85739442883E+01  0.26570280227E+02  0.10793441306E+03  0.00000000000E+00 0. -1.
</event>
<event>
 7    1  0.5553952E-006  0.7176272E+02  0.7818608E-02  0.1387698E+00
          2   -1    0    0  502    0  0.00000000000E+00  0.00000000000E+00  0.90722091841E+03  0.90722091841E+03  0.00000000000E+00 0. -1.
          1   -1    0    0  501    0 -0.00000000000E+00 -0.00000000000E+00 -0.21066089335E+03  0.21066089335E+03  0.00000000000E+00 0. -1.
         25    2    1    2    0    0  0.18427987731E+02  0.10239599619E+02  0.31812679288E+02  0.13069680630E+03  0.12500067392E+03 0.  0.
          2    1    1    2  501    0  0.28420423589E+02  0.46389432397E+02 -0.15493780196E+03  0.16421151723E+03  0.00000000000E+00 0. -1.
          1    1    1    2  502    0 -0.46848411320E+02 -0.56629032017E+02  0.81968514774E+03  0.82297348823E+03  0.00000000000E+00 0. -1.
         22    1    3    3    0    0 -0.67274969388E+01  0.63461090189E+02  0.69645714423E-01  0.63816722209E+02  0.00000000000E+00 0.  1.
         22    1    3    3    0    0  0.25155484670E+02 -0.53221490569E+02  0.31743033574E+02  0.66880084090E+02  0.00000000000E+00 0.  1.
</event>
<event>
 7    1  0.5553952E-006  0.1685315E+03  0.7818608E-02  0.1306964E+00
          2   -1    0    0  502    0  0.00000000000E+00  0.00000000000E+00  0.62072062925E+03  0.62072062925E+03  0.00000000000E+00 0. -1.
          1   -1    0    0  501    0 -0.00000000000E+00 -0.00000000000E+00 -0.29057023061E+03  0.29057023061E+03  0.00000000000E+00 0. -1.
         25    2    1    2    0    0  0.25794731082E+02  0.14994843324E+03  0.18448196979E+03  0.26982789047E+03  0.12499436993E+03 0.  0.
          2    1    1    2  501    0 -0.71743923579E+02 -0.15553852468E+03 -0.21665983928E+03  0.27618998749E+03  0.00000000000E+00 0. -1.
          1    1    1    2  502    0  0.45949192497E+02  0.55900914322E+01  0.36232826814E+03  0.36527298190E+03  0.00000000000E+00 0. -1.
         22    1    3    3    0    0  0.17752599510E+02  0.59599105529E+02  0.16598868959E+03  0.17725533346E+03  0.00000000000E+00 0.  1.
         22    1    3    3    0    0  0.80421315723E+01  0.90349327715E+02  0.18493280201E+02  0.92572557010E+02  0.00000000000E+00 0.  1.
</event>
<event>
 7    1  0.5553952E-006  0.5100458E+02  0.7818608E-02  0.1536059E+00
          2   -1    0    0  502    0  0.00000000000E+00  0.00000000000E+00  0.52976259741E+03  0.52976259741E+03  0.00000000000E+00 0. -1.
          1   -1    0    0  501    0 -0.00000000000E+00 -0.00000000000E+00 -0.78947201793E+03  0.78947201793E+03  0.00000000000E+00 0. -1.
         25    2    1    2    0    0 -0.21516756639E+02  0.73242699751E+02 -0.55707303559E+02  0.15670248475E+03  0.12499960470E+03 0.  0.
          2    1    1    2  501    0  0.37010747017E+01 -0.25789535769E+02 -0.68167739654E+03  0.68217510293E+03  0.00000000000E+00 0. -1.
          1    1    1    2  502    0  0.17815681938E+02 -0.47453163982E+02  0.47767527958E+03  0.48035702766E+03  0.00000000000E+00 0. -1.
         22    1    3    3    0    0 -0.11038020403E+01 -0.72674103110E+01 -0.71736633311E+02  0.72112261027E+02  0.00000000000E+00 0. -1.
         22    1    3    3    0    0 -0.20412954599E+02  0.80510110062E+02  0.16029329752E+02  0.84590223726E+02  0.00000000000E+00 0. -1.
</event>
<event>
 7    1  0.5553952E-006  0.8205212E+02  0.7818608E-02  0.1432602E+00
          2   -1    0    0  502    0  0.00000000000E+00  0.00000000000E+00  0.45107602509E+03  0.45107602509E+03  0.00000000000E+00 0. -1.
          1   -1    0    0  501    0 -0.00000000000E+00 -0.00000000000E+00 -0.15881150841E+03  0.15881150841E+03  0.00000000000E+00 0. -1.
         25    2    1    2    0    0 -0.61998725610E+02  0.10289943026E+02  0.78411528282E+02  0.16038450000E+03  0.12500038068E+03 0.  0.
          2    1    1    2  501    0 -0.12289647933E+02  0.31181783460E+02 -0.10982734536E+03  0.11482763106E+03  0.00000000000E+00 0. -1.
          1    1    1    2  502    0  0.74288373544E+02 -0.41471726486E+02  0.32368033375E+03  0.33467540244E+03  0.00000000000E+00 0. -1.
         22    1    3    3    0    0 -0.81942591509E+02 -0.60378992531E+01  0.98090231542E+02  0.12795600046E+03  0.00000000000E+00 0. -1.
         22    1    3    3    0    0  0.19943865899E+02  0.16327842279E+02 -0.19678703259E+02  0.32428499541E+02  0.00000000000E+00 0. -1.
</event>
<event>
 7    1  0.5553952E-006  0.8087846E+02  0.7818608E-02  0.1460215E+00
          2   -1    0    0  502    0  0.00000000000E+00  0.00000000000E+00  0.19680957831E+04  0.19680957831E+04  0.00000000000E+00 0. -1.
          1   -1    0    0  501    0 -0.00000000000E+00 -0.00000000000E+00 -0.10811815445E+04  0.10811815445E+04  0.00000000000E+00 0. -1.
         25    2    1    2    0    0 -0.12103871514E+02  0.92277619003E+02 -0.61045930209E+02  0.16737282760E+03  0.12500158059E+03 0.  0.
          2    1    1    2  501    0 -0.20705763970E+02 -0.18421585996E+02 -0.96592065694E+03  0.96631816655E+03  0.00000000000E+00 0. -1.
          1    1    1    2  502    0  0.32809635484E+02 -0.73856033007E+02  0.19138808257E+04  0.19155863334E+04  0.00000000000E+00 0. -1.
         22    1    3    3    0    0  0.49366209182E+02  0.13271354445E+02 -0.40417002099E+02  0.65166598165E+02  0.00000000000E+00 0.  1.
         22    1    3    3    0    0 -0.61470080696E+02  0.79006264559E+02 -0.20628928109E+02  0.10220622943E+03  0.00000000000E+00 0.  1.
</event>
<event>
 7    1  0.5553952E-006  0.4294098E+02  0.7818608E-02  0.1540596E+00
          2   -1    0    0  502    0  0.00000000000E+00  0.00000000000E+00  0.33809785946E+03  0.33809785946E+03  0.00000000000E+00 0. -1.
          1   -1    0    0  501    0 -0.00000000000E+00 -0.00000000000E+00 -0.79294592825E+03  0.79294592825E+03  0.00000000000E+00 0. -1.
         25    2    1    2    0    0 -0.21044816998E+02  0.25945741364E+02 -0.26249807417E+02  0.13202295662E+03  0.12499977148E+03 0.  0.
          2    1    1    2  501    0 -0.21944174186E+02 -0.20520260450E+02 -0.71184515371E+03  0.71247887739E+03  0.00000000000E+00 0. -1.
          1    1    1    2  502    0  0.42988991184E+02 -0.54254809135E+01  0.28324689234E+03  0.28654195369E+03  0.00000000000E+00 0. -1.
         22    1    3    3    0    0  0.48399012273E+01 -0.30493532759E+02  0.33705486270E+02  0.45709298712E+02  0.00000000000E+00 0. -1.
         22    1    3    3    0    0 -0.25884718226E+02  0.56439274123E+02 -0.59955293687E+02  0.86313657913E+02  0.00000000000E+00 0. -1.
</event>
<event>
 7    1  0.5553952E-006  0.6231135E+02  0.7818608E-02  0.1404349E+00
          2   -1    0    0  502    0  0.00000000000E+00  0.00000000000E+00  0.71373631386E+03  0.71373631386E+03  0.00000000000E+00 0. -1.
          1   -1    0    0  501    0 -0.00000000000E+00 -0.00000000000E+00 -0.66304089625E+02  0.66304089625E+02  0.00000000000E+00 0. -1.
         25    2    1    2    0    0  0.34312778300E+02 -0.31656123629E+02  0.52342839812E+03  0.54016876278E+03  0.12500210959E+03 0.  0.
          2    1    1    2  501    0 -0.63811419812E+01 -0.54501011166E+02 -0.29003726580E+02  0.62066861904E+02  0.00000000000E+00 0. -1.
          1    1    1    2  502    0 -0.27931636319E+02  0.86157134795E+02  0.15300755269E+03  0.17780477880E+03  0.00000000000E+00 0. -1.
         22    1    3    3    0    0  0.54614118434E+02 -0.58409855665E+01  0.89572573436E+02  0.10507171340E+03  0.00000000000E+00 0. -1.
         22    1    3    3    0    0 -0.20301340134E+02 -0.25815138062E+02  0.43385582468E+03  0.43509704938E+03  0.00000000000E+00 0. -1.
</event>
<event>
 7    1  0.5553952E-006  0.1365291E+03  0.7818608E-02  0.1328824E+00
          2   -1    0    0  502    0  0.00000000000E+00  0.00000000000E+00  0.16269083318E+04  0.16269083318E+04  0.00000000000E+00 0. -1.
          1   -1    0    0  501    0 -0.00000000000E+00 -0.00000000000E+00 -0.83642158228E+02  0.83642158228E+02  0.00000000000E+00 0. -1.
         25    2    1    2    0    0  0.10205882257E+03 -0.13319088662E+01  0.76474270286E+03  0.78158597743E+03  0.12500984480E+03 0.  0.
          2    1    1    2  501    0 -0.13535398982E+03  0.34462662937E+02 -0.90748004859E+01  0.13996688787E+03  0.00000000000E+00 0. -1.
          1    1    1    2  502    0  0.33295167244E+02 -0.33130754071E+02  0.78759827123E+03  0.78899762476E+03  0.00000000000E+00 0. -1.
         22    1    3    3    0    0 -0.16021603820E+02  0.33508761900E+02  0.21917748841E+03  0.22230227246E+03  0.00000000000E+00 0. -1.
         22    1    3    3    0    0  0.11808042639E+03 -0.34840670766E+02  0.54556521445E+03  0.55928370498E+03  0.00000000000E+00 0. -1.
</event>
<event>
 7    1  0.5553952E-006  0.5811975E+02  0.7818608E-02  0.1435776E+00
          2   -1    0    0  502    0  0.00000000000E+00  0.00000000000E+00  0.22709489384E+04  0.22709489384E+04  0.00000000000E+00 0. -1.
          1   -1    0    0  501    0 -0.00000000000E+00 -0.00000000000E+00 -0.94608674478E+03  0.94608674478E+03  0.00000000000E+00 0. -1.
         25    2    1    2    0    0 -0.12185775719E+02  0.32446017005E+02 -0.71690884341E+03  0.72854926200E+03  0.12499800103E+03 0.  0.
          2    1    1    2  501    0  0.43019553641E+02  0.16843032048E+02 -0.22059127539E+03  0.22537719605E+03  0.00000000000E+00 0. -1.
          1    1    1    2  502    0 -0.30833777923E+02 -0.49289049053E+02  0.22623623125E+04  0.22631092252E+04  0.00000000000E+00 0. -1.
         22    1    3    3    0    0  0.23031428498E+02 -0.10063986905E+02 -0.58520249206E+03  0.58574199717E+03  0.00000000000E+00 0.  1.
         22    1    3    3    0    0 -0.35217204216E+02  0.42510003911E+02 -0.13170635135E+03  0.14280726484E+03  0.00000000000E+00 0.  1.
</event>
<event>
 7    1  0.5553952E-006  0.1349965E+03  0.7818608E-02  0.1324499E+00
          2   -1    0    0  502    0  0.00000000000E+00  0.00000000000E+00  0.18365900488E+04  0.18365900488E+04  0.00000000000E+00 0. -1.
          1   -1    0    0  501    0 -0.00000000000E+00 -0.00000000000E+00 -0.53236423321E+03  0.53236423321E+03  0.00000000000E+00 0. -1.
         25    2    1    2    0    0  0.10469569045E+03  0.29294922916E+02  0.31386758055E+03  0.35490472732E+03  0.12500050897E+03 0.  0.
          2    1    1    2  501    0 -0.13555766289E+03  0.92213919741E+01 -0.50241378400E+03  0.52046183759E+03  0.00000000000E+00 0. -1.
          1    1    1    2  502    0  0.30861972439E+02 -0.38516314890E+02  0.14927720191E+04  0.14935877171E+04  0.00000000000E+00 0. -1.
         22    1    3    3    0    0 -0.21142993612E+02 -0.43209619828E+01  0.90057184313E+01  0.23383751961E+02  0.00000000000E+00 0. -1.
         22    1    3    3    0    0  0.12583868406E+03  0.33615884899E+02  0.30486186212E+03  0.33152097535E+03  0.00000000000E+00 0. -1.
</event>
<event>
 7    1  0.5553952E-006  0.4986878E+02  0.7818608E-02  0.1512523E+00
          2   -1    0    0  502    0  0.00000000000E+00  0.00000000000E+00  0.38933791892E+03  0.38933791892E+03  0.00000000000E+00 0. -1.
          1   -1    0    0  501    0 -0.00000000000E+00 -0.00000000000E+00 -0.40305321887E+03  0.40305321887E+03  0.00000000000E+00 0. -1.
         25    2    1    2    0    0 -0.14158499515E+02  0.53854639759E+02 -0.43405563947E+02  0.14355930148E+03  0.12499777890E+03 0.  0.
          2    1    1    2  501    0 -0.16297842308E+02 -0.47267121029E+02 -0.30682751086E+03  0.31087444703E+03  0.00000000000E+00 0. -1.
          1    1    1    2  502    0  0.30456341823E+02 -0.65875187300E+01  0.33651777487E+03  0.33795738927E+03  0.00000000000E+00 0. -1.
         22    1    3    3    0    0 -0.33150031635E+02 -0.10117164734E+02 -0.64796106241E+02  0.73483447141E+02  0.00000000000E+00 0.  1.
         22    1    3    3    0    0  0.18991532120E+02  0.63971804493E+02  0.21390542294E+02  0.70075854344E+02  0.00000000000E+00 0.  1.
</event>
<event>
 7    1  0.5553952E-006  0.3615492E+02  0.7818608E-02  0.1548622E+00
          2   -1    0    0  502    0  0.00000000000E+00  0.00000000000E+00  0.61856794424E+03  0.61856794424E+03  0.00000000000E+00 0. -1.
          1   -1    0    0  501    0 -0.00000000000E+00 -0.00000000000E+00 -0.82297004261E+03  0.82297004261E+03  0.00000000000E+00 0. -1.
         25    2    1    2    0    0  0.39721750740E+01  0.40975950426E+01 -0.23268236794E+03  0.26419431615E+03  0.12499993551E+03 0.  0.
          2    1    1    2  501    0  0.27230788581E+01 -0.37306708195E+02 -0.57344590165E+03  0.57466460458E+03  0.00000000000E+00 0. -1.
          1    1    1    2  502    0 -0.66952539321E+01  0.33209113152E+02  0.60172617121E+03  0.60267906612E+03  0.00000000000E+00 0. -1.
         22    1    3    3    0    0  0.46594300643E+01  0.43547514374E+02 -0.20467460438E+02  0.48342664733E+02  0.00000000000E+00 0. -1.
         22    1    3    3    0    0 -0.68725499032E+00 -0.39449919332E+02 -0.21221490750E+03  0.21585165142E+03  0.00000000000E+00 0. -1.
</event>
<event>
 7    1  0.5553952E-006  0.6104329E+02  0.7818608E-02  0.1406622E+00
          2   -1    0    0  502    0  0.00000000000E+00  0.00000000000E+00  0.10949355462E+03  0.10949355462E+03  0.00000000000E+00 0. -1.
          1   -1    0    0  501    0 -0.00000000000E+00 -0.00000000000E+00 -0.25113033197E+04  0.25113033197E+04  0.00000000000E+00 0. -1.
         25    2    1    2    0    0  0.49496170000E+01  0.61941533086E+02 -0.11597768280E+03  0.18148939946E+03  0.12500530781E+03 0.  0.
          2    1    1    2  501    0  0.47671275919E+02 -0.27474478675E+02 -0.23493022139E+04  0.23499464440E+04  0.00000000000E+00 0. -1.
          1    1    1    2  502    0 -0.52620892919E+02 -0.34467054411E+02  0.63470131664E+02  0.89361030796E+02  0.00000000000E+00 0. -1.
         22    1    3    3    0    0 -0.34626737143E+02  0.45648294395E+02  0.60518914230E+00  0.57298725642E+02  0.00000000000E+00 0.  1.
         22    1    3    3    0    0  0.39576354143E+02  0.16293238691E+02 -0.11658287194E+03  0.12419067382E+03  0.00000000000E+00 0.  1.
</event>
<event>
 7    1  0.5553952E-006  0.7429299E+02  0.7818608E-02  0.1381424E+00
          2   -1    0    0  502    0  0.00000000000E+00  0.00000000000E+00  0.41679003391E+03  0.41679003391E+03  0.00000000000E+00 0. -1.
          1   -1    0    0  501    0 -0.00000000000E+00 -0.00000000000E+00 -0.55942174448E+03  0.55942174448E+03  0.00000000000E+00 0. -1.
         25    2    1    2    0    0  0.82774251444E+02  0.41898160204E+02 -0.48704334306E+02  0.16310866105E+03  0.12500116239E+03 0.  0.
          2    1    1    2  501    0 -0.49556504146E+02  0.24517302093E+02 -0.44796360929E+03  0.45136275927E+03  0.00000000000E+00 0. -1.
          1    1    1    2  502    0 -0.33217747297E+02 -0.66415462297E+02  0.35403623302E+03  0.36174035807E+03  0.00000000000E+00 0. -1.
         22    1    3    3    0    0  0.10712788559E+03  0.62230220685E+02 -0.37082214450E+02  0.12932159474E+03  0.00000000000E+00 0. -1.
         22    1    3    3    0    0 -0.24353634148E+02 -0.20332060481E+02 -0.11622119856E+02  0.33787066306E+02  0.00000000000E+00 0. -1.
</event>
<event>
 7    1  0.6747086E-006  0.8282219E+02  0.7818608E-02  0.1334910E+00
          2   -1    0    0  502    0  0.00000000000E+00  0.00000000000E+00  0.14144517344E+04  0.14144517344E+04  0.00000000000E+00 0. -1.
          1   -1    0    0  501    0 -0.00000000000E+00 -0.00000000000E+00 -0.59915875442E+03  0.59915875442E+03  0.00000000000E+00 0. -1.
         25    2    1    2    0    0  0.62686443118E+01  0.32020968087E+02 -0.27898945245E+03  0.30744723576E+03  0.12499619953E+03 0.  0.
          2    1    1    2  501    0  0.73048862412E+02 -0.72150802674E+01 -0.30028252815E+03  0.30912423133E+03  0.00000000000E+00 0. -1.
          1    1    1    2  502    0 -0.79317506724E+02 -0.24805887820E+02  0.13945649606E+04  0.13970390217E+04  0.00000000000E+00 0. -1.
         22    1    3    3    0    0 -0.40197650236E+02  0.30466140761E+02 -0.41117726565E+02  0.65074605302E+02  0.00000000000E+00 0. -1.
         22    1    3    3    0    0  0.46466294548E+02  0.15548273265E+01 -0.23787172589E+03  0.24237263046E+03  0.00000000000E+00 0. -1.
</event>
<event>
 7    1  0.5553952E-006  0.5580798E+02  0.7818608E-02  0.1423076E+00
          2   -1    0    0  502    0  0.00000000000E+00  0.00000000000E+00  0.30219503450E+04  0.30219503450E+04  0.00000000000E+00 0. -1.
          1   -1    0    0  501    0 -0.00000000000E+00 -0.00000000000E+00 -0.11932174262E+03  0.11932174262E+03  0.00000000000E+00 0. -1.
         25    2    1    2    0    0  0.25613035366E+02  0.35174968776E+01  0.45940828882E+01  0.12772753067E+03  0.12499926451E+03 0.  0.
          2    1    1    2  501    0  0.67640233500E+00 -0.52975335000E+02 -0.45282480179E+02  0.69694667297E+02  0.00000000000E+00 0. -1.
          1    1    1    2  502    0 -0.26289437701E+02  0.49457838123E+02  0.29433169997E+04  0.29438498897E+04  0.00000000000E+00 0. -1.
         22    1    3    3    0    0  0.62353542473E+01 -0.20525817700E+02  0.60318124957E+02  0.64019255175E+02  0.00000000000E+00 0. -1.
         22    1    3    3    0    0  0.19377681119E+02  0.24043314578E+02 -0.55724042069E+02  0.63708275490E+02  0.00000000000E+00 0. -1.
</event>
<event>
 7    1  0.5553952E-006  0.1154481E+03  0.7818608E-02  0.1265926E+00
          2   -1    0    0  502    0  0.00000000000E+00  0.00000000000E+00  0.33833061150E+03  0.33833061150E+03  0.00000000000E+00 0. -1.
          1   -1    0    0  501    0 -0.00000000000E+00 -0.00000000000E+00 -0.22319496481E+03  0.22319496481E+03  0.00000000000E+00 0. -1.
         25    2    1    2    0    0 -0.12955366607E+03 -0.11135021117E+02  0.13963213369E+03  0.22810063588E+03  0.12499850495E+03 0.  0.
          2    1    1    2  501    0  0.87717536197E+02 -0.79101246622E+02 -0.13856949559E+03  0.18207931920E+03  0.00000000000E+00 0. -1.
          1    1    1    2  502    0  0.41836129875E+02  0.90236267739E+02  0.11407300858E+03  0.15134562123E+03  0.00000000000E+00 0. -1.
         22    1    3    3    0    0 -0.12138490584E+02 -0.50222439618E+02  0.18357010038E+02  0.54832619966E+02  0.00000000000E+00 0. -1.
         22    1    3    3    0    0 -0.11741517549E+03  0.39087418501E+02  0.12127512365E+03  0.17326801591E+03  0.00000000000E+00 0. -1.
</event>
<event>
 7    1  0.5553952E-006  0.6481462E+02  0.7818608E-02  0.1490709E+00
          2   -1    0    0  502    0  0.00000000000E+00  0.00000000000E+00  0.10595394053E+04  0.10595394053E+04  0.00000000000E+00 0. -1.
          1   -1    0    0  501    0 -0.00000000000E+00 -0.00000000000E+00 -0.47965546225E+03  0.47965546225E+03  0.00000000000E+00 0. -1.
         25    2    1    2    0    0  0.49675519482E+02  0.26242403897E+02 -0.39811532087E+03  0.42104299283E+03  0.12500028840E+03 0.  0.
          2    1    1    2  501    0 -0.71980620662E+02 -0.42907331008E+02 -0.44766778692E+02  0.95006911746E+02  0.00000000000E+00 0. -1.
          1    1    1    2  502    0  0.22305101180E+02  0.16664927110E+02  0.10227660426E+04  0.10231449630E+04  0.00000000000E+00 0. -1.
         22    1    3    3    0    0  0.85493446133E+02 -0.66805843574E+01 -0.29150568393E+03  0.30385740620E+03  0.00000000000E+00 0.  1.
         22    1    3    3    0    0 -0.35817926651E+02  0.32922988255E+02 -0.10660963693E+03  0.11718558662E+03  0.00000000000E+00 0.  1.
</event>
<event>
 7    1  0.5553952E-006  0.5821509E+02  0.7818608E-02  0.1432412E+00
          2   -1    0    0  502    0  0.00000000000E+00  0.00000000000E+00  0.68559682285E+02  0.68559682285E+02  0.00000000000E+00 0. -1.
          1   -1    0    0  501    0 -0.00000000000E+00 -0.00000000000E+00 -0.64606915514E+03  0.64606915514E+03  0.00000000000E+00 0. -1.
         25    2    1    2    0    0  0.48203761581E+02 -0.47442030471E+02 -0.21817535451E+03  0.26036941527E+03  0.12496958912E+03 0.  0.
          2    1    1    2  501    0 -0.23094102727E+01  0.58919531910E+02 -0.39223075255E+03  0.39663813214E+03  0.00000000000E+00 0. -1.
          1    1    1    2  502    0 -0.45894351308E+02 -0.11477501440E+02  0.32896634211E+02  0.57621290021E+02  0.00000000000E+00 0. -1.
         22    1    3    3    0    0  0.45864033409E+02 -0.78979736487E+02 -0.89530678821E+02  0.12789468631E+03  0.00000000000E+00 0. -1.
         22    1    3    3    0    0  0.23397281717E+01  0.31537706017E+02 -0.12864467569E+03  0.13247472896E+03  0.00000000000E+00 0. -1.
</event>
<event>
 7    1  0.5553952E-006  0.3991845E+02  0.7818608E-02  0.1532538E+00
          2   -1    0    0  502    0  0.00000000000E+00  0.00000000000E+00  0.26240735551E+03  0.26240735551E+03  0.00000000000E+00 0. -1.
          1   -1    0    0  501    0 -0.00000000000E+00 -0.00000000000E+00 -0.48212688608E+03  0.48212688608E+03  0.00000000000E+00 0. -1.
         25    2    1    2    0    0  0.54066299603E+02  0.38810964572E+02  0.25790679199E+02  0.14394013696E+03  0.12499659263E+03 0.  0.
          2    1    1    2  501    0 -0.38794766336E+02 -0.83585099367E+01 -0.42047498523E+03  0.42234359447E+03  0.00000000000E+00 0. -1.
          1    1    1    2  502    0 -0.15271533267E+02 -0.30452454635E+02  0.17496477546E+03  0.17825051016E+03  0.00000000000E+00 0. -1.
         22    1    3    3    0    0  0.24787729122E+02 -0.31901486397E+02 -0.29072523457E+02  0.49772964243E+02  0.00000000000E+00 0. -1.
         22    1    3    3    0    0  0.29278570481E+02  0.70712450969E+02  0.54863202655E+02  0.94167172714E+02  0.00000000000E+00 0. -1.
</event>
<event>
 7    1  0.5553952E-006  0.7030656E+02  0.7818608E-02  0.1452194E+00
          2   -1    0    0  502    0  0.00000000000E+00  0.00000000000E+00  0.49602366014E+02  0.49602366014E+02  0.00000000000E+00 0. -1.
          1   -1    0    0  501    0 -0.00000000000E+00 -0.00000000000E+00 -0.85297546307E+03  0.85297546307E+03  0.00000000000E+00 0. -1.
         25    2    1    2    0    0  0.75772815792E+02  0.99382569505E+00 -0.78575643062E+02  0.16595447839E+03  0.12499699961E+03 0.  0.
          2    1    1    2  501    0 -0.63453235305E+02  0.30486511363E+02 -0.65803789797E+03  0.66179272859E+03  0.00000000000E+00 0. -1.
          1    1    1    2  502    0 -0.12319580487E+02 -0.31480337058E+02 -0.66759556020E+02  0.74830622105E+02  0.00000000000E+00 0. -1.
         22    1    3    3    0    0  0.24108210198E+02  0.16974673614E+02 -0.10261903321E+03  0.10677083553E+03  0.00000000000E+00 0.  1.
         22    1    3    3    0    0  0.51664605594E+02 -0.15980847919E+02  0.24043390150E+02  0.59183642853E+02  0.00000000000E+00 0.  1.
</event>
<event>
 7    1  0.5553952E-006  0.1301092E+03  0.7818608E-02  0.1376106E+00
          2   -1    0    0  502    0  0.00000000000E+00  0.00000000000E+00  0.14036427743E+04  0.14036427743E+04  0.00000000000E+00 0. -1.
          1   -1    0    0  501    0 -0.00000000000E+00 -0.00000000000E+00 -0.71087598882E+03  0.71087598882E+03  0.00000000000E+00 0. -1.
         25    2    1    2    0    0  0.28996348019E+02 -0.11100363585E+03 -0.61312305488E+03  0.63616589143E+03  0.12499826248E+03 0.  0.
          2    1    1    2  501    0  0.32774541097E+02 -0.36106587371E+01 -0.79912432011E+02  0.86447696271E+02  0.00000000000E+00 0. -1.
          1    1    1    2  502    0 -0.61770889117E+02  0.11461429459E+03  0.13858022724E+04  0.13919051754E+04  0.00000000000E+00 0. -1.
         22    1    3    3    0    0 -0.21069470623E+02 -0.60249085282E+02 -0.48801012904E+03  0.49216639556E+03  0.00000000000E+00 0. -1.
         22    1    3    3    0    0  0.50065818642E+02 -0.50754550568E+02 -0.12511292584E+03  0.14399949587E+03  0.00000000000E+00 0. -1.
</event>
<event>
 7    1  0.5553952E-006  0.9896245E+02  0.7818608E-02  0.1331473E+00
          2   -1    0    0  502    0  0.00000000000E+00  0.00000000000E+00  0.11187712170E+04  0.11187712170E+04  0.00000000000E+00 0. -1.
          1   -1    0    0  501    0 -0.00000000000E+00 -0.00000000000E+00 -0.12510229565E+04  0.12510229565E+04  0.00000000000E+00 0. -1.
         25    2    1    2    0    0 -0.50502648633E+02  0.12761863549E+03  0.15036093350E+03  0.23888902730E+03  0.12499009319E+03 0.  0.
          2    1    1    2  501    0  0.71599906246E+02 -0.67928893221E+02 -0.12036524988E+04  0.12076921044E+04  0.00000000000E+00 0. -1.
          1    1    1    2  502    0 -0.21097257613E+02 -0.59689742269E+02  0.92103982585E+03  0.92321304173E+03  0.00000000000E+00 0. -1.
         22    1    3    3    0    0 -0.48386795316E+02  0.15110023253E+03  0.14448967886E+03  0.21459224014E+03  0.00000000000E+00 0. -1.
         22    1    3    3    0    0 -0.21158533175E+01 -0.23481597044E+02  0.58712546484E+01  0.24296787156E+02  0.00000000000E+00 0. -1.
</event>
<event>
 7    1  0.5553952E-006  0.4025273E+02  0.7818608E-02  0.1506724E+00
          2   -1    0    0  502    0  0.00000000000E+00  0.00000000000E+00  0.17718536501E+03  0.17718536501E+03  0.00000000000E+00 0. -1.
          1   -1    0    0  501    0 -0.00000000000E+00 -0.00000000000E+00 -0.51748552923E+03  0.51748552923E+03  0.00000000000E+00 0. -1.
         25    2    1    2    0    0 -0.18392422472E+02  0.19282806773E+02 -0.15731139759E+03  0.20268378117E+03  0.12499492588E+03 0.  0.
          2    1    1    2  501    0 -0.18805496590E+02 -0.35589822235E+02 -0.33358769842E+03  0.33600749200E+03  0.00000000000E+00 0. -1.
          1    1    1    2  502    0  0.37197919063E+02  0.16307015462E+02  0.15059893178E+03  0.15597962107E+03  0.00000000000E+00 0. -1.
         22    1    3    3    0    0  0.49381876868E+02 -0.79746107167E+01 -0.91881998545E+02  0.10461580108E+03  0.00000000000E+00 0. -1.
         22    1    3    3    0    0 -0.67774299340E+02  0.27257417490E+02 -0.65429399045E+02  0.98067980089E+02  0.00000000000E+00 0. -1.
</event>
<event>
 7    1  0.5553952E-006  0.5922534E+02  0.7818608E-02  0.1522570E+00
          2   -1    0    0  502    0  0.00000000000E+00  0.00000000000E+00  0.58949967883E+03  0.58949967883E+03  0.00000000000E+00 0. -1.
          1   -1    0    0  501    0 -0.00000000000E+00 -0.00000000000E+00 -0.26859098777E+03  0.26859098777E+03  0.00000000000E+00 0. -1.
         25    2    1    2    0    0 -0.23302033109E+02 -0.68179918796E+02  0.31229904686E+03  0.34401567727E+03  0.12499842186E+03 0.  0.
          2    1    1    2  501    0 -0.10624819754E+02  0.22106917114E+02 -0.24899118219E+03  0.25019634567E+03  0.00000000000E+00 0. -1.
          1    1    1    2  502    0  0.33926852863E+02  0.46073001682E+02  0.25760082638E+03  0.26387864366E+03  0.00000000000E+00 0. -1.
         22    1    3    3    0    0  0.47425935974E+02 -0.21136045299E+02  0.17521987689E+03  0.18275107954E+03  0.00000000000E+00 0. -1.
         22    1    3    3    0    0 -0.70727969083E+02 -0.47043873498E+02  0.13707916997E+03  0.16126459774E+03  0.00000000000E+00 0. -1.
</event>
<event>
 7    1  0.5553952E-006  0.1382912E+03  0.7818608E-02  0.1320872E+00
          2   -1    0    0  502    0  0.00000000000E+00  0.00000000000E+00  0.26311542815E+03  0.26311542815E+03  0.00000000000E+00 0. -1.
          1   -1    0    0  501    0 -0.00000000000E+00 -0.00000000000E+00 -0.75856077446E+03  0.75856077446E+03  0.00000000000E+00 0. -1.
         25    2    1    2    0    0  0.56380960925E+02  0.83349796862E+02 -0.38672306276E+02  0.16506432595E+03  0.12499873215E+03 0.  0.
          2    1    1    2  501    0 -0.10367063218E+03 -0.98833052115E+02 -0.64562092023E+03  0.66131833847E+03  0.00000000000E+00 0. -1.
          1    1    1    2  502    0  0.47289671252E+02  0.15483255253E+02  0.18884788020E+03  0.19529353818E+03  0.00000000000E+00 0. -1.
         22    1    3    3    0    0 -0.15196263435E+02  0.85109574019E+02 -0.68938102753E+01  0.86729986927E+02  0.00000000000E+00 0. -1.
         22    1    3    3    0    0  0.71577224360E+02 -0.17597771576E+01 -0.31778496001E+02  0.78334339027E+02  0.00000000000E+00 0. -1.
</event>
<event>
 7    1  0.5553952E-006  0.1631213E+03  0.7818608E-02  0.1357235E+00
          2   -1    0    0  502    0  0.00000000000E+00  0.00000000000E+00  0.99237620096E+03  0.99237620096E+03  0.00000000000E+00 0. -1.
          1   -1    0    0  501    0 -0.00000000000E+00 -0.00000000000E+00 -0.41070019123E+03  0.41070019123E+03  0.00000000000E+00 0. -1.
         25    2    1    2    0    0  0.12832546030E+03 -0.91481330349E+02 -0.79613533283E+02  0.21633138694E+03  0.12499878692E+03 0.  0.
          2    1    1    2  501    0 -0.15303955480E+02 -0.26694854691E+02 -0.25455940402E+03  0.25641239536E+03  0.00000000000E+00 0. -1.
          1    1    1    2  502    0 -0.11302150482E+03  0.11817618504E+03  0.91584894703E+03  0.93033260989E+03  0.00000000000E+00 0. -1.
         22    1    3    3    0    0  0.70278833179E+02 -0.11469486652E+03 -0.74097319672E+02  0.15357226176E+03  0.00000000000E+00 0.  1.
         22    1    3    3    0    0  0.58046627117E+02  0.23213536169E+02 -0.55162136111E+01  0.62759125183E+02  0.00000000000E+00 0.  1.
</event>
<event>
 7    1  0.5553952E-006  0.8565585E+02  0.7818608E-02  0.1443562E+00
          2   -1    0    0  502    0  0.00000000000E+00  0.00000000000E+00  0.81122986672E+03  0.81122986672E+03  0.00000000000E+00 0. -1.
          1   -1    0    0  501    0 -0.00000000000E+00 -0.00000000000E+00 -0.63970719398E+03  0.63970719398E+03  0.00000000000E+00 0. -1.
         25    2    1    2    0    0 -0.71941909158E+02  0.58319268424E+02  0.45054764298E+02  0.16196960999E+03  0.12500978926E+03 0.  0.
          2    1    1    2  501    0 -0.82121256329E+01 -0.28411824958E+02 -0.57828503789E+03  0.57904080673E+03  0.00000000000E+00 0. -1.
          1    1    1    2  502    0  0.80154034791E+02 -0.29907443466E+02  0.70475294633E+03  0.70992664398E+03  0.00000000000E+00 0. -1.
         22    1    3    3    0    0  0.29683402391E+02  0.19601577192E+02  0.39385346461E+02  0.53071006414E+02  0.00000000000E+00 0. -1.
         22    1    3    3    0    0 -0.10162531155E+03  0.38717691232E+02  0.56694178370E+01  0.10889860357E+03  0.00000000000E+00 0. -1.
</event>
<event>
 7    1  0.5553952E-006  0.5218910E+02  0.7818608E-02  0.1441259E+00
          2   -1    0    0  502    0  0.00000000000E+00  0.00000000000E+00  0.13553307971E+03  0.13553307971E+03  0.00000000000E+00 0. -1.
          1   -1    0    0  501    0 -0.00000000000E+00 -0.00000000000E+00 -0.39092509622E+03  0.39092509622E+03  0.00000000000E+00 0. -1.
         25    2    1    2    0    0 -0.57517249410E+02  0.67904504861E+01 -0.69428221985E+02  0.15427317431E+03  0.12500236040E+03 0.  0.
          2    1    1    2  501    0  0.20367448426E+02 -0.44983585573E+02 -0.26901648797E+03  0.27351092616E+03  0.00000000000E+00 0. -1.
          1    1    1    2  502    0  0.37149800985E+02  0.38193135087E+02  0.83052693445E+02  0.98674075467E+02  0.00000000000E+00 0. -1.
         22    1    3    3    0    0 -0.84992080503E+02  0.22555850282E+02 -0.81960073263E+02  0.12020762763E+03  0.00000000000E+00 0.  1.
         22    1    3    3    0    0  0.27474831093E+02 -0.15765399796E+02  0.12531851278E+02  0.34065546682E+02  0.00000000000E+00 0.  1.
</event>
<event>
 7    1  0.5553952E-006  0.1634884E+03  0.7818608E-02  0.1189476E+00
          2   -1    0    0  502    0  0.00000000000E+00  0.00000000000E+00  0.12260644824E+04  0.12260644824E+04  0.00000000000E+00 0. -1.
          1   -1    0    0  501    0 -0.00000000000E+00 -0.00000000000E+00 -0.17434281000E+03  0.17434281000E+03  0.00000000000E+00 0. -1.
         25    2    1    2    0    0 -0.73587217461E+02  0.11641187601E+02 -0.30558376180E+02  0.14868867517E+03  0.12499564771E+03 0.  0.
          2    1    1    2  501    0 -0.27118700693E+02 -0.15285433445E+03 -0.39188475922E+00  0.15524182768E+03  0.00000000000E+00 0. -1.
          1    1    1    2  502    0  0.10070591815E+03  0.14121314685E+03  0.10826719334E+04  0.10964767896E+04  0.00000000000E+00 0. -1.
         22    1    3    3    0    0 -0.10595399741E+03  0.17647687056E+02 -0.59320241867E+01  0.10757731795E+03  0.00000000000E+00 0. -1.
         22    1    3    3    0    0  0.32366779950E+02 -0.60064994551E+01 -0.24626351993E+02  0.41111357221E+02  0.00000000000E+00 0. -1.
</event>
<event>
 7    1  0.5553952E-006  0.2122854E+03  0.7818608E-02  0.1203134E+00
          2   -1    0    0  502    0  0.00000000000E+00  0.00000000000E+00  0.11030962496E+04  0.11030962496E+04  0.00000000000E+00 0. -1.
          1   -1    0    0  501    0 -0.00000000000E+00 -0.00000000000E+00 -0.68257797581E+03  0.68257797581E+03  0.00000000000E+00 0. -1.
         25    2    1    2    0    0  0.20725443443E+03 -0.24349664949E+02  0.20327727973E+03  0.31700774862E+03  0.12499981383E+03 0.  0.
          2    1    1    2  501    0 -0.19934637212E+03 -0.78326166295E+02 -0.60407395762E+03  0.64092067425E+03  0.00000000000E+00 0. -1.
          1    1    1    2  502    0 -0.79080623118E+01  0.10267583124E+03  0.82131495164E+03  0.82774580250E+03  0.00000000000E+00 0. -1.
         22    1    3    3    0    0  0.18917462029E+03  0.24425530742E+02  0.16774819709E+03  0.25401397824E+03  0.00000000000E+00 0.  1.
         22    1    3    3    0    0  0.18079814145E+02 -0.48775195691E+02  0.35529082641E+02  0.62993770386E+02  0.00000000000E+00 0.  1.
</event>
<event>
 7    1  0.5553952E-006  0.9990626E+02  0.7818608E-02  0.1346468E+00
          2   -1    0    0  502    0  0.00000000000E+00  0.00000000000E+00  0.17320289471E+04  0.17320289471E+04  0.00000000000E+00 0. -1.
          1   -1    0    0  501    0 -0.00000000000E+00 -0.00000000000E+00 -0.56817838907E+03  0.56817838907E+03  0.00000000000E+00 0. -1.
         25    2    1    2    0    0  0.14718998131E+03 -0.38222268134E+02  0.20338942603E+03  0.28305184770E+03  0.12500102994E+03 0.  0.
          2    1    1    2  501    0 -0.54683450422E+02  0.64303166251E+01 -0.52530007170E+03  0.52817780534E+03  0.00000000000E+00 0. -1.
          1    1    1    2  502    0 -0.92506530886E+02  0.31791951509E+02  0.14857612037E+04  0.14889776831E+04  0.00000000000E+00 0. -1.
         22    1    3    3    0    0  0.79565331357E+02  0.43378401676E+02  0.10089448288E+03  0.13561719788E+03  0.00000000000E+00 0. -1.
         22    1    3    3    0    0  0.67624649950E+02 -0.81600669811E+02  0.10249494315E+03  0.14743464981E+03  0.00000000000E+00 0. -1.
</event>
<event>
 7    1  0.5553952E-006  0.6324753E+02  0.7818608E-02  0.1513393E+00
          2   -1    0    0  502    0  0.00000000000E+00  0.00000000000E+00  0.15902872860E+04  0.15902872860E+04  0.00000000000E+00 0. -1.
          1   -1    0    0  501    0 -0.00000000000E+00 -0.00000000000E+00 -0.15381242565E+02  0.15381242565E+02  0.00000000000E+00 0. -1.
         25    2    1    2    0    0 -0.31353180746E+02  0.40741315922E+02  0.65956946847E+03  0.67327766957E+03  0.12501223874E+03 0.  0.
          2    1    1    2  501    0 -0.23896443125E+02 -0.50555032544E+01  0.13017244929E+02  0.27677549977E+02  0.00000000000E+00 0. -1.
          1    1    1    2  502    0  0.55249623871E+02 -0.35685812668E+02  0.90231933009E+03  0.90471330907E+03  0.00000000000E+00 0. -1.
         22    1    3    3    0    0  0.36551002601E+02  0.15883522156E+02  0.81704152302E+02  0.90905613526E+02  0.00000000000E+00 0.  1.
         22    1    3    3    0    0 -0.67904183347E+02  0.24857793766E+02  0.57786531617E+03  0.58237205604E+03  0.00000000000E+00 0.  1.
</event>
<event>
 7    1  0.5553952E-006  0.1240171E+03  0.7818608E-02  0.1295997E+00
          2   -1    0    0  502    0  0.00000000000E+00  0.00000000000E+00  0.11329057694E+03  0.11329057694E+03  0.00000000000E+00 0. -1.
          1   -1    0    0  501    0 -0.00000000000E+00 -0.00000000000E+00 -0.59729846224E+03  0.59729846224E+03  0.00000000000E+00 0. -1.
         25    2    1    2    0    0  0.15567418698E+02 -0.90072782446E+02 -0.27635167403E+03  0.31678201795E+03  0.12500059397E+03 0.  0.
          2    1    1    2  501    0 -0.32799809922E+02  0.15748293283E+03 -0.26068670532E+03  0.30632378294E+03  0.00000000000E+00 0. -1.
          1    1    1    2  502    0  0.17232391224E+02 -0.67410150385E+02  0.53030494057E+02  0.87483238292E+02  0.00000000000E+00 0. -1.
         22    1    3    3    0    0  0.13941322578E+02 -0.10763702603E+03 -0.27860461759E+03  0.29899936922E+03  0.00000000000E+00 0.  1.
         22    1    3    3    0    0  0.16260961201E+01  0.17564243582E+02  0.22529435619E+01  0.17782648731E+02  0.00000000000E+00 0.  1.
</event>
<event>
 7    1  0.5553952E-006  0.8364280E+02  0.7818608E-02  0.1419563E+00
          2   -1    0    0  502    0  0.00000000000E+00  0.00000000000E+00  0.24048736793E+02  0.24048736793E+02  0.00000000000E+00 0. -1.
          1   -1    0    0  501    0 -0.00000000000E+00 -0.00000000000E+00 -0.13240742689E+04  0.13240742689E+04  0.00000000000E+00 0. -1.
         25    2    1    2    0    0 -0.67110621542E+02 -0.80212563600E+02 -0.43718338490E+03  0.46657360609E+03  0.12499490781E+03 0.  0.
          2    1    1    2  501    0  0.42351433099E+01  0.36067341047E+02 -0.70569139068E+03  0.70662516826E+03  0.00000000000E+00 0. -1.
          1    1    1    2  502    0  0.62875478232E+02  0.44145222553E+02 -0.15715075650E+03  0.17492423133E+03  0.00000000000E+00 0. -1.
         22    1    3    3    0    0 -0.48942433204E-01 -0.94194431561E+02 -0.23951189614E+03  0.25736849404E+03  0.00000000000E+00 0.  1.
         22    1    3    3    0    0 -0.67061679109E+02  0.13981867961E+02 -0.19767148876E+03  0.20920511205E+03  0.00000000000E+00 0.  1.
</event>
<event>
 7    1  0.5553952E-006  0.4352347E+02  0.7818608E-02  0.1542092E+00
          2   -1    0    0  502    0  0.00000000000E+00  0.00000000000E+00  0.11302182184E+04  0.11302182184E+04  0.00000000000E+00 0. -1.
          1   -1    0    0  501    0 -0.00000000000E+00 -0.00000000000E+00 -0.43580860025E+02  0.43580860025E+02  0.00000000000E+00 0. -1.
         25    2    1    2    0    0  0.15094760540E+02 -0.99312524004E+01  0.27662132496E+03  0.30408973775E+03  0.12499891845E+03 0.  0.
          2    1    1    2  501    0  0.83358317892E+01 -0.28146402140E+02 -0.21880460581E+02  0.36612301215E+02  0.00000000000E+00 0. -1.
          1    1    1    2  502    0 -0.23430592329E+02  0.38077654540E+02  0.83189649398E+03  0.83309703945E+03  0.00000000000E+00 0. -1.
         22    1    3    3    0    0  0.43685478090E+02 -0.55615935123E+02  0.13197659094E+03  0.14973100477E+03  0.00000000000E+00 0.  1.
         22    1    3    3    0    0 -0.28590717550E+02  0.45684682722E+02  0.14464473402E+03  0.15435873297E+03  0.00000000000E+00 0.  1.
</event>
<event>
 7    1  0.5553952E-006  0.1426704E+03  0.7818608E-02  0.1227972E+00
          2   -1    0    0  502    0  0.00000000000E+00  0.00000000000E+00  0.36994202779E+03  0.36994202779E+03  0.00000000000E+00 0. -1.
          1   -1    0    0  501    0 -0.00000000000E+00 -0.00000000000E+00 -0.23188268668E+03  0.23188268668E+03  0.00000000000E+00 0. -1.
         25    2    1    2    0    0  0.12713406424E+03  0.11829656563E+03  0.14644566739E+02  0.21446711964E+03  0.12499813735E+03 0.  0.
          2    1    1    2  501    0 -0.11817665570E+02 -0.14246960242E+03 -0.71313370234E+02  0.15975869806E+03  0.00000000000E+00 0. -1.
          1    1    1    2  502    0 -0.11531639867E+03  0.24173036791E+02  0.19472814461E+03  0.22759889677E+03  0.00000000000E+00 0. -1.
         22    1    3    3    0    0  0.11528383330E+03  0.11346192417E+03 -0.33041823533E+02  0.16509310270E+03  0.00000000000E+00 0.  1.
         22    1    3    3    0    0  0.11850230934E+02  0.48346414605E+01  0.47686390272E+02  0.49374016936E+02  0.00000000000E+00 0.  1.
</event>
<event>
 7    1  0.5553952E-006  0.1277148E+03  0.7818608E-02  0.1329126E+00
          2   -1    0    0  502    0  0.00000000000E+00  0.00000000000E+00  0.18594304822E+03  0.18594304822E+03  0.00000000000E+00 0. -1.
          1   -1    0    0  501    0 -0.00000000000E+00 -0.00000000000E+00 -0.60738185909E+03  0.60738185909E+03  0.00000000000E+00 0. -1.
         25    2    1    2    0    0  0.13551243329E+03  0.50845332478E+02 -0.87844982691E+02  0.21045096118E+03  0.12499599460E+03 0.  0.
          2    1    1    2  501    0 -0.99888769130E+01 -0.49072264969E+02 -0.42477586701E+03  0.42771766627E+03  0.00000000000E+00 0. -1.
          1    1    1    2  502    0 -0.12552355638E+03 -0.17730675090E+01  0.91182038821E+02  0.15515627986E+03  0.00000000000E+00 0. -1.
         22    1    3    3    0    0  0.25948670924E+02  0.41137334627E+02 -0.87898706391E+02  0.10045793353E+03  0.00000000000E+00 0.  1.
         22    1    3    3    0    0  0.10956376237E+03  0.97079978518E+01  0.53723700216E-01  0.10999302766E+03  0.00000000000E+00 0.  1.
</event>
<event>
 7    1  0.5553952E-006  0.3651916E+03  0.7818608E-02  0.1188683E+00
          2   -1    0    0  502    0  0.00000000000E+00  0.00000000000E+00  0.33657599971E+03  0.33657599971E+03  0.00000000000E+00 0. -1.
          1   -1    0    0  501    0 -0.00000000000E+00 -0.00000000000E+00 -0.39573250764E+04  0.39573250764E+04  0.00000000000E+00 0. -1.
         25    2    1    2    0    0  0.33357574340E+03  0.11591441898E+02 -0.96120690634E+02  0.36915034000E+03  0.12500259297E+03 0.  0.
          2    1    1    2  501    0  0.54582137713E+02  0.44003679366E+02 -0.35318690159E+04  0.35325648301E+04  0.00000000000E+00 0. -1.
          1    1    1    2  502    0 -0.38815788111E+03 -0.55595121264E+02  0.72406297941E+01  0.39218590604E+03  0.00000000000E+00 0. -1.
         22    1    3    3    0    0  0.16651327998E+03 -0.26260820224E+02  0.78769701375E+01  0.16875529547E+03  0.00000000000E+00 0. -1.
         22    1    3    3    0    0  0.16706246341E+03  0.37852262122E+02 -0.10399766077E+03  0.20039504454E+03  0.00000000000E+00 0. -1.
</event>
<event>
 7    1  0.5553952E-006  0.1033891E+03  0.7818608E-02  0.1372017E+00
          2   -1    0    0  502    0  0.00000000000E+00  0.00000000000E+00  0.51629927538E+03  0.51629927538E+03  0.00000000000E+00 0. -1.
          1   -1    0    0  501    0 -0.00000000000E+00 -0.00000000000E+00 -0.29768006515E+03  0.29768006515E+03  0.00000000000E+00 0. -1.
         25    2    1    2    0    0 -0.34849621294E+02 -0.54812613312E+02  0.12589972684E+03  0.18892996547E+03  0.12499948781E+03 0.  0.
          2    1    1    2  501    0  0.42884188337E+02  0.96967751143E+02 -0.25423122833E+03  0.27545474370E+03  0.00000000000E+00 0. -1.
          1    1    1    2  502    0 -0.80345670424E+01 -0.42155137831E+02  0.34695071172E+03  0.34959463136E+03  0.00000000000E+00 0. -1.
         22    1    3    3    0    0  0.21578226323E+02  0.28749762617E+02  0.54857201524E+02  0.65585678779E+02  0.00000000000E+00 0. -1.
         22    1    3    3    0    0 -0.56427847617E+02 -0.83562375929E+02  0.71042525315E+02  0.12334428670E+03  0.00000000000E+00 0. -1.
</event>
<event>
 7    1  0.5553952E-006  0.7548552E+02  0.7818608E-02  0.1411071E+00
          2   -1    0    0  502    0  0.00000000000E+00  0.00000000000E+00  0.24877211860E+04  0.24877211860E+04  0.00000000000E+00 0. -1.
          1   -1    0    0  501    0 -0.00000000000E+00 -0.00000000000E+00 -0.36495594035E+03  0.36495594035E+03  0.00000000000E+00 0. -1.
         25    2    1    2    0    0 -0.45732787125E+01  0.78023952748E+02 -0.25623254905E+02  0.14963374432E+03  0.12500021667E+03 0.  0.
          2    1    1    2  501    0  0.44416994586E+02 -0.61922354329E+02 -0.27189808215E+03  0.28237530779E+03  0.00000000000E+00 0. -1.
          1    1    1    2  502    0 -0.39843715874E+02 -0.16101598419E+02  0.24202865827E+04  0.24206680742E+04  0.00000000000E+00 0. -1.
         22    1    3    3    0    0  0.58698637499E-01 -0.34145945766E+02 -0.13491302680E+02  0.36714633401E+02  0.00000000000E+00 0.  1.
         22    1    3    3    0    0 -0.46319773500E+01  0.11216989851E+03 -0.12131952224E+02  0.11291911092E+03  0.00000000000E+00 0.  1.
</event>
<event>
 7    1  0.5553952E-006  0.8822283E+02  0.7818608E-02  0.1424234E+00
          2   -1    0    0  502    0  0.00000000000E+00  0.00000000000E+00  0.29810387746E+03  0.29810387746E+03  0.00000000000E+00 0. -1.
          1   -1    0    0  501    0 -0.00000000000E+00 -0.00000000000E+00 -0.33431328190E+03  0.33431328190E+03  0.00000000000E+00 0. -1.
         25    2    1    2    0    0 -0.89507424457E+02 -0.73211046608E+02 -0.87136457557E+02  0.19128254008E+03  0.12499924609E+03 0.  0.
          2    1    1    2  501    0  0.14234518624E+02  0.30013700554E+02 -0.18593217199E+03  0.18887619311E+03  0.00000000000E+00 0. -1.
          1    1    1    2  502    0  0.75272905833E+02  0.43197346054E+02  0.23685922511E+03  0.25225842618E+03  0.00000000000E+00 0. -1.
         22    1    3    3    0    0 -0.59366373879E+02 -0.60808307440E+02 -0.11865080879E+03  0.14594530149E+03  0.00000000000E+00 0. -1.
         22    1    3    3    0    0 -0.30141050578E+02 -0.12402739168E+02  0.31514351233E+02  0.45337238584E+02  0.00000000000E+00 0. -1.
</event>
<event>
 7    1  0.5553952E-006  0.6022989E+02  0.7818608E-02  0.1507901E+00
          2   -1    0    0  502    0  0.00000000000E+00  0.00000000000E+00  0.43955031575E+03  0.43955031575E+03  0.00000000000E+00 0. -1.
          1   -1    0    0  501    0 -0.00000000000E+00 -0.00000000000E+00 -0.69316158268E+03  0.69316158268E+03  0.00000000000E+00 0. -1.
         25    2    1    2    0    0 -0.27266242646E+02  0.75109023587E+02 -0.24768356184E+03  0.28871657366E+03  0.12500119874E+03 0.  0.
          2    1    1    2  501    0  0.67986272959E+01 -0.58086950943E+02 -0.42252252439E+03  0.42655081622E+03  0.00000000000E+00 0. -1.
          1    1    1    2  502    0  0.20467615350E+02 -0.17022072644E+02  0.41659481931E+03  0.41744450854E+03  0.00000000000E+00 0. -1.
         22    1    3    3    0    0 -0.37135588929E+02  0.50297710456E+02 -0.25374594108E+03  0.26133486996E+03  0.00000000000E+00 0.  1.
         22    1    3    3    0    0  0.98693462826E+01  0.24811313131E+02  0.60623792383E+01  0.27381703697E+02  0.00000000000E+00 0.  1.
</event>
<event>
 7    1  0.5553952E-006  0.7953581E+02  0.7818608E-02  0.1430987E+00
          2   -1    0    0  502    0  0.00000000000E+00  0.00000000000E+00  0.18710466136E+03  0.18710466136E+03  0.00000000000E+00 0. -1.
          1   -1    0    0  501    0 -0.00000000000E+00 -0.00000000000E+00 -0.65638928858E+03  0.65638928858E+03  0.00000000000E+00 0. -1.
         25    2    1    2    0    0 -0.72687077507E+02  0.49309485049E+02 -0.12029378217E+03  0.19444871661E+03  0.12499949124E+03 0.  0.
          2    1    1    2  501    0  0.42516187290E+02 -0.67052622864E+02 -0.49376119253E+03  0.50010378489E+03  0.00000000000E+00 0. -1.
          1    1    1    2  502    0  0.30170890217E+02  0.17743137815E+02  0.14477034748E+03  0.14894144845E+03  0.00000000000E+00 0. -1.
         22    1    3    3    0    0 -0.80915104913E+02  0.84225786196E+02 -0.95041480476E+02  0.15057928236E+03  0.00000000000E+00 0. -1.
         22    1    3    3    0    0  0.82280274056E+01 -0.34916301147E+02 -0.25252301695E+02  0.43869434253E+02  0.00000000000E+00 0. -1.
</event>
<event>
 7    1  0.5553952E-006  0.3911963E+02  0.7818608E-02  0.1561452E+00
          2   -1    0    0  502    0  0.00000000000E+00  0.00000000000E+00  0.44308374156E+03  0.44308374156E+03  0.00000000000E+00 0. -1.
          1   -1    0    0  501    0 -0.00000000000E+00 -0.00000000000E+00 -0.17340427418E+03  0.17340427418E+03  0.00000000000E+00 0. -1.
         25    2    1    2    0    0 -0.70699688613E+01  0.24905831838E+02  0.22174375358E+03  0.25586141258E+03  0.12499794108E+03 0.  0.
          2    1    1    2  501    0  0.26227176420E+02  0.12016490842E+02 -0.15286467342E+03  0.15556307150E+03  0.00000000000E+00 0. -1.
          1    1    1    2  502    0 -0.19157207559E+02 -0.36922322680E+02  0.20080038722E+03  0.20506353167E+03  0.00000000000E+00 0. -1.
         22    1    3    3    0    0  0.15934064713E+02 -0.28992049047E+02  0.77352798967E+01  0.33974518117E+02  0.00000000000E+00 0. -1.
         22    1    3    3    0    0 -0.23004033575E+02  0.53897880885E+02  0.21400847368E+03  0.22188689446E+03  0.00000000000E+00 0. -1.
</event>
<event>
 7    1  0.5553952E-006  0.1167163E+03  0.7818608E-02  0.1388902E+00
          2   -1    0    0  502    0  0.00000000000E+00  0.00000000000E+00  0.55702994824E+03  0.55702994824E+03  0.00000000000E+00 0. -1.
          1   -1    0    0  501    0 -0.00000000000E+00 -0.00000000000E+00 -0.46304942890E+03  0.46304942890E+03  0.00000000000E+00 0. -1.
         25    2    1    2    0    0 -0.73434538788E+02  0.10798004876E+03 -0.14477286230E+03  0.23159562799E+03  0.12500012332E+03 0.  0.
          2    1    1    2  501    0  0.33106260928E+02  0.11674666347E+01 -0.26723907709E+03  0.26928444406E+03  0.00000000000E+00 0. -1.
          1    1    1    2  502    0  0.40328277860E+02 -0.10914751540E+03  0.50599245872E+03  0.51919930508E+03  0.00000000000E+00 0. -1.
         22    1    3    3    0    0 -0.69065574028E+02  0.13592818613E+03 -0.12109587874E+03  0.19470679790E+03  0.00000000000E+00 0. -1.
         22    1    3    3    0    0 -0.43689647599E+01 -0.27948137367E+02 -0.23676983558E+02  0.36888830095E+02  0.00000000000E+00 0. -1.
</event>
<event>
 7    1  0.5553952E-006  0.8089240E+02  0.7818608E-02  0.1447485E+00
          2   -1    0    0  502    0  0.00000000000E+00  0.00000000000E+00  0.17752108815E+03  0.17752108815E+03  0.00000000000E+00 0. -1.
          1   -1    0    0  501    0 -0.00000000000E+00 -0.00000000000E+00 -0.67351173941E+03  0.67351173941E+03  0.00000000000E+00 0. -1.
         25    2    1    2    0    0 -0.37462054858E+02 -0.97298201353E+02 -0.27033529344E+03  0.31555715817E+03  0.12499921462E+03 0.  0.
          2    1    1    2  501    0  0.38176289188E+02  0.66887995495E+02 -0.37512134607E+03  0.38294576283E+03  0.00000000000E+00 0. -1.
          1    1    1    2  502    0 -0.71423432949E+00  0.30410205858E+02  0.14946598824E+03  0.15252990655E+03  0.00000000000E+00 0. -1.
         22    1    3    3    0    0 -0.55004764028E+02 -0.71862585381E+02 -0.26988691198E+03  0.28465540659E+03  0.00000000000E+00 0.  1.
         22    1    3    3    0    0  0.17542709170E+02 -0.25435615972E+02 -0.44838145906E+00  0.30901751582E+02  0.00000000000E+00 0.  1.
</event>
<event>
 7    1  0.5553952E-006  0.7476727E+02  0.7818608E-02  0.1369059E+00
          2   -1    0    0  502    0  0.00000000000E+00  0.00000000000E+00  0.39096370561E+03  0.39096370561E+03  0.00000000000E+00 0. -1.
          1   -1    0    0  501    0 -0.00000000000E+00 -0.00000000000E+00 -0.15501191618E+04  0.15501191618E+04  0.00000000000E+00 0. -1.
         25    2    1    2    0    0 -0.37620130176E+02 -0.15131998051E+02 -0.32008774039E+03  0.34601340167E+03  0.12499944410E+03 0.  0.
          2    1    1    2  501    0 -0.26458699787E+02  0.54754139038E+02 -0.12125450584E+04  0.12140690249E+04  0.00000000000E+00 0. -1.
          1    1    1    2  502    0  0.64078829963E+02 -0.39622140988E+02  0.37347734260E+03  0.38100044086E+03  0.00000000000E+00 0. -1.
         22    1    3    3    0    0 -0.26573844598E+00  0.38502159403E+02 -0.30438853780E+02  0.49081673923E+02  0.00000000000E+00 0. -1.
         22    1    3    3    0    0 -0.37354391730E+02 -0.53634157454E+02 -0.28964888661E+03  0.29693172775E+03  0.00000000000E+00 0. -1.
</event>
<event>
 7    1  0.5553952E-006  0.5553999E+02  0.7818608E-02  0.1437195E+00
          2   -1    0    0  502    0  0.00000000000E+00  0.00000000000E+00  0.10542355905E+04  0.10542355905E+04  0.00000000000E+00 0. -1.
          1   -1    0    0  501    0 -0.00000000000E+00 -0.00000000000E+00 -0.29703471676E+03  0.29703471676E+03  0.00000000000E+00 0. -1.
         25    2    1    2    0    0 -0.42124641545E+02  0.26244720045E+01  0.55301736179E+02  0.14305737316E+03  0.12500302682E+03 0.  0.
          2    1    1    2  501    0  0.13747974455E+02  0.45814566012E+02 -0.25006310962E+03  0.25459681863E+03  0.00000000000E+00 0. -1.
          1    1    1    2  502    0  0.28376667090E+02 -0.48439038017E+02  0.95196224718E+03  0.95361611548E+03  0.00000000000E+00 0. -1.
         22    1    3    3    0    0 -0.20908518044E+02 -0.38745513016E+02  0.79325498665E+02  0.90724393876E+02  0.00000000000E+00 0. -1.
         22    1    3    3    0    0 -0.21216123501E+02  0.41369985021E+02 -0.24023762486E+02  0.52332979286E+02  0.00000000000E+00 0. -1.
</event>
<event>
 7    1  0.5553952E-006  0.7694740E+02  0.7818608E-02  0.1370173E+00
          2   -1    0    0  502    0  0.00000000000E+00  0.00000000000E+00  0.16430730904E+04  0.16430730904E+04  0.00000000000E+00 0. -1.
          1   -1    0    0  501    0 -0.00000000000E+00 -0.00000000000E+00 -0.13567942628E+02  0.13567942628E+02  0.00000000000E+00 0. -1.
         25    2    1    2    0    0 -0.43221990433E+02 -0.55157585675E+02  0.69980789298E+03  0.71432714046E+03  0.12498670649E+03 0.  0.
          2    1    1    2  501    0 -0.40393713165E+02  0.42379169727E+02  0.22241050557E+03  0.22998712807E+03  0.00000000000E+00 0. -1.
          1    1    1    2  502    0  0.83615703598E+02  0.12778415948E+02  0.70728674923E+03  0.71232676451E+03  0.00000000000E+00 0. -1.
         22    1    3    3    0    0  0.21466827525E+02  0.28843318645E+02  0.13829408421E+03  0.14289162131E+03  0.00000000000E+00 0.  1.
         22    1    3    3    0    0 -0.64688817958E+02 -0.84000904320E+02  0.56151380877E+03  0.57143551914E+03  0.00000000000E+00 0.  1.
</event>
<event>
 7    1  0.5553952E-006  0.6200685E+02  0.7818608E-02  0.1535296E+00
          2   -1    0    0  502    0  0.00000000000E+00  0.00000000000E+00  0.58261844168E+03  0.58261844168E+03  0.00000000000E+00 0. -1.
          1   -1    0    0  501    0 -0.00000000000E+00 -0.00000000000E+00 -0.10551588080E+03  0.10551588080E+03  0.00000000000E+00 0. -1.
         25    2    1    2    0    0  0.41142160830E+02  0.40638987203E+01 -0.27649222172E+02  0.13453090596E+03  0.12499957000E+03 0.  0.
          2    1    1    2  501    0  0.20339884292E+02  0.70841388872E+01 -0.17423241131E+02  0.27703163146E+02  0.00000000000E+00 0. -1.
          1    1    1    2  502    0 -0.61482045123E+02 -0.11148037608E+02  0.52217502419E+03  0.52590025338E+03  0.00000000000E+00 0. -1.
         22    1    3    3    0    0  0.60590548564E+02  0.22903229587E+02  0.29587754030E+02  0.71212412467E+02  0.00000000000E+00 0.  1.
         22    1    3    3    0    0 -0.19448387734E+02 -0.18839330867E+02 -0.57236976202E+02  0.63318493489E+02  0.00000000000E+00 0.  1.
</event>
<event>
 7    1  0.5553952E-006  0.8773468E+02  0.7818608E-02  0.1344020E+00
          2   -1    0    0  502    0  0.00000000000E+00  0.00000000000E+00  0.11657853829E+04  0.11657853829E+04  0.00000000000E+00 0. -1.
          1   -1    0    0  501    0 -0.00000000000E+00 -0.00000000000E+00 -0.36629020463E+02  0.36629020463E+02  0.00000000000E+00 0. -1.
         25    2    1    2    0    0 -0.83922361318E+02 -0.10094569845E+03  0.50882154161E+03  0.54014586637E+03  0.12500079591E+03 0.  0.
          2    1    1    2  501    0  0.59602372075E+02  0.23401175871E+02  0.38351604945E+02  0.74638484651E+02  0.00000000000E+00 0. -1.
          1    1    1    2  502    0  0.24319989243E+02  0.77544522574E+02  0.58198321591E+03  0.58763005237E+03  0.00000000000E+00 0. -1.
         22    1    3    3    0    0 -0.70651939009E+02  0.71562586643E+00  0.13314444813E+03  0.15073039731E+03  0.00000000000E+00 0. -1.
         22    1    3    3    0    0 -0.13270422309E+02 -0.10166132431E+03  0.37567709348E+03  0.38941546905E+03  0.00000000000E+00 0. -1.
</event>
<event>
 7    1  0.5553952E-006  0.5719908E+02  0.7818608E-02  0.1460719E+00
          2   -1    0    0  502    0  0.00000000000E+00  0.00000000000E+00  0.62782527897E+02  0.62782527897E+02  0.00000000000E+00 0. -1.
          1   -1    0    0  501    0 -0.00000000000E+00 -0.00000000000E+00 -0.24335033865E+04  0.24335033865E+04  0.00000000000E+00 0. -1.
         25    2    1    2    0    0  0.41640221253E+02  0.32095888419E+02 -0.43674512405E+02  0.14246598707E+03  0.12500016144E+03 0.  0.
          2    1    1    2  501    0 -0.57205806339E+02  0.37116617816E+01 -0.23108314173E+04  0.23115423681E+04  0.00000000000E+00 0. -1.
          1    1    1    2  502    0  0.15565585086E+02 -0.35807550201E+02 -0.16214928948E+02  0.42277559192E+02  0.00000000000E+00 0. -1.
         22    1    3    3    0    0 -0.44983104208E+02  0.87935864588E+01 -0.12626559539E+02  0.47541948139E+02  0.00000000000E+00 0.  1.
         22    1    3    3    0    0  0.86623325462E+02  0.23302301960E+02 -0.31047952866E+02  0.94924038936E+02  0.00000000000E+00 0.  1.
</event>
<event>
 7    1  0.5553952E-006  0.6726059E+02  0.7818608E-02  0.1477808E+00
          2   -1    0    0  502    0  0.00000000000E+00  0.00000000000E+00  0.27117695447E+02  0.27117695447E+02  0.00000000000E+00 0. -1.
          1   -1    0    0  501    0 -0.00000000000E+00 -0.00000000000E+00 -0.27745993923E+04  0.27745993923E+04  0.00000000000E+00 0. -1.
         25    2    1    2    0    0  0.75804112870E+00  0.40885994659E+02 -0.10223897620E+04  0.10308146676E+04  0.12500325740E+03 0.  0.
          2    1    1    2  501    0 -0.12011626029E+02  0.26806457486E+02 -0.16961875120E+04  0.16964418472E+04  0.00000000000E+00 0. -1.
          1    1    1    2  502    0  0.11253584900E+02 -0.67692452145E+02 -0.28904422877E+02  0.74460572871E+02  0.00000000000E+00 0. -1.
         22    1    3    3    0    0  0.74032929148E+01 -0.26463845198E+02 -0.59386014245E+02  0.65435789416E+02  0.00000000000E+00 0. -1.
         22    1    3    3    0    0 -0.66452517861E+01  0.67349839857E+02 -0.96300374773E+03  0.96537887818E+03  0.00000000000E+00 0. -1.
</event>
<event>
 7    1  0.5553952E-006  0.2037288E+03  0.7818608E-02  0.1169327E+00
          2   -1    0    0  502    0  0.00000000000E+00  0.00000000000E+00  0.14172766257E+04  0.14172766257E+04  0.00000000000E+00 0. -1.
          1   -1    0    0  501    0 -0.00000000000E+00 -0.00000000000E+00 -0.18570519226E+04  0.18570519226E+04  0.00000000000E+00 0. -1.
         25    2    1    2    0    0 -0.11095716825E+03  0.17648516985E+02  0.28314062221E+03  0.32926820000E+03  0.12500388894E+03 0.  0.
          2    1    1    2  501    0 -0.15615340332E+03  0.62851960268E+01 -0.18143972948E+04  0.18211152991E+04  0.00000000000E+00 0. -1.
          1    1    1    2  502    0  0.26711057157E+03 -0.23933713011E+02  0.10914813758E+04  0.11239450493E+04  0.00000000000E+00 0. -1.
         22    1    3    3    0    0 -0.50741726793E+02  0.62054527619E+01  0.25800635914E+03  0.26302188472E+03  0.00000000000E+00 0.  1.
         22    1    3    3    0    0 -0.60215441456E+02  0.11443064223E+02  0.25134263062E+02  0.66246315280E+02  0.00000000000E+00 0.  1.
</event>
<event>
 7    1  0.5553952E-006  0.9259207E+02  0.7818608E-02  0.1416942E+00
          2   -1    0    0  502    0  0.00000000000E+00  0.00000000000E+00  0.41346367877E+03  0.41346367877E+03  0.00000000000E+00 0. -1.
          1   -1    0    0  501    0 -0.00000000000E+00 -0.00000000000E+00 -0.34382189676E+03  0.34382189676E+03  0.00000000000E+00 0. -1.
         25    2    1    2    0    0  0.68655326572E+02  0.72755991353E+02 -0.57720485824E+02  0.17018825105E+03  0.12500159265E+03 0.  0.
          2    1    1    2  501    0  0.13648090019E+02 -0.30566265997E+02 -0.22260885031E+03  0.22511167720E+03  0.00000000000E+00 0. -1.
          1    1    1    2  502    0 -0.82303416591E+02 -0.42189725356E+02  0.34997111814E+03  0.36198564728E+03  0.00000000000E+00 0. -1.
         22    1    3    3    0    0  0.56835734641E+02 -0.13320439536E+02  0.11011078893E+02  0.59405207684E+02  0.00000000000E+00 0. -1.
         22    1    3    3    0    0  0.11819591931E+02  0.86076430889E+02 -0.68731564718E+02  0.11078304336E+03  0.00000000000E+00 0. -1.
</event>
<event>
 7    1  0.5553952E-006  0.4887114E+02  0.7818608E-02  0.1458791E+00
          2   -1    0    0  502    0  0.00000000000E+00  0.00000000000E+00  0.99551686037E+03  0.99551686037E+03  0.00000000000E+00 0. -1.
          1   -1    0    0  501    0 -0.00000000000E+00 -0.00000000000E+00 -0.72228163952E+02  0.72228163952E+02  0.00000000000E+00 0. -1.
         25    2    1    2    0    0  0.57930894407E+02  0.64014422010E+02  0.27481893188E+03  0.31401167343E+03  0.12499620384E+03 0.  0.
          2    1    1    2  501    0 -0.15632177189E+02 -0.45081710507E+02 -0.40877151761E+02  0.62830463328E+02  0.00000000000E+00 0. -1.
          1    1    1    2  502    0 -0.42298717218E+02 -0.18932711503E+02  0.68934691629E+03  0.69090288757E+03  0.00000000000E+00 0. -1.
         22    1    3    3    0    0 -0.28367343950E+01  0.74941286503E+02  0.80053760509E+02  0.10969433922E+03  0.00000000000E+00 0. -1.
         22    1    3    3    0    0  0.60767628802E+02 -0.10926864494E+02  0.19476517137E+03  0.20431733421E+03  0.00000000000E+00 0. -1.
</event>
<event>
 7    1  0.5553952E-006  0.1058741E+03  0.7818608E-02  0.1358582E+00
          2   -1    0    0  502    0  0.00000000000E+00  0.00000000000E+00  0.11453539223E+04  0.11453539223E+04  0.00000000000E+00 0. -1.
          1   -1    0    0  501    0 -0.00000000000E+00 -0.00000000000E+00 -0.63813930332E+03  0.63813930332E+03  0.00000000000E+00 0. -1.
         25    2    1    2    0    0  0.35248824964E+02 -0.56073871924E+02  0.24964487695E+03  0.28693916126E+03  0.12499903561E+03 0.  0.
          2    1    1    2  501    0 -0.79784316109E+02  0.70692817289E+02 -0.61427231192E+03  0.62345287288E+03  0.00000000000E+00 0. -1.
          1    1    1    2  502    0  0.44535491146E+02 -0.14618945365E+02  0.87184205395E+03  0.87310119148E+03  0.00000000000E+00 0. -1.
         22    1    3    3    0    0  0.65361246631E+02 -0.49887141736E+02  0.24153363158E+03  0.25514567340E+03  0.00000000000E+00 0. -1.
         22    1    3    3    0    0 -0.30112421667E+02 -0.61867301884E+01  0.81112453782E+01  0.31793487866E+02  0.00000000000E+00 0. -1.
</event>
<event>
 7    1  0.5553952E-006  0.8569643E+02  0.7818608E-02  0.1359608E+00
          2   -1    0    0  502    0  0.00000000000E+00  0.00000000000E+00  0.22096623359E+03  0.22096623359E+03  0.00000000000E+00 0. -1.
          1   -1    0    0  501    0 -0.00000000000E+00 -0.00000000000E+00 -0.40019321879E+03  0.40019321879E+03  0.00000000000E+00 0. -1.
         25    2    1    2    0    0  0.21407720891E+02 -0.34842366905E+02  0.15980582186E+01  0.13152741118E+03  0.12499850022E+03 0.  0.
          2    1    1    2  501    0  0.46387299618E+02 -0.33828903701E+02 -0.31731952594E+03  0.32247148375E+03  0.00000000000E+00 0. -1.
          1    1    1    2  502    0 -0.67795020508E+02  0.68671270605E+02  0.13649448252E+03  0.16716055746E+03  0.00000000000E+00 0. -1.
         22    1    3    3    0    0  0.10762640788E+02  0.37269824541E+02  0.34162133260E+02  0.51690672339E+02  0.00000000000E+00 0. -1.
         22    1    3    3    0    0  0.10645080102E+02 -0.72112191445E+02 -0.32564075041E+02  0.79836738841E+02  0.00000000000E+00 0. -1.
</event>
<event>
 7    1  0.5553952E-006  0.8624594E+02  0.7818608E-02  0.1463674E+00
          2   -1    0    0  502    0  0.00000000000E+00  0.00000000000E+00  0.14766628267E+03  0.14766628267E+03  0.00000000000E+00 0. -1.
          1   -1    0    0  501    0 -0.00000000000E+00 -0.00000000000E+00 -0.19982319305E+03  0.19982319305E+03  0.00000000000E+00 0. -1.
         25    2    1    2    0    0  0.65285687603E+02 -0.20765381903E+02  0.34986802394E+02  0.14677186468E+03  0.12499792730E+03 0.  0.
          2    1    1    2  501    0 -0.78443472211E+02  0.42429070479E+02 -0.12597388687E+03  0.15434709109E+03  0.00000000000E+00 0. -1.
          1    1    1    2  502    0  0.13157784608E+02 -0.21663688576E+02  0.38830174104E+02  0.46370519940E+02  0.00000000000E+00 0. -1.
         22    1    3    3    0    0  0.10264212845E+03 -0.75856375066E+01  0.24680513775E+02  0.10583986106E+03  0.00000000000E+00 0. -1.
         22    1    3    3    0    0 -0.37356440850E+02 -0.13179744396E+02  0.10306288619E+02  0.40932003621E+02  0.00000000000E+00 0. -1.
</event>
<event>
 7    1  0.5553952E-006  0.7197436E+02  0.7818608E-02  0.1382423E+00
          2   -1    0    0  502    0  0.00000000000E+00  0.00000000000E+00  0.20609650612E+03  0.20609650612E+03  0.00000000000E+00 0. -1.
          1   -1    0    0  501    0 -0.00000000000E+00 -0.00000000000E+00 -0.13593413005E+04  0.13593413005E+04  0.00000000000E+00 0. -1.
         25    2    1    2    0    0 -0.11126102734E+03  0.47499623509E+02 -0.17093976881E+03  0.24388394080E+03  0.12499496622E+03 0.  0.
          2    1    1    2  501    0  0.41434604511E+02 -0.38571732837E+02 -0.11438956983E+04  0.11452955836E+04  0.00000000000E+00 0. -1.
          1    1    1    2  502    0  0.69826422825E+02 -0.89278906714E+01  0.16159067275E+03  0.17625828229E+03  0.00000000000E+00 0. -1.
         22    1    3    3    0    0 -0.73327763782E+02 -0.19281141774E+02 -0.26542122660E+02  0.80331859462E+02  0.00000000000E+00 0.  1.
         22    1    3    3    0    0 -0.37933263554E+02  0.66780765283E+02 -0.14439764615E+03  0.16355208134E+03  0.00000000000E+00 0.  1.
</event>
<event>
 7    1  0.5553952E-006  0.7641976E+02  0.7818608E-02  0.1387552E+00
          2   -1    0    0  502    0  0.00000000000E+00  0.00000000000E+00  0.39683066860E+02  0.39683066860E+02  0.00000000000E+00 0. -1.
          1   -1    0    0  501    0 -0.00000000000E+00 -0.00000000000E+00 -0.62586419878E+03  0.62586419878E+03  0.00000000000E+00 0. -1.
         25    2    1    2    0    0 -0.27763316546E+02  0.35430174218E+02 -0.25459237306E+03  0.28717285825E+03  0.12499950040E+03 0.  0.
          2    1    1    2  501    0  0.78138496741E+02 -0.44287578053E+02 -0.31018811849E+03  0.32292984237E+03  0.00000000000E+00 0. -1.
          1    1    1    2  502    0 -0.50375180194E+02  0.88574038346E+01 -0.21400640369E+02  0.55444565022E+02  0.00000000000E+00 0. -1.
         22    1    3    3    0    0 -0.37336177497E+02  0.79454244840E+02 -0.16621054220E+03  0.18797050703E+03  0.00000000000E+00 0.  1.
         22    1    3    3    0    0  0.95728609507E+01 -0.44024070622E+02 -0.88381830860E+02  0.99202351218E+02  0.00000000000E+00 0.  1.
</event>
<event>
 7    1  0.5553952E-006  0.5428647E+02  0.7818608E-02  0.1530052E+00
          2   -1    0    0  502    0  0.00000000000E+00  0.00000000000E+00  0.14571993608E+03  0.14571993608E+03  0.00000000000E+00 0. -1.
          1   -1    0    0  501    0 -0.00000000000E+00 -0.00000000000E+00 -0.70131276400E+03  0.70131276400E+03  0.00000000000E+00 0. -1.
         25    2    1    2    0    0  0.23277857344E+02  0.20569242994E+02 -0.73695247734E+02  0.14839790898E+03  0.12500398974E+03 0.  0.
          2    1    1    2  501    0  0.12811667212E+02  0.22006266858E+02 -0.58278326301E+03  0.58333930628E+03  0.00000000000E+00 0. -1.
          1    1    1    2  502    0 -0.36089524556E+02 -0.42575509852E+02  0.10088568283E+03  0.11529548483E+03  0.00000000000E+00 0. -1.
         22    1    3    3    0    0  0.74278595802E+02  0.19102982026E+02 -0.53562097297E+02  0.93547485180E+02  0.00000000000E+00 0. -1.
         22    1    3    3    0    0 -0.51000738458E+02  0.14662609675E+01 -0.20133150437E+02  0.54850423800E+02  0.00000000000E+00 0. -1.
</event>
<event>
 7    1  0.5553952E-006  0.5604452E+02  0.7818608E-02  0.1416457E+00
          2   -1    0    0  502    0  0.00000000000E+00  0.00000000000E+00  0.23136407000E+03  0.23136407000E+03  0.00000000000E+00 0. -1.
          1   -1    0    0  501    0 -0.00000000000E+00 -0.00000000000E+00 -0.18808706748E+04  0.18808706748E+04  0.00000000000E+00 0. -1.
         25    2    1    2    0    0 -0.49906366826E+02 -0.98676217619E+00 -0.43230054703E+03  0.45276930676E+03  0.12499865210E+03 0.  0.
          2    1    1    2  501    0  0.26575868040E+02  0.51358171675E+02 -0.14342599944E+04  0.14354252576E+04  0.00000000000E+00 0. -1.
          1    1    1    2  502    0  0.23330498786E+02 -0.50371409498E+02  0.21705393662E+03  0.22404018048E+03  0.00000000000E+00 0. -1.
         22    1    3    3    0    0 -0.29579996627E+02 -0.59195007135E+02 -0.29388287602E+03  0.30124104948E+03  0.00000000000E+00 0.  1.
         22    1    3    3    0    0 -0.20326370199E+02  0.58208244959E+02 -0.13841767101E+03  0.15152825728E+03  0.00000000000E+00 0.  1.
</event>
<event>
 7    1  0.5553952E-006  0.6445025E+02  0.7818608E-02  0.1454853E+00
          2   -1    0    0  502    0  0.00000000000E+00  0.00000000000E+00  0.15137322802E+03  0.15137322802E+03  0.00000000000E+00 0. -1.
          1   -1    0    0  501    0 -0.00000000000E+00 -0.00000000000E+00 -0.53091530061E+03  0.53091530061E+03  0.00000000000E+00 0. -1.
         25    2    1    2    0    0  0.33460651039E+02  0.34136058115E+02 -0.87951187277E+01  0.13411283041E+03  0.12499604608E+03 0.  0.
          2    1    1    2  501    0 -0.63750769109E+02 -0.14377435416E+02 -0.45333249516E+03  0.45801880134E+03  0.00000000000E+00 0. -1.
          1    1    1    2  502    0  0.30290118070E+02 -0.19758622699E+02  0.82585541295E+02  0.90156896878E+02  0.00000000000E+00 0. -1.
         22    1    3    3    0    0  0.10196583494E+01 -0.31019763938E+02 -0.43532163496E+02  0.53463208999E+02  0.00000000000E+00 0. -1.
         22    1    3    3    0    0  0.32440992689E+02  0.65155822053E+02  0.34737044768E+02  0.80649621408E+02  0.00000000000E+00 0. -1.
</event>
<event>
 7    1  0.5553952E-006  0.1822770E+03  0.7818608E-02  0.1333650E+00
          2   -1    0    0  502    0  0.00000000000E+00  0.00000000000E+00  0.96287677872E+03  0.96287677872E+03  0.00000000000E+00 0. -1.
          1   -1    0    0  501    0 -0.00000000000E+00 -0.00000000000E+00 -0.12304512631E+04  0.12304512631E+04  0.00000000000E+00 0. -1.
         25    2    1    2    0    0 -0.14152909574E+03 -0.49570964426E+02  0.33426118757E+03  0.38709529704E+03  0.12499784805E+03 0.  0.
          2    1    1    2  501    0  0.17508732340E+03  0.52893042888E+02 -0.11966077667E+04  0.12105054284E+04  0.00000000000E+00 0. -1.
          1    1    1    2  502    0 -0.33558227664E+02 -0.33220784614E+01  0.59477209474E+03  0.59572731642E+03  0.00000000000E+00 0. -1.
         22    1    3    3    0    0 -0.10717012963E+03 -0.87800283297E+01  0.31071547390E+03  0.32879572884E+03  0.00000000000E+00 0.  1.
         22    1    3    3    0    0 -0.34358966106E+02 -0.40790936097E+02  0.23545713669E+02  0.58299568195E+02  0.00000000000E+00 0.  1.
</event>
<event>
 7    1  0.5553952E-006  0.9172203E+02  0.7818608E-02  0.1435097E+00
          2   -1    0    0  502    0  0.00000000000E+00  0.00000000000E+00  0.10004661608E+04  0.10004661608E+04  0.00000000000E+00 0. -1.
          1   -1    0    0  501    0 -0.00000000000E+00 -0.00000000000E+00 -0.42762815670E+03  0.42762815670E+03  0.00000000000E+00 0. -1.
         25    2    1    2    0    0 -0.48161603026E+02  0.10881908923E+03 -0.56439765737E+02  0.18158003413E+03  0.12499890981E+03 0.  0.
          2    1    1    2  501    0  0.19162891131E+02 -0.22328388756E+02 -0.30569202606E+03  0.30710484877E+03  0.00000000000E+00 0. -1.
          1    1    1    2  502    0  0.28998711895E+02 -0.86490700471E+02  0.93496979592E+03  0.93940943462E+03  0.00000000000E+00 0. -1.
         22    1    3    3    0    0 -0.41047522352E+02  0.11443447248E+03 -0.87134872726E+02  0.14957484290E+03  0.00000000000E+00 0. -1.
         22    1    3    3    0    0 -0.71140806740E+01 -0.56153832524E+01  0.30695106990E+02  0.32005191235E+02  0.00000000000E+00 0. -1.
</event>
<event>
 7    1  0.5553952E-006  0.8635867E+02  0.7818608E-02  0.1361853E+00
          2   -1    0    0  502    0  0.00000000000E+00  0.00000000000E+00  0.16406911482E+04  0.16406911482E+04  0.00000000000E+00 0. -1.
          1   -1    0    0  501    0 -0.00000000000E+00 -0.00000000000E+00 -0.13575380646E+04  0.13575380646E+04  0.00000000000E+00 0. -1.
         25    2    1    2    0    0  0.11899222980E+03  0.29983685154E+01  0.53077266237E+02  0.18058237350E+03  0.12499862584E+03 0.  0.
          2    1    1    2  501    0 -0.76557631045E+02 -0.39399416731E+02 -0.12918391630E+04  0.12947052978E+04  0.00000000000E+00 0. -1.
          1    1    1    2  502    0 -0.42434598753E+02  0.36401048216E+02  0.15219149804E+04  0.15229415416E+04  0.00000000000E+00 0. -1.
         22    1    3    3    0    0  0.41284102678E+02 -0.40556607966E+02 -0.24127389001E+02  0.62700450426E+02  0.00000000000E+00 0. -1.
         22    1    3    3    0    0  0.77708127121E+02  0.43554976482E+02  0.77204655238E+02  0.11788192307E+03  0.00000000000E+00 0. -1.
</event>
<event>
 7    1  0.5553952E-006  0.1657746E+03  0.7818608E-02  0.1230809E+00
          2   -1    0    0  502    0  0.00000000000E+00  0.00000000000E+00  0.34768422719E+04  0.34768422719E+04  0.00000000000E+00 0. -1.
          1   -1    0    0  501    0 -0.00000000000E+00 -0.00000000000E+00 -0.13718265159E+03  0.13718265159E+03  0.00000000000E+00 0. -1.
         25    2    1    2    0    0  0.20170995495E+03  0.43071098850E+02  0.22679322585E+03  0.33105991577E+03  0.12499390008E+03 0.  0.
          2    1    1    2  501    0 -0.12277926829E+03 -0.10194920811E+03 -0.87196106513E+01  0.15982622240E+03  0.00000000000E+00 0. -1.
          1    1    1    2  502    0 -0.78930686660E+02  0.58878109260E+02  0.31215860051E+04  0.31231387853E+04  0.00000000000E+00 0. -1.
         22    1    3    3    0    0 -0.20102232000E+01 -0.15961856856E+02 -0.50228244507E+01  0.16853801858E+02  0.00000000000E+00 0.  1.
         22    1    3    3    0    0  0.20372017815E+03  0.59032955706E+02  0.23181605030E+03  0.31420611392E+03  0.00000000000E+00 0.  1.
</event>
<event>
 7    1  0.5553952E-006  0.7510544E+02  0.7818608E-02  0.1379836E+00
          2   -1    0    0  502    0  0.00000000000E+00  0.00000000000E+00  0.16658994623E+03  0.16658994623E+03  0.00000000000E+00 0. -1.
          1   -1    0    0  501    0 -0.00000000000E+00 -0.00000000000E+00 -0.25951685593E+04  0.25951685593E+04  0.00000000000E+00 0. -1.
         25    2    1    2    0    0 -0.33402845009E+00  0.24272567855E+02  0.29383819888E+02  0.13067746874E+03  0.12499569129E+03 0.  0.
          2    1    1    2  501    0 -0.35223523917E+02 -0.66760664969E+02 -0.25350365181E+04  0.25361600563E+04  0.00000000000E+00 0. -1.
          1    1    1    2  502    0  0.35557552367E+02  0.42488097113E+02  0.77074085180E+02  0.94920980468E+02  0.00000000000E+00 0. -1.
         22    1    3    3    0    0  0.24860566860E+02  0.56384587997E+02 -0.21663129250E+02  0.65318915462E+02  0.00000000000E+00 0.  1.
         22    1    3    3    0    0 -0.25194595310E+02 -0.32112020142E+02  0.51046949138E+02  0.65358553279E+02  0.00000000000E+00 0.  1.
</event>
<event>
 7    1  0.5553952E-006  0.3179654E+02  0.7818608E-02  0.1655230E+00
          2   -1    0    0  502    0  0.00000000000E+00  0.00000000000E+00  0.98836701143E+03  0.98836701143E+03  0.00000000000E+00 0. -1.
          1   -1    0    0  501    0 -0.00000000000E+00 -0.00000000000E+00 -0.70417887792E+02  0.70417887792E+02  0.00000000000E+00 0. -1.
         25    2    1    2    0    0 -0.54055677497E+00 -0.14661272523E+02  0.94651264743E+03  0.95484347551E+03  0.12499850347E+03 0.  0.
          2    1    1    2  501    0 -0.23961630446E+02 -0.20901204313E+02 -0.47195637602E+02  0.56907365815E+02  0.00000000000E+00 0. -1.
          1    1    1    2  502    0  0.24502187221E+02  0.35562476835E+02  0.18632113812E+02  0.47034057898E+02  0.00000000000E+00 0. -1.
         22    1    3    3    0    0 -0.11011631968E+02 -0.76247527603E+01  0.67542928157E+01  0.15000445483E+02  0.00000000000E+00 0.  1.
         22    1    3    3    0    0  0.10471075193E+02 -0.70365197622E+01  0.93975835461E+03  0.93984303003E+03  0.00000000000E+00 0.  1.
</event>
<event>
 7    1  0.5553952E-006  0.7674234E+02  0.7818608E-02  0.1379475E+00
          2   -1    0    0  502    0  0.00000000000E+00  0.00000000000E+00  0.13984772665E+03  0.13984772665E+03  0.00000000000E+00 0. -1.
          1   -1    0    0  501    0 -0.00000000000E+00 -0.00000000000E+00 -0.26126451925E+03  0.26126451925E+03  0.00000000000E+00 0. -1.
         25    2    1    2    0    0 -0.49698630420E+02 -0.73666589714E+02  0.51299976018E+01  0.15345258205E+03  0.12499863102E+03 0.  0.
          2    1    1    2  501    0  0.73179552251E+02  0.24615120252E+02 -0.16424628881E+03  0.18148827621E+03  0.00000000000E+00 0. -1.
          1    1    1    2  502    0 -0.23480921831E+02  0.49051469463E+02  0.37699498610E+02  0.66171387638E+02  0.00000000000E+00 0. -1.
         22    1    3    3    0    0  0.27812089149E+02 -0.59392015239E+02  0.28116901909E+02  0.71354635098E+02  0.00000000000E+00 0.  1.
         22    1    3    3    0    0 -0.77510719570E+02 -0.14274574476E+02 -0.22986904307E+02  0.82097946955E+02  0.00000000000E+00 0.  1.
</event>
<event>
 7    1  0.5553952E-006  0.6133227E+02  0.7818608E-02  0.1408515E+00
          2   -1    0    0  502    0  0.00000000000E+00  0.00000000000E+00  0.73403631962E+02  0.73403631962E+02  0.00000000000E+00 0. -1.
          1   -1    0    0  501    0 -0.00000000000E+00 -0.00000000000E+00 -0.26696393344E+04  0.26696393344E+04  0.00000000000E+00 0. -1.
         25    2    1    2    0    0 -0.83004657401E+02  0.22116480676E+02 -0.42214290670E+03  0.44856290321E+03  0.12500053036E+03 0.  0.
          2    1    1    2  501    0  0.55966803599E+02  0.24577323575E+02 -0.22216894051E+04  0.22225301215E+04  0.00000000000E+00 0. -1.
          1    1    1    2  502    0  0.27037853802E+02 -0.46693804251E+02  0.47596609349E+02  0.71949941732E+02  0.00000000000E+00 0. -1.
         22    1    3    3    0    0 -0.11628743016E+02 -0.78739667233E+01  0.46586167978E+01  0.14796274077E+02  0.00000000000E+00 0.  1.
         22    1    3    3    0    0 -0.71375914384E+02  0.29990447399E+02 -0.42680152349E+03  0.43376662913E+03  0.00000000000E+00 0.  1.
</event>
<event>
 7    1  0.5553952E-006  0.1917578E+03  0.7818608E-02  0.1181624E+00
          2   -1    0    0  502    0  0.00000000000E+00  0.00000000000E+00  0.14348664401E+04  0.14348664401E+04  0.00000000000E+00 0. -1.
          1   -1    0    0  501    0 -0.00000000000E+00 -0.00000000000E+00 -0.24949792696E+03  0.24949792696E+03  0.00000000000E+00 0. -1.
         25    2    1    2    0    0  0.79456764010E+02 -0.40254162035E+02 -0.47584303814E+02  0.16069526919E+03  0.12499971465E+03 0.  0.
          2    1    1    2  501    0  0.11581299217E+03  0.86325136205E+02 -0.10001172564E+03  0.17569013507E+03  0.00000000000E+00 0. -1.
          1    1    1    2  502    0 -0.19526975618E+03 -0.46070974171E+02  0.13329645426E+04  0.13479789628E+04  0.00000000000E+00 0. -1.
         22    1    3    3    0    0  0.25307621017E+02 -0.47883260430E+02 -0.80385294653E+02  0.96928210070E+02  0.00000000000E+00 0. -1.
         22    1    3    3    0    0  0.54149142993E+02  0.76290983950E+01  0.32800990839E+02  0.63767059123E+02  0.00000000000E+00 0. -1.
</event>
<event>
 7    1  0.5553952E-006  0.9289772E+02  0.7818608E-02  0.1392657E+00
          2   -1    0    0  502    0  0.00000000000E+00  0.00000000000E+00  0.55436403017E+02  0.55436403017E+02  0.00000000000E+00 0. -1.
          1   -1    0    0  501    0 -0.00000000000E+00 -0.00000000000E+00 -0.17971778455E+04  0.17971778455E+04  0.00000000000E+00 0. -1.
         25    2    1    2    0    0 -0.51379042627E+02  0.22526103660E+02 -0.26208411222E+03  0.29573742295E+03  0.12500124034E+03 0.  0.
          2    1    1    2  501    0  0.90225271439E+02 -0.33567076523E+02 -0.15057317456E+04  0.15088059643E+04  0.00000000000E+00 0. -1.
          1    1    1    2  502    0 -0.38846228812E+02  0.11040972863E+02  0.26074415283E+02  0.48070861310E+02  0.00000000000E+00 0. -1.
         22    1    3    3    0    0  0.16680957374E+02  0.43705269607E+02 -0.18468233464E+03  0.19051501163E+03  0.00000000000E+00 0.  1.
         22    1    3    3    0    0 -0.68060000001E+02 -0.21179165947E+02 -0.77401777583E+02  0.10522241132E+03  0.00000000000E+00 0.  1.
</event>
<event>
 7    1  0.5553952E-006  0.2053386E+03  0.7818608E-02  0.1232812E+00
          2   -1    0    0  502    0  0.00000000000E+00  0.00000000000E+00  0.13999798157E+04  0.13999798157E+04  0.00000000000E+00 0. -1.
          1   -1    0    0  501    0 -0.00000000000E+00 -0.00000000000E+00 -0.86734472805E+03  0.86734472805E+03  0.00000000000E+00 0. -1.
         25    2    1    2    0    0 -0.12915282667E+03  0.18814551445E+03  0.23797039157E+03  0.35260812894E+03  0.12499359220E+03 0.  0.
          2    1    1    2  501    0  0.51929856840E+02 -0.19820880906E+03 -0.79565737024E+03  0.82161675545E+03  0.00000000000E+00 0. -1.
          1    1    1    2  502    0  0.77222969827E+02  0.10063294610E+02  0.10903220663E+04  0.10930996593E+04  0.00000000000E+00 0. -1.
         22    1    3    3    0    0 -0.37262610692E+02  0.15309807957E+03  0.11460054578E+03  0.19483533872E+03  0.00000000000E+00 0.  1.
         22    1    3    3    0    0 -0.91890215976E+02  0.35047434879E+02  0.12336984579E+03  0.15777279022E+03  0.00000000000E+00 0.  1.
</event>
<event>
 7    1  0.5553952E-006  0.8720817E+02  0.7818608E-02  0.1428417E+00
          2   -1    0    0  502    0  0.00000000000E+00  0.00000000000E+00  0.15190391322E+04  0.15190391322E+04  0.00000000000E+00 0. -1.
          1   -1    0    0  501    0 -0.00000000000E+00 -0.00000000000E+00 -0.23080439378E+02  0.23080439378E+02  0.00000000000E+00 0. -1.
         25    2    1    2    0    0 -0.56570056558E+02  0.71675653155E+02  0.10059670523E+04  0.10178079890E+04  0.12500328573E+03 0.  0.
          2    1    1    2  501    0  0.74972369062E+02 -0.44826286247E+02  0.99244076608E+02  0.13221058506E+03  0.00000000000E+00 0. -1.
          1    1    1    2  502    0 -0.18402312505E+02 -0.26849366909E+02  0.39074756385E+03  0.39210099753E+03  0.00000000000E+00 0. -1.
         22    1    3    3    0    0  0.24556371610E+02  0.29106177728E+02  0.96564478371E+02  0.10380213606E+03  0.00000000000E+00 0.  1.
         22    1    3    3    0    0 -0.81126428167E+02  0.42569475427E+02  0.90940257396E+03  0.91400585289E+03  0.00000000000E+00 0.  1.
</event>
<event>
 7    1  0.5553952E-006  0.2071026E+03  0.7818608E-02  0.1272457E+00
          2   -1    0    0  502    0  0.00000000000E+00  0.00000000000E+00  0.10580284374E+04  0.10580284374E+04  0.00000000000E+00 0. -1.
          1   -1    0    0  501    0 -0.00000000000E+00 -0.00000000000E+00 -0.39405822217E+03  0.39405822217E+03  0.00000000000E+00 0. -1.
         25    2    1    2    0    0 -0.19181255478E+03 -0.16185216091E+03  0.29204046642E+03  0.40484695025E+03  0.12500096376E+03 0.  0.
          2    1    1    2  501    0  0.14258817513E+03  0.14494438289E+03 -0.30595836460E+03  0.36735647904E+03  0.00000000000E+00 0. -1.
          1    1    1    2  502    0  0.49224379646E+02  0.16907778019E+02  0.67788811346E+03  0.67988323032E+03  0.00000000000E+00 0. -1.
         22    1    3    3    0    0 -0.60249395248E+02 -0.12690416771E+03  0.11515651954E+03  0.18164713431E+03  0.00000000000E+00 0. -1.
         22    1    3    3    0    0 -0.13156315953E+03 -0.34947993200E+02  0.17688394688E+03  0.22319981594E+03  0.00000000000E+00 0. -1.
</event>
<event>
 7    1  0.5553952E-006  0.1410605E+03  0.7818608E-02  0.1240959E+00
          2   -1    0    0  502    0  0.00000000000E+00  0.00000000000E+00  0.65103837111E+03  0.65103837111E+03  0.00000000000E+00 0. -1.
          1   -1    0    0  501    0 -0.00000000000E+00 -0.00000000000E+00 -0.18465936266E+04  0.18465936266E+04  0.00000000000E+00 0. -1.
         25    2    1    2    0    0  0.11428621139E+03 -0.11706374957E+02  0.27097973026E+02  0.17192418692E+03  0.12500099432E+03 0.  0.
          2    1    1    2  501    0  0.22756028084E+01  0.10429218364E+03 -0.17625659266E+04  0.17656502155E+04  0.00000000000E+00 0. -1.
          1    1    1    2  502    0 -0.11656181419E+03 -0.92585808682E+02  0.53991269808E+03  0.56005759529E+03  0.00000000000E+00 0. -1.
         22    1    3    3    0    0  0.74180000512E+02  0.53941549777E+02  0.24570985754E+02  0.94953128486E+02  0.00000000000E+00 0.  1.
         22    1    3    3    0    0  0.40106210874E+02 -0.65647924734E+02  0.25269872715E+01  0.76971058439E+02  0.00000000000E+00 0.  1.
</event>
<event>
 7    1  0.5553952E-006  0.5306111E+02  0.7818608E-02  0.1521831E+00
          2   -1    0    0  502    0  0.00000000000E+00  0.00000000000E+00  0.40509937384E+03  0.40509937384E+03  0.00000000000E+00 0. -1.
          1   -1    0    0  501    0 -0.00000000000E+00 -0.00000000000E+00 -0.41538483265E+03  0.41538483265E+03  0.00000000000E+00 0. -1.
         25    2    1    2    0    0  0.23191654748E+02  0.12013168860E+02  0.16644801998E+03  0.20981701791E+03  0.12504426645E+03 0.  0.
          2    1    1    2  501    0 -0.44362607699E+02 -0.29583273225E+02 -0.39101135714E+03  0.39463032376E+03  0.00000000000E+00 0. -1.
          1    1    1    2  502    0  0.21170952951E+02  0.17570104365E+02  0.21427787835E+03  0.21603686483E+03  0.00000000000E+00 0. -1.
         22    1    3    3    0    0 -0.32384932178E+02  0.45677208413E+02  0.44058133524E+02  0.71248230365E+02  0.00000000000E+00 0. -1.
         22    1    3    3    0    0  0.55576586926E+02 -0.33664039552E+02  0.12238988646E+03  0.13856878754E+03  0.00000000000E+00 0. -1.
</event>
<event>
 7    1  0.5553952E-006  0.9422916E+02  0.7818608E-02  0.1344437E+00
          2   -1    0    0  502    0  0.00000000000E+00  0.00000000000E+00  0.11578440244E+04  0.11578440244E+04  0.00000000000E+00 0. -1.
          1   -1    0    0  501    0 -0.00000000000E+00 -0.00000000000E+00 -0.17995140794E+03  0.17995140794E+03  0.00000000000E+00 0. -1.
         25    2    1    2    0    0  0.12084089221E+03  0.84141065812E+02  0.21515957057E+03  0.28913814360E+03  0.12499994036E+03 0.  0.
          2    1    1    2  501    0 -0.38547491759E+02 -0.45200029804E+02 -0.13438604421E+03  0.14693046211E+03  0.00000000000E+00 0. -1.
          1    1    1    2  502    0 -0.82293400446E+02 -0.38941036008E+02  0.89711909015E+03  0.90172682668E+03  0.00000000000E+00 0. -1.
         22    1    3    3    0    0  0.14556281577E+03  0.65105883685E+02  0.16079363181E+03  0.22645507602E+03  0.00000000000E+00 0. -1.
         22    1    3    3    0    0 -0.24721923563E+02  0.19035182127E+02  0.54365938763E+02  0.62683067577E+02  0.00000000000E+00 0. -1.
</event>
<event>
 7    1  0.5553952E-006  0.5581466E+02  0.7818608E-02  0.1530893E+00
          2   -1    0    0  502    0  0.00000000000E+00  0.00000000000E+00  0.45591806448E+03  0.45591806448E+03  0.00000000000E+00 0. -1.
          1   -1    0    0  501    0 -0.00000000000E+00 -0.00000000000E+00 -0.45049223387E+03  0.45049223387E+03  0.00000000000E+00 0. -1.
         25    2    1    2    0    0 -0.48189112764E+02  0.55032717947E+02 -0.55217774012E+02  0.15500180314E+03  0.12500306307E+03 0.  0.
          2    1    1    2  501    0  0.24123724146E+02 -0.49681163458E+01 -0.34303895826E+03  0.34392203060E+03  0.00000000000E+00 0. -1.
          1    1    1    2  502    0  0.24065388618E+02 -0.50064601601E+02  0.40368256289E+03  0.40748646461E+03  0.00000000000E+00 0. -1.
         22    1    3    3    0    0 -0.34215845325E+02  0.35523669196E+02  0.35754142669E+02  0.60918091422E+02  0.00000000000E+00 0.  1.
         22    1    3    3    0    0 -0.13973267439E+02  0.19509048751E+02 -0.90971916681E+02  0.94083711718E+02  0.00000000000E+00 0.  1.
</event>
<event>
 7    1  0.5553952E-006  0.1562580E+03  0.7818608E-02  0.1246416E+00
          2   -1    0    0  502    0  0.00000000000E+00  0.00000000000E+00  0.24039590898E+04  0.24039590898E+04  0.00000000000E+00 0. -1.
          1   -1    0    0  501    0 -0.00000000000E+00 -0.00000000000E+00 -0.75583939113E+02  0.75583939113E+02  0.00000000000E+00 0. -1.
         25    2    1    2    0    0 -0.17856466546E+03 -0.38934656450E+02  0.62039294979E+03  0.65872182691E+03  0.12500314346E+03 0.  0.
          2    1    1    2  501    0  0.62418846425E+02 -0.63616419165E+02 -0.15436805114E+02  0.90451402026E+02  0.00000000000E+00 0. -1.
          1    1    1    2  502    0  0.11614581904E+03  0.10255107561E+03  0.17234190060E+04  0.17303698000E+04  0.00000000000E+00 0. -1.
         22    1    3    3    0    0 -0.16246230387E+02  0.37251473464E+02  0.14677803441E+03  0.15230037315E+03  0.00000000000E+00 0. -1.
         22    1    3    3    0    0 -0.16231843507E+03 -0.76186129913E+02  0.47361491538E+03  0.50642145376E+03  0.00000000000E+00 0. -1.
</event>
<event>
 7    1  0.5553952E-006  0.1295704E+03  0.7818608E-02  0.1277828E+00
          2   -1    0    0  502    0  0.00000000000E+00  0.00000000000E+00  0.50372181061E+02  0.50372181061E+02  0.00000000000E+00 0. -1.
          1   -1    0    0  501    0 -0.00000000000E+00 -0.00000000000E+00 -0.22939211297E+04  0.22939211297E+04  0.00000000000E+00 0. -1.
         25    2    1    2    0    0 -0.15364773620E+03  0.16646657190E+02 -0.32316998436E+03  0.37940623965E+03  0.12500207142E+03 0.  0.
          2    1    1    2  501    0  0.10330018498E+03 -0.77544196058E+02 -0.18624207864E+04  0.18668945381E+04  0.00000000000E+00 0. -1.
          1    1    1    2  502    0  0.50347551221E+02  0.60897538869E+02 -0.57958177889E+02  0.97992533075E+02  0.00000000000E+00 0. -1.
         22    1    3    3    0    0 -0.21696254073E+02  0.38179023641E+02 -0.20377987098E+02  0.48411028136E+02  0.00000000000E+00 0.  1.
         22    1    3    3    0    0 -0.13195148213E+03 -0.21532366452E+02 -0.30279199726E+03  0.33099521152E+03  0.00000000000E+00 0.  1.
</event>
<event>
 7    1  0.5553952E-006  0.4951856E+02  0.7818608E-02  0.1461692E+00
          2   -1    0    0  502    0  0.00000000000E+00  0.00000000000E+00  0.36084525207E+03  0.36084525207E+03  0.00000000000E+00 0. -1.
          1   -1    0    0  501    0 -0.00000000000E+00 -0.00000000000E+00 -0.17097484409E+03  0.17097484409E+03  0.00000000000E+00 0. -1.
         25    2    1    2    0    0  0.74780912867E+01  0.86781272493E+02 -0.38800811738E+02  0.15722052378E+03  0.12500351596E+03 0.  0.
          2    1    1    2  501    0 -0.15082952230E+02 -0.42648297876E+02 -0.64082311533E+02  0.78440521487E+02  0.00000000000E+00 0. -1.
          1    1    1    2  502    0  0.76048609430E+01 -0.44132974616E+02  0.29275353126E+03  0.29615905088E+03  0.00000000000E+00 0. -1.
         22    1    3    3    0    0  0.65573035678E+02  0.35096380570E+02 -0.14704635713E+02  0.75814281297E+02  0.00000000000E+00 0.  1.
         22    1    3    3    0    0 -0.58094944391E+02  0.51684891922E+02 -0.24096176025E+02  0.81406242487E+02  0.00000000000E+00 0.  1.
</event>
<event>
 7    1  0.5553952E-006  0.1442479E+03  0.7818608E-02  0.1283678E+00
          2   -1    0    0  502    0  0.00000000000E+00  0.00000000000E+00  0.20952987009E+04  0.20952987009E+04  0.00000000000E+00 0. -1.
          1   -1    0    0  501    0 -0.00000000000E+00 -0.00000000000E+00 -0.27022714668E+03  0.27022714668E+03  0.00000000000E+00 0. -1.
         25    2    1    2    0    0  0.13245263753E+03 -0.85601519308E+01  0.44965690486E+03  0.48521535730E+03  0.12500253390E+03 0.  0.
          2    1    1    2  501    0 -0.12444626977E+03  0.75217455924E+02 -0.23074882874E+03  0.27274449894E+03  0.00000000000E+00 0. -1.
          1    1    1    2  502    0 -0.80063677603E+01 -0.66657303993E+02  0.16061634781E+04  0.16075659913E+04  0.00000000000E+00 0. -1.
         22    1    3    3    0    0  0.10145975538E+02  0.34413993861E+02  0.20713916621E+03  0.21022344772E+03  0.00000000000E+00 0.  1.
         22    1    3    3    0    0  0.12230666199E+03 -0.42974145792E+02  0.24251773865E+03  0.27499190958E+03  0.00000000000E+00 0.  1.
</event>
<event>
 7    1  0.5553952E-006  0.1730581E+03  0.7818608E-02  0.1348044E+00
          2   -1    0    0  502    0  0.00000000000E+00  0.00000000000E+00  0.21913475345E+04  0.21913475345E+04  0.00000000000E+00 0. -1.
          1   -1    0    0  501    0 -0.00000000000E+00 -0.00000000000E+00 -0.62886243266E+03  0.62886243266E+03  0.00000000000E+00 0. -1.
         25    2    1    2    0    0  0.14988483274E+03 -0.13799892685E+03  0.16854416460E+04  0.17023065738E+04  0.12499984898E+03 0.  0.
          2    1    1    2  501    0 -0.13044877147E+03  0.11338846636E+03 -0.60787610387E+03  0.63197087270E+03  0.00000000000E+00 0. -1.
          1    1    1    2  502    0 -0.19436061269E+02  0.24610460487E+02  0.48491955976E+03  0.48593252071E+03  0.00000000000E+00 0. -1.
         22    1    3    3    0    0  0.10495730656E+03 -0.15784472081E+03  0.12994777694E+04  0.13132301646E+04  0.00000000000E+00 0. -1.
         22    1    3    3    0    0  0.44927526187E+02  0.19845793964E+02  0.38596387656E+03  0.38907640915E+03  0.00000000000E+00 0. -1.
</event>
<event>
 7    1  0.5553952E-006  0.7208892E+02  0.7818608E-02  0.1385841E+00
          2   -1    0    0  502    0  0.00000000000E+00  0.00000000000E+00  0.39743241845E+03  0.39743241845E+03  0.00000000000E+00 0. -1.
          1   -1    0    0  501    0 -0.00000000000E+00 -0.00000000000E+00 -0.45854964528E+03  0.45854964528E+03  0.00000000000E+00 0. -1.
         25    2    1    2    0    0  0.29757333713E+02  0.38932808523E+02  0.69873745371E+02  0.15135428791E+03  0.12499807074E+03 0.  0.
          2    1    1    2  501    0 -0.73065075717E+02 -0.50698552019E+01 -0.41191474756E+03  0.41837539122E+03  0.00000000000E+00 0. -1.
          1    1    1    2  502    0  0.43307742004E+02 -0.33862953321E+02  0.28092377536E+03  0.28625238459E+03  0.00000000000E+00 0. -1.
         22    1    3    3    0    0 -0.33610846401E+02 -0.21263095450E+02  0.45880043753E+02  0.60718914999E+02  0.00000000000E+00 0. -1.
         22    1    3    3    0    0  0.63368180114E+02  0.60195903973E+02  0.23993701618E+02  0.90635372915E+02  0.00000000000E+00 0. -1.
</event>
<event>
 7    1  0.5553952E-006  0.8787408E+02  0.7818608E-02  0.1358972E+00
          2   -1    0    0  502    0  0.00000000000E+00  0.00000000000E+00  0.46769262948E+03  0.46769262948E+03  0.00000000000E+00 0. -1.
          1   -1    0    0  501    0 -0.00000000000E+00 -0.00000000000E+00 -0.14325841748E+04  0.14325841748E+04  0.00000000000E+00 0. -1.
         25    2    1    2    0    0 -0.13203324481E+03  0.25112467388E+02  0.21540285554E+03  0.28299726359E+03  0.12500258907E+03 0.  0.
          2    1    1    2  501    0  0.55741143653E+02 -0.78385808907E+01 -0.13911982962E+04  0.13923366036E+04  0.00000000000E+00 0. -1.
          1    1    1    2  502    0  0.76292101157E+02 -0.17273886498E+02  0.21090389535E+03  0.22494293705E+03  0.00000000000E+00 0. -1.
         22    1    3    3    0    0 -0.86257135219E+02  0.75354247245E+02  0.14942983862E+03  0.18827594807E+03  0.00000000000E+00 0.  1.
         22    1    3    3    0    0 -0.45776109591E+02 -0.50241779856E+02  0.65973016918E+02  0.94721315519E+02  0.00000000000E+00 0.  1.
</event>
<event>
 7    1  0.5553952E-006  0.6517190E+02  0.7818608E-02  0.1385372E+00
          2   -1    0    0  502    0  0.00000000000E+00  0.00000000000E+00  0.25471008652E+03  0.25471008652E+03  0.00000000000E+00 0. -1.
          1   -1    0    0  501    0 -0.00000000000E+00 -0.00000000000E+00 -0.29724265307E+04  0.29724265307E+04  0.00000000000E+00 0. -1.
         25    2    1    2    0    0 -0.31229674457E+02 -0.83674252012E+01 -0.64841293695E+03  0.66114274055E+03  0.12500032084E+03 0.  0.
          2    1    1    2  501    0 -0.85362944830E+01  0.60441249295E+02 -0.23129173827E+04  0.23137227215E+04  0.00000000000E+00 0. -1.
          1    1    1    2  502    0  0.39765968940E+02 -0.52073824094E+02  0.24361387542E+03  0.25227115518E+03  0.00000000000E+00 0. -1.
         22    1    3    3    0    0  0.47790463699E+02 -0.36956756870E+01 -0.30358112027E+03  0.30734196431E+03  0.00000000000E+00 0.  1.
         22    1    3    3    0    0 -0.79020138156E+02 -0.46717495142E+01 -0.34483181668E+03  0.35380077625E+03  0.00000000000E+00 0.  1.
</event>
<event>
 7    1  0.5553952E-006  0.1599526E+03  0.7818608E-02  0.1338928E+00
          2   -1    0    0  502    0  0.00000000000E+00  0.00000000000E+00  0.20675756522E+04  0.20675756522E+04  0.00000000000E+00 0. -1.
          1   -1    0    0  501    0 -0.00000000000E+00 -0.00000000000E+00 -0.20640110933E+03  0.20640110933E+03  0.00000000000E+00 0. -1.
         25    2    1    2    0    0  0.42817454960E+02 -0.12215546483E+03  0.13188614369E+03  0.22310157170E+03  0.12500025744E+03 0.  0.
          2    1    1    2  501    0 -0.66102073124E+01 -0.36101622837E+02 -0.15516251036E+03  0.15944411759E+03  0.00000000000E+00 0. -1.
          1    1    1    2  502    0 -0.36207247648E+02  0.15825708767E+03  0.18844509095E+04  0.18914310723E+04  0.00000000000E+00 0. -1.
         22    1    3    3    0    0  0.32899141775E+02  0.16527860714E+02  0.48797998743E+02  0.61129112464E+02  0.00000000000E+00 0. -1.
         22    1    3    3    0    0  0.99183131851E+01 -0.13868332555E+03  0.83088144946E+02  0.16197245924E+03  0.00000000000E+00 0. -1.
</event>
<event>
 7    1  0.5553952E-006  0.8578453E+02  0.7818608E-02  0.1375899E+00
          2   -1    0    0  502    0  0.00000000000E+00  0.00000000000E+00  0.33398420863E+03  0.33398420863E+03  0.00000000000E+00 0. -1.
          1   -1    0    0  501    0 -0.00000000000E+00 -0.00000000000E+00 -0.23486829970E+03  0.23486829970E+03  0.00000000000E+00 0. -1.
         25    2    1    2    0    0  0.50782989275E+02 -0.73235129668E+02 -0.34440062575E+02  0.15733687547E+03  0.12500591289E+03 0.  0.
          2    1    1    2  501    0 -0.81115963549E+02  0.33368054044E+02 -0.12246766435E+03  0.15063716468E+03  0.00000000000E+00 0. -1.
          1    1    1    2  502    0  0.30332974273E+02  0.39867075624E+02  0.25602363584E+03  0.26087846818E+03  0.00000000000E+00 0. -1.
         22    1    3    3    0    0  0.57414574705E+02 -0.10575243548E+03 -0.26690698578E+02  0.12325747194E+03  0.00000000000E+00 0. -1.
         22    1    3    3    0    0 -0.66315854300E+01  0.32517305815E+02 -0.77493639963E+01  0.34079403532E+02  0.00000000000E+00 0. -1.
</event>
<event>
 7    1  0.5553952E-006  0.1942520E+03  0.7818608E-02  0.1227800E+00
          2   -1    0    0  502    0  0.00000000000E+00  0.00000000000E+00  0.10674772206E+04  0.10674772206E+04  0.00000000000E+00 0. -1.
          1   -1    0    0  501    0 -0.00000000000E+00 -0.00000000000E+00 -0.69449925267E+03  0.69449925267E+03  0.00000000000E+00 0. -1.
         25    2    1    2    0    0  0.22018712535E+03  0.14314166614E+03  0.11377757937E+03  0.31231801120E+03  0.12500118318E+03 0.  0.
          2    1    1    2  501    0 -0.85822889921E+02 -0.12235311493E+02 -0.58168153388E+03  0.58810600927E+03  0.00000000000E+00 0. -1.
          1    1    1    2  502    0 -0.13436423543E+03 -0.13090635465E+03  0.84088192242E+03  0.86155245279E+03  0.00000000000E+00 0. -1.
         22    1    3    3    0    0  0.14220373927E+03  0.14601248084E+03  0.11548864032E+03  0.23426304460E+03  0.00000000000E+00 0.  1.
         22    1    3    3    0    0  0.77983386077E+02 -0.28708146966E+01 -0.17110609461E+01  0.78054966598E+02  0.00000000000E+00 0.  1.
</event>
<event>
 7    1  0.5553952E-006  0.4522323E+02  0.7818608E-02  0.1550366E+00
          2   -1    0    0  502    0  0.00000000000E+00  0.00000000000E+00  0.23124927298E+03  0.23124927298E+03  0.00000000000E+00 0. -1.
          1   -1    0    0  501    0 -0.00000000000E+00 -0.00000000000E+00 -0.77581650334E+03  0.77581650334E+03  0.00000000000E+00 0. -1.
         25    2    1    2    0    0 -0.35561517827E+02  0.40277446176E+02 -0.34491562780E+01  0.13609348510E+03  0.12499058279E+03 0.  0.
          2    1    1    2  501    0  0.26489547874E+02  0.39488884974E+01 -0.70269564498E+03  0.70320584422E+03  0.00000000000E+00 0. -1.
          1    1    1    2  502    0  0.90719699530E+01 -0.44226334674E+02  0.16157757090E+03  0.16776644699E+03  0.00000000000E+00 0. -1.
         22    1    3    3    0    0  0.98211681036E+01  0.35136826027E+02 -0.55769218425E+02  0.66642761122E+02  0.00000000000E+00 0. -1.
         22    1    3    3    0    0 -0.45382685930E+02  0.51406201488E+01  0.52320062147E+02  0.69450723976E+02  0.00000000000E+00 0. -1.
</event>
<event>
 7    1  0.5553952E-006  0.7185613E+02  0.7818608E-02  0.1413903E+00
          2   -1    0    0  502    0  0.00000000000E+00  0.00000000000E+00  0.17104119842E+04  0.17104119842E+04  0.00000000000E+00 0. -1.
          1   -1    0    0  501    0 -0.00000000000E+00 -0.00000000000E+00 -0.19021609329E+02  0.19021609329E+02  0.00000000000E+00 0. -1.
         25    2    1    2    0    0  0.24394088771E+02 -0.23651904139E+02  0.26005962668E+03  0.29053495419E+03  0.12500026416E+03 0.  0.
          2    1    1    2  501    0  0.90239730325E+01 -0.43229942290E+02  0.18007225462E+03  0.18540840564E+03  0.00000000000E+00 0. -1.
          1    1    1    2  502    0 -0.33418061804E+02  0.66881846429E+02  0.12512584936E+04  0.12534902337E+04  0.00000000000E+00 0. -1.
         22    1    3    3    0    0  0.30368701466E+02  0.33055959241E+02  0.31168937350E+02  0.54648486947E+02  0.00000000000E+00 0. -1.
         22    1    3    3    0    0 -0.59746126950E+01 -0.56707863380E+02  0.22889068933E+03  0.23588646724E+03  0.00000000000E+00 0. -1.
</event>
<event>
 7    1  0.5553952E-006  0.1058381E+03  0.7818608E-02  0.1448292E+00
          2   -1    0    0  502    0  0.00000000000E+00  0.00000000000E+00  0.88484392781E+03  0.88484392781E+03  0.00000000000E+00 0. -1.
          1   -1    0    0  501    0 -0.00000000000E+00 -0.00000000000E+00 -0.19935204222E+04  0.19935204222E+04  0.00000000000E+00 0. -1.
         25    2    1    2    0    0 -0.99924796724E+02  0.49396891159E+02  0.90966452180E+02  0.19059185617E+03  0.12500136943E+03 0.  0.
          2    1    1    2  501    0  0.83207136601E+02 -0.65354131499E+02 -0.19420879310E+04  0.19449678973E+04  0.00000000000E+00 0. -1.
          1    1    1    2  502    0  0.16717660123E+02  0.15957240340E+02  0.74244498442E+03  0.74280459649E+03  0.00000000000E+00 0. -1.
         22    1    3    3    0    0 -0.44450479273E+02 -0.41355474804E+02  0.26746743544E+02  0.66343867041E+02  0.00000000000E+00 0.  1.
         22    1    3    3    0    0 -0.55474317452E+02  0.90752365963E+02  0.64219708636E+02  0.12424798913E+03  0.00000000000E+00 0.  1.
</event>
<event>
 7    1  0.5553952E-006  0.7342208E+02  0.7818608E-02  0.1390832E+00
          2   -1    0    0  502    0  0.00000000000E+00  0.00000000000E+00  0.10177940528E+04  0.10177940528E+04  0.00000000000E+00 0. -1.
          1   -1    0    0  501    0 -0.00000000000E+00 -0.00000000000E+00 -0.22545716380E+04  0.22545716380E+04  0.00000000000E+00 0. -1.
         25    2    1    2    0    0 -0.55004539358E+02  0.39795340932E+02  0.40221821354E+03  0.42663142209E+03  0.12500284198E+03 0.  0.
          2    1    1    2  501    0 -0.22167804450E+02 -0.46872163798E+02 -0.22395753513E+04  0.22401754764E+04  0.00000000000E+00 0. -1.
          1    1    1    2  502    0  0.77172343808E+02  0.70768228660E+01  0.60057955248E+03  0.60555879230E+03  0.00000000000E+00 0. -1.
         22    1    3    3    0    0  0.68063550683E+01 -0.21639384631E+01  0.29967613465E+03  0.29976122961E+03  0.00000000000E+00 0.  1.
         22    1    3    3    0    0 -0.61810894426E+02  0.41959279395E+02  0.10254207889E+03  0.12687019248E+03  0.00000000000E+00 0.  1.
</event>
<event>
 7    1  0.5553952E-006  0.1531358E+03  0.7818608E-02  0.1290724E+00
          2   -1    0    0  502    0  0.00000000000E+00  0.00000000000E+00  0.23983742629E+04  0.23983742629E+04  0.00000000000E+00 0. -1.
          1   -1    0    0  501    0 -0.00000000000E+00 -0.00000000000E+00 -0.53675635414E+02  0.53675635414E+02  0.00000000000E+00 0. -1.
         25    2    1    2    0    0  0.81389886261E+02 -0.80731534600E+02  0.70205241040E+03  0.72224337100E+03  0.12496401781E+03 0.  0.
          2    1    1    2  501    0  0.55684712693E+02 -0.20049082958E+02 -0.16909700827E+02  0.61552343068E+02  0.00000000000E+00 0. -1.
          1    1    1    2  502    0 -0.13707459895E+03  0.10078061756E+03  0.16595559179E+04  0.16682541842E+04  0.00000000000E+00 0. -1.
         22    1    3    3    0    0  0.93305771762E+02 -0.86801945660E+02  0.69598879560E+03  0.70755985500E+03  0.00000000000E+00 0.  1.
         22    1    3    3    0    0 -0.11915885501E+02  0.60704110603E+01  0.60636148024E+01  0.14683516002E+02  0.00000000000E+00 0.  1.
</event>
<event>
 7    1  0.5553952E-006  0.1106741E+03  0.7818608E-02  0.1298376E+00
          2   -1    0    0  502    0  0.00000000000E+00  0.00000000000E+00  0.27019444558E+04  0.27019444558E+04  0.00000000000E+00 0. -1.
          1   -1    0    0  501    0 -0.00000000000E+00 -0.00000000000E+00 -0.10246702684E+03  0.10246702684E+03  0.00000000000E+00 0. -1.
         25    2    1    2    0    0  0.39098712549E+02  0.13382521100E+03  0.26490341979E+03  0.32440174495E+03  0.12499909554E+03 0.  0.
          2    1    1    2  501    0  0.44586186836E+02 -0.61877379141E+02 -0.51087509577E+02  0.91796904854E+02  0.00000000000E+00 0. -1.
          1    1    1    2  502    0 -0.83684899385E+02 -0.71947831863E+02  0.23856615187E+04  0.23882128328E+04  0.00000000000E+00 0. -1.
         22    1    3    3    0    0 -0.24510998061E+02  0.68688207220E+02  0.43278639204E+02  0.84805067351E+02  0.00000000000E+00 0.  1.
         22    1    3    3    0    0  0.63609710609E+02  0.65137003784E+02  0.22162478059E+03  0.23959667760E+03  0.00000000000E+00 0.  1.
</event>
<event>
 7    1  0.5553952E-006  0.4775273E+02  0.7818608E-02  0.1476185E+00
          2   -1    0    0  502    0  0.00000000000E+00  0.00000000000E+00  0.73096275759E+03  0.73096275759E+03  0.00000000000E+00 0. -1.
          1   -1    0    0  501    0 -0.00000000000E+00 -0.00000000000E+00 -0.32074232449E+04  0.32074232449E+04  0.00000000000E+00 0. -1.
         25    2    1    2    0    0  0.81796902713E+01  0.59890677893E+01  0.43782233706E+03  0.45542986569E+03  0.12500074988E+03 0.  0.
          2    1    1    2  501    0 -0.15384511920E+02  0.45206633440E+02 -0.31960895200E+04  0.31964462365E+04  0.00000000000E+00 0. -1.
          1    1    1    2  502    0  0.72048216488E+01 -0.51195701229E+02  0.28180669562E+03  0.28650990031E+03  0.00000000000E+00 0. -1.
         22    1    3    3    0    0 -0.25425747138E+01  0.39104638625E+02  0.40716318252E+03  0.40904461205E+03  0.00000000000E+00 0. -1.
         22    1    3    3    0    0  0.10722264985E+02 -0.33115570835E+02  0.30659154537E+02  0.46385253638E+02  0.00000000000E+00 0. -1.
</event>
<event>
 7    1  0.5553952E-006  0.5454374E+02  0.7818608E-02  0.1507310E+00
          2   -1    0    0  502    0  0.00000000000E+00  0.00000000000E+00  0.12792993779E+04  0.12792993779E+04  0.00000000000E+00 0. -1.
          1   -1    0    0  501    0 -0.00000000000E+00 -0.00000000000E+00 -0.28359807016E+03  0.28359807016E+03  0.00000000000E+00 0. -1.
         25    2    1    2    0    0 -0.51314544752E+02 -0.38030684064E+02  0.55980666623E+03  0.57713749187E+03  0.12499866210E+03 0.  0.
          2    1    1    2  501    0  0.27524771628E+02 -0.10653458187E+02 -0.27310376539E+03  0.27469396771E+03  0.00000000000E+00 0. -1.
          1    1    1    2  502    0  0.23789773123E+02  0.48684142251E+02  0.70899840689E+03  0.71106598849E+03  0.00000000000E+00 0. -1.
         22    1    3    3    0    0 -0.33468920140E+02  0.16299470685E+02  0.41759989742E+02  0.55944062269E+02  0.00000000000E+00 0. -1.
         22    1    3    3    0    0 -0.17845624612E+02 -0.54330154750E+02  0.51804667649E+03  0.52119342960E+03  0.00000000000E+00 0. -1.
</event>
<event>
 7    1  0.5553952E-006  0.5676241E+02  0.7818608E-02  0.1498102E+00
          2   -1    0    0  502    0  0.00000000000E+00  0.00000000000E+00  0.22883656733E+04  0.22883656733E+04  0.00000000000E+00 0. -1.
          1   -1    0    0  501    0 -0.00000000000E+00 -0.00000000000E+00 -0.75605865437E+02  0.75605865437E+02  0.00000000000E+00 0. -1.
         25    2    1    2    0    0 -0.40721985427E+02  0.18538801051E+02  0.42767522012E+03  0.44780913016E+03  0.12499982364E+03 0.  0.
          2    1    1    2  501    0  0.32065272616E+02 -0.47478104098E+02 -0.52870433872E+02  0.77959187108E+02  0.00000000000E+00 0. -1.
          1    1    1    2  502    0  0.86567128111E+01  0.28939303047E+02  0.18379550216E+04  0.18382032214E+04  0.00000000000E+00 0. -1.
         22    1    3    3    0    0 -0.46799587734E+02  0.48677701282E+02  0.11302286345E+03  0.13165822297E+03  0.00000000000E+00 0.  1.
         22    1    3    3    0    0  0.60776023074E+01 -0.30138900231E+02  0.31465235668E+03  0.31615090719E+03  0.00000000000E+00 0.  1.
</event>
<event>
 7    1  0.6682528E-006  0.1028821E+03  0.7818608E-02  0.1374131E+00
          2   -1    0    0  502    0  0.00000000000E+00  0.00000000000E+00  0.18414525681E+04  0.18414525681E+04  0.00000000000E+00 0. -1.
          1   -1    0    0  501    0 -0.00000000000E+00 -0.00000000000E+00 -0.10978428493E+04  0.10978428493E+04  0.00000000000E+00 0. -1.
         25    2    1    2    0    0 -0.13121440006E+03 -0.60474151052E+02 -0.16931896536E+03  0.25528064622E+03  0.12499981829E+03 0.  0.
          2    1    1    2  501    0  0.35885155999E+02  0.22547742355E+02 -0.88357151873E+03  0.88458734663E+03  0.00000000000E+00 0. -1.
          1    1    1    2  502    0  0.95329244059E+02  0.37926408697E+02  0.17965002029E+04  0.17994274245E+04  0.00000000000E+00 0. -1.
         22    1    3    3    0    0 -0.10762245682E+03 -0.17926847669E+02 -0.17507690370E+03  0.20629078334E+03  0.00000000000E+00 0. -1.
         22    1    3    3    0    0 -0.23591943239E+02 -0.42547303383E+02  0.57579383421E+01  0.48989862879E+02  0.00000000000E+00 0. -1.
</event>
<event>
 7    1  0.5553952E-006  0.1320318E+03  0.7818608E-02  0.1251926E+00
          2   -1    0    0  502    0  0.00000000000E+00  0.00000000000E+00  0.13885966302E+04  0.13885966302E+04  0.00000000000E+00 0. -1.
          1   -1    0    0  501    0 -0.00000000000E+00 -0.00000000000E+00 -0.22927498373E+03  0.22927498373E+03  0.00000000000E+00 0. -1.
         25    2    1    2    0    0 -0.35916999078E+02  0.25333544071E+02  0.35423587218E+03  0.37820485659E+03  0.12499616447E+03 0.  0.
          2    1    1    2  501    0  0.66914444781E+02 -0.12022007543E+03 -0.19276770212E+03  0.23683284493E+03  0.00000000000E+00 0. -1.
          1    1    1    2  502    0 -0.30997445703E+02  0.94886531358E+02  0.99785347642E+03  0.10028339124E+04  0.00000000000E+00 0. -1.
         22    1    3    3    0    0 -0.15052516638E+02 -0.25439818072E+02  0.12509208637E+02  0.32097397112E+02  0.00000000000E+00 0.  1.
         22    1    3    3    0    0 -0.20864482440E+02  0.50773362143E+02  0.34172666354E+03  0.34610745948E+03  0.00000000000E+00 0.  1.
</event>
<event>
 7    1  0.5553952E-006  0.3704495E+02  0.7818608E-02  0.1595757E+00
          2   -1    0    0  502    0  0.00000000000E+00  0.00000000000E+00  0.33394859289E+03  0.33394859289E+03  0.00000000000E+00 0. -1.
          1   -1    0    0  501    0 -0.00000000000E+00 -0.00000000000E+00 -0.19231844364E+03  0.19231844364E+03  0.00000000000E+00 0. -1.
         25    2    1    2    0    0  0.59800880515E+01  0.33250586568E+02 -0.83859628058E+02  0.15425543467E+03  0.12498375473E+03 0.  0.
          2    1    1    2  501    0 -0.24614480588E+02 -0.11068525358E+01 -0.69992393236E+02  0.74202647446E+02  0.00000000000E+00 0. -1.
          1    1    1    2  502    0  0.18634392537E+02 -0.32143734033E+02  0.29548217054E+03  0.29780895442E+03  0.00000000000E+00 0. -1.
         22    1    3    3    0    0  0.23929725076E+02  0.38559930691E+02  0.19369855016E+02  0.49342590937E+02  0.00000000000E+00 0. -1.
         22    1    3    3    0    0 -0.17949637024E+02 -0.53093441221E+01 -0.10322948307E+03  0.10491284373E+03  0.00000000000E+00 0. -1.
</event>
<event>
 7    1  0.5553952E-006  0.1506322E+03  0.7818608E-02  0.1280168E+00
          2   -1    0    0  502    0  0.00000000000E+00  0.00000000000E+00  0.12675818577E+04  0.12675818577E+04  0.00000000000E+00 0. -1.
          1   -1    0    0  501    0 -0.00000000000E+00 -0.00000000000E+00 -0.40466583906E+03  0.40466583906E+03  0.00000000000E+00 0. -1.
         25    2    1    2    0    0  0.17993522317E+03  0.89634348441E+02 -0.20177346392E+03  0.31104417651E+03  0.12499979217E+03 0.  0.
          2    1    1    2  501    0 -0.33636147170E+02 -0.57328693891E+02 -0.13590953399E+03  0.15129233612E+03  0.00000000000E+00 0. -1.
          1    1    1    2  502    0 -0.14629907600E+03 -0.32305654550E+02  0.12005990166E+04  0.12099111841E+04  0.00000000000E+00 0. -1.
         22    1    3    3    0    0  0.13284550222E+03  0.11329747550E+02 -0.69709411410E+02  0.15045162904E+03  0.00000000000E+00 0. -1.
         22    1    3    3    0    0  0.47089720944E+02  0.78304600891E+02 -0.13206405251E+03  0.16059254747E+03  0.00000000000E+00 0. -1.
</event>
<event>
 7    1  0.5553952E-006  0.8670320E+02  0.7818608E-02  0.1400771E+00
          2   -1    0    0  502    0  0.00000000000E+00  0.00000000000E+00  0.72149995478E+03  0.72149995478E+03  0.00000000000E+00 0. -1.
          1   -1    0    0  501    0 -0.00000000000E+00 -0.00000000000E+00 -0.81758434976E+03  0.81758434976E+03  0.00000000000E+00 0. -1.
         25    2    1    2    0    0 -0.11880371483E+03  0.30280387355E+01 -0.77017302411E+02  0.18889479566E+03  0.12500434904E+03 0.  0.
          2    1    1    2  501    0  0.83581137395E+02  0.17093806388E+02 -0.68134766666E+03  0.68666778547E+03  0.00000000000E+00 0. -1.
          1    1    1    2  502    0  0.35222577436E+02 -0.20121845123E+02  0.66228057409E+03  0.66352172341E+03  0.00000000000E+00 0. -1.
         22    1    3    3    0    0 -0.81704252639E+01 -0.38405022748E+02 -0.56784331544E+02  0.69037395158E+02  0.00000000000E+00 0.  1.
         22    1    3    3    0    0 -0.11063328957E+03  0.41433061484E+02 -0.20232970867E+02  0.11985740050E+03  0.00000000000E+00 0.  1.
</event>
<event>
 7    1  0.5553952E-006  0.1219715E+03  0.7818608E-02  0.1428489E+00
          2   -1    0    0  502    0  0.00000000000E+00  0.00000000000E+00  0.76434265866E+03  0.76434265866E+03  0.00000000000E+00 0. -1.
          1   -1    0    0  501    0 -0.00000000000E+00 -0.00000000000E+00 -0.48792301847E+03  0.48792301847E+03  0.00000000000E+00 0. -1.
         25    2    1    2    0    0  0.12381745582E+03  0.66699259265E+02  0.13386331345E+03  0.23092006371E+03  0.12500054233E+03 0.  0.
          2    1    1    2  501    0 -0.10057224427E+03 -0.67538063674E+02 -0.43080412841E+03  0.44751353434E+03  0.00000000000E+00 0. -1.
          1    1    1    2  502    0 -0.23245211555E+02  0.83880440851E+00  0.57336045516E+03  0.57383207909E+03  0.00000000000E+00 0. -1.
         22    1    3    3    0    0  0.13012681586E+03  0.36911115002E+02  0.54342014582E+02  0.14576856028E+03  0.00000000000E+00 0.  1.
         22    1    3    3    0    0 -0.63093600407E+01  0.29788144263E+02  0.79521298864E+02  0.85151503426E+02  0.00000000000E+00 0.  1.
</event>
<event>
 7    1  0.5553952E-006  0.1215890E+03  0.7818608E-02  0.1370618E+00
          2   -1    0    0  502    0  0.00000000000E+00  0.00000000000E+00  0.19994354889E+03  0.19994354889E+03  0.00000000000E+00 0. -1.
          1   -1    0    0  501    0 -0.00000000000E+00 -0.00000000000E+00 -0.41944910654E+03  0.41944910654E+03  0.00000000000E+00 0. -1.
         25    2    1    2    0    0  0.68281029895E+02 -0.62392887901E+02 -0.64620296508E+02  0.16838878275E+03  0.12499531163E+03 0.  0.
          2    1    1    2  501    0 -0.95040719170E+02  0.87821597550E+02 -0.28646887562E+03  0.31434024240E+03  0.00000000000E+00 0. -1.
          1    1    1    2  502    0  0.26759689275E+02 -0.25428709648E+02  0.13158361447E+03  0.13666363028E+03  0.00000000000E+00 0. -1.
         22    1    3    3    0    0 -0.13429233777E+02 -0.46961127849E+02  0.17148215589E+02  0.51766332172E+02  0.00000000000E+00 0.  1.
         22    1    3    3    0    0  0.81710263672E+02 -0.15431760052E+02 -0.81768512097E+02  0.11662245058E+03  0.00000000000E+00 0.  1.
</event>
<event>
 7    1  0.5553952E-006  0.7830593E+02  0.7818608E-02  0.1418108E+00
          2   -1    0    0  502    0  0.00000000000E+00  0.00000000000E+00  0.18597533951E+04  0.18597533951E+04  0.00000000000E+00 0. -1.
          1   -1    0    0  501    0 -0.00000000000E+00 -0.00000000000E+00 -0.13617729820E+02  0.13617729820E+02  0.00000000000E+00 0. -1.
         25    2    1    2    0    0  0.11407872316E+00 -0.66106708295E+02  0.60490978809E+03  0.62121740063E+03  0.12500038889E+03 0.  0.
          2    1    1    2  501    0  0.36213372774E+02  0.80908795316E+02  0.38677635033E+03  0.39680421709E+03  0.00000000000E+00 0. -1.
          1    1    1    2  502    0 -0.36327451497E+02 -0.14802087021E+02  0.85444952687E+03  0.85534950721E+03  0.00000000000E+00 0. -1.
         22    1    3    3    0    0 -0.56257944334E+02 -0.74455357839E+01  0.18536231713E+03  0.19385453545E+03  0.00000000000E+00 0.  1.
         22    1    3    3    0    0  0.56372023057E+02 -0.58661172511E+02  0.41954747095E+03  0.42736286517E+03  0.00000000000E+00 0.  1.
</event>
<event>
 7    1  0.5553952E-006  0.8856993E+02  0.7818608E-02  0.1354396E+00
          2   -1    0    0  502    0  0.00000000000E+00  0.00000000000E+00  0.14320192300E+04  0.14320192300E+04  0.00000000000E+00 0. -1.
          1   -1    0    0  501    0 -0.00000000000E+00 -0.00000000000E+00 -0.13490023438E+04  0.13490023438E+04  0.00000000000E+00 0. -1.
         25    2    1    2    0    0  0.60679432473E+02  0.75183601425E+02 -0.11125872941E+04  0.11237480061E+04  0.12499810768E+03 0.  0.
          2    1    1    2  501    0  0.24929376433E+02 -0.52422296803E+02 -0.22578461419E+03  0.23312713917E+03  0.00000000000E+00 0. -1.
          1    1    1    2  502    0 -0.85608808906E+02 -0.22761304621E+02  0.14213887944E+04  0.14241464286E+04  0.00000000000E+00 0. -1.
         22    1    3    3    0    0 -0.25691244528E+00  0.39810180763E+02 -0.86245889942E+02  0.94990894449E+02  0.00000000000E+00 0.  1.
         22    1    3    3    0    0  0.60936344919E+02  0.35373420662E+02 -0.10263414041E+04  0.10287571117E+04  0.00000000000E+00 0.  1.
</event>
<event>
 7    1  0.5553952E-006  0.8654498E+02  0.7818608E-02  0.1491591E+00
          2   -1    0    0  502    0  0.00000000000E+00  0.00000000000E+00  0.15704929076E+04  0.15704929076E+04  0.00000000000E+00 0. -1.
          1   -1    0    0  501    0 -0.00000000000E+00 -0.00000000000E+00 -0.16997611767E+03  0.16997611767E+03  0.00000000000E+00 0. -1.
         25    2    1    2    0    0  0.27349479943E+02  0.60566538911E+02  0.63120113800E+03  0.64688723362E+03  0.12502766378E+03 0.  0.
          2    1    1    2  501    0 -0.39191012175E+02 -0.77574839845E+02 -0.15036042025E+03  0.17367224070E+03  0.00000000000E+00 0. -1.
          1    1    1    2  502    0  0.11841532232E+02  0.17008300934E+02  0.91967607214E+03  0.91990955091E+03  0.00000000000E+00 0. -1.
         22    1    3    3    0    0  0.16082405647E+02  0.59526980657E+02  0.63249953920E+03  0.63549805058E+03  0.00000000000E+00 0. -1.
         22    1    3    3    0    0  0.11267074296E+02  0.10395582541E+01 -0.12984011999E+01  0.11389183036E+02  0.00000000000E+00 0. -1.
</event>
<event>
 7    1  0.5553952E-006  0.3809264E+02  0.7818608E-02  0.1544482E+00
          2   -1    0    0  502    0  0.00000000000E+00  0.00000000000E+00  0.83911444761E+03  0.83911444761E+03  0.00000000000E+00 0. -1.
          1   -1    0    0  501    0 -0.00000000000E+00 -0.00000000000E+00 -0.37002669258E+02  0.37002669258E+02  0.00000000000E+00 0. -1.
         25    2    1    2    0    0  0.21107675141E+02 -0.33194969861E+02  0.12688035919E+03  0.18240153534E+03  0.12499701825E+03 0.  0.
          2    1    1    2  501    0  0.11335481494E+02  0.39364532401E+02  0.38782630384E+02  0.56410566132E+02  0.00000000000E+00 0. -1.
          1    1    1    2  502    0 -0.32443156635E+02 -0.61695625397E+01  0.63644878878E+03  0.63730501540E+03  0.00000000000E+00 0. -1.
         22    1    3    3    0    0  0.11508924361E+01 -0.41511135440E+02  0.14706988093E+03  0.15282031539E+03  0.00000000000E+00 0.  1.
         22    1    3    3    0    0  0.19956782705E+02  0.83161655785E+01 -0.20189521737E+02  0.29581219952E+02  0.00000000000E+00 0.  1.
</event>
<event>
 7    1  0.5553952E-006  0.1472493E+03  0.7818608E-02  0.1260376E+00
          2   -1    0    0  502    0  0.00000000000E+00  0.00000000000E+00  0.58983390209E+03  0.58983390209E+03  0.00000000000E+00 0. -1.
          1   -1    0    0  501    0 -0.00000000000E+00 -0.00000000000E+00 -0.18604500294E+04  0.18604500294E+04  0.00000000000E+00 0. -1.
         25    2    1    2    0    0  0.97952335703E+02 -0.19803250241E+03 -0.27679351544E+03  0.37556769609E+03  0.12499964831E+03 0.  0.
          2    1    1    2  501    0 -0.44701531224E+02  0.13524224090E+03 -0.15278018622E+04  0.15344273267E+04  0.00000000000E+00 0. -1.
          1    1    1    2  502    0 -0.53250804480E+02  0.62790261514E+02  0.53397925034E+03  0.54028890874E+03  0.00000000000E+00 0. -1.
         22    1    3    3    0    0  0.11724412047E+03 -0.16261740770E+03 -0.26731946553E+03  0.33414114043E+03  0.00000000000E+00 0.  1.
         22    1    3    3    0    0 -0.19291784765E+02 -0.35415094708E+02 -0.94740499046E+01  0.41426555664E+02  0.00000000000E+00 0.  1.
</event>
<event>
 7    1  0.5553952E-006  0.8629687E+02  0.7818608E-02  0.1316136E+00
          2   -1    0    0  502    0  0.00000000000E+00  0.00000000000E+00  0.17075760713E+04  0.17075760713E+04  0.00000000000E+00 0. -1.
          1   -1    0    0  501    0 -0.00000000000E+00 -0.00000000000E+00 -0.11148807425E+04  0.11148807425E+04  0.00000000000E+00 0. -1.
         25    2    1    2    0    0 -0.12137473456E+02  0.12115441033E+02  0.23451227636E+02  0.12833005600E+03  0.12499816408E+03 0.  0.
          2    1    1    2  501    0 -0.33744658561E+02 -0.81513774921E+02 -0.10595464095E+04  0.10632129567E+04  0.00000000000E+00 0. -1.
          1    1    1    2  502    0  0.45882132017E+02  0.69398333889E+02  0.16287905107E+04  0.16309138011E+04  0.00000000000E+00 0. -1.
         22    1    3    3    0    0  0.26825451948E+02 -0.43484737976E+02  0.31403729846E+02  0.59972673421E+02  0.00000000000E+00 0. -1.
         22    1    3    3    0    0 -0.38962925404E+02  0.55600179009E+02 -0.79525022098E+01  0.68357382580E+02  0.00000000000E+00 0. -1.
</event>
<event>
 7    1  0.5553952E-006  0.3382039E+02  0.7818608E-02  0.1575124E+00
          2   -1    0    0  502    0  0.00000000000E+00  0.00000000000E+00  0.15629092886E+03  0.15629092886E+03  0.00000000000E+00 0. -1.
          1   -1    0    0  501    0 -0.00000000000E+00 -0.00000000000E+00 -0.23782740287E+03  0.23782740287E+03  0.00000000000E+00 0. -1.
         25    2    1    2    0    0  0.13596180506E+02  0.19348622885E+01  0.66759172682E+02  0.14237362544E+03  0.12499944907E+03 0.  0.
          2    1    1    2  501    0  0.88764336880E+01  0.29313517458E+02 -0.19147010519E+03  0.19390429228E+03  0.00000000000E+00 0. -1.
          1    1    1    2  502    0 -0.22472614194E+02 -0.31248379746E+02  0.43174458502E+02  0.57840414006E+02  0.00000000000E+00 0. -1.
         22    1    3    3    0    0  0.69454469747E+02  0.26768253433E+01  0.42504104965E+02  0.81472005625E+02  0.00000000000E+00 0. -1.
         22    1    3    3    0    0 -0.55858289241E+02 -0.74196305484E+00  0.24255067717E+02  0.60901619815E+02  0.00000000000E+00 0. -1.
</event>
<event>
 7    1  0.5553952E-006  0.7111684E+02  0.7818608E-02  0.1476085E+00
          2   -1    0    0  502    0  0.00000000000E+00  0.00000000000E+00  0.18945951290E+04  0.18945951290E+04  0.00000000000E+00 0. -1.
          1   -1    0    0  501    0 -0.00000000000E+00 -0.00000000000E+00 -0.52003366378E+03  0.52003366378E+03  0.00000000000E+00 0. -1.
         25    2    1    2    0    0  0.75025959240E+02 -0.60158455398E+02  0.21347366104E+02  0.15915048163E+03  0.12500092578E+03 0.  0.
          2    1    1    2  501    0 -0.26931879023E+02  0.80994670243E+01 -0.44999697455E+03  0.45087493230E+03  0.00000000000E+00 0. -1.
          1    1    1    2  502    0 -0.48094080217E+02  0.52058988374E+02  0.18032110737E+04  0.18046033789E+04  0.00000000000E+00 0. -1.
         22    1    3    3    0    0 -0.18130279148E+01 -0.41805229758E+02  0.58439324547E+02  0.71875718841E+02  0.00000000000E+00 0. -1.
         22    1    3    3    0    0  0.76838987154E+02 -0.18353225640E+02 -0.37091958443E+02  0.87274762786E+02  0.00000000000E+00 0. -1.
</event>
<event>
 7    1  0.5553952E-006  0.1771275E+03  0.7818608E-02  0.1293840E+00
          2   -1    0    0  502    0  0.00000000000E+00  0.00000000000E+00  0.31946339251E+03  0.31946339251E+03  0.00000000000E+00 0. -1.
          1   -1    0    0  501    0 -0.00000000000E+00 -0.00000000000E+00 -0.41270319320E+03  0.41270319320E+03  0.00000000000E+00 0. -1.
         25    2    1    2    0    0  0.40639966329E+02 -0.19707626984E+03 -0.36257966033E+02  0.23964714921E+03  0.12500181209E+03 0.  0.
          2    1    1    2  501    0 -0.69787247075E+02  0.15681881090E+03 -0.24438310342E+03  0.29863941559E+03  0.00000000000E+00 0. -1.
          1    1    1    2  502    0  0.29147280747E+02  0.40257458941E+02  0.18740126876E+03  0.19388002091E+03  0.00000000000E+00 0. -1.
         22    1    3    3    0    0 -0.22045366014E+02 -0.12129108849E+03 -0.61989274629E+02  0.13798621844E+03  0.00000000000E+00 0. -1.
         22    1    3    3    0    0  0.62685332342E+02 -0.75785181354E+02  0.25731308596E+02  0.10166093077E+03  0.00000000000E+00 0. -1.
</event>
<event>
 7    1  0.5553952E-006  0.8840004E+02  0.7818608E-02  0.1335272E+00
          2   -1    0    0  502    0  0.00000000000E+00  0.00000000000E+00  0.41696340884E+03  0.41696340884E+03  0.00000000000E+00 0. -1.
          1   -1    0    0  501    0 -0.00000000000E+00 -0.00000000000E+00 -0.98058283822E+03  0.98058283822E+03  0.00000000000E+00 0. -1.
         25    2    1    2    0    0 -0.61411044696E+02  0.97299110936E+01 -0.23032150882E+02  0.14149814041E+03  0.12500102474E+03 0.  0.
          2    1    1    2  501    0  0.68742486483E+02  0.58432364473E+02 -0.89273851888E+03  0.89728587070E+03  0.00000000000E+00 0. -1.
          1    1    1    2  502    0 -0.73314417863E+01 -0.68162275567E+02  0.35215124038E+03  0.35876223596E+03  0.00000000000E+00 0. -1.
         22    1    3    3    0    0 -0.45337547889E+02  0.33724474535E+02  0.41958053101E+02  0.70379767343E+02  0.00000000000E+00 0.  1.
         22    1    3    3    0    0 -0.16073496807E+02 -0.23994563441E+02 -0.64990203983E+02  0.71118373070E+02  0.00000000000E+00 0.  1.
</event>
<event>
 7    1  0.5553952E-006  0.5900282E+02  0.7818608E-02  0.1475280E+00
          2   -1    0    0  502    0  0.00000000000E+00  0.00000000000E+00  0.48588223520E+03  0.48588223520E+03  0.00000000000E+00 0. -1.
          1   -1    0    0  501    0 -0.00000000000E+00 -0.00000000000E+00 -0.60460140511E+03  0.60460140511E+03  0.00000000000E+00 0. -1.
         25    2    1    2    0    0 -0.21981383247E+02  0.38738514355E+02 -0.25074080796E+03  0.28368946699E+03  0.12499962881E+03 0.  0.
          2    1    1    2  501    0  0.54942070015E+02 -0.30029018011E+02 -0.33385306965E+03  0.33967373330E+03  0.00000000000E+00 0. -1.
          1    1    1    2  502    0 -0.32960686767E+02 -0.87094963435E+01  0.46587470771E+03  0.46712044001E+03  0.00000000000E+00 0. -1.
         22    1    3    3    0    0 -0.48925853848E+01  0.83483797373E+02 -0.17695573753E+03  0.19572126829E+03  0.00000000000E+00 0. -1.
         22    1    3    3    0    0 -0.17088797863E+02 -0.44745283018E+02 -0.73785070429E+02  0.87968198703E+02  0.00000000000E+00 0. -1.
</event>
<event>
 7    1  0.5553952E-006  0.5420064E+02  0.7818608E-02  0.1494961E+00
          2   -1    0    0  502    0  0.00000000000E+00  0.00000000000E+00  0.11430132910E+04  0.11430132910E+04  0.00000000000E+00 0. -1.
          1   -1    0    0  501    0 -0.00000000000E+00 -0.00000000000E+00 -0.15500088520E+04  0.15500088520E+04  0.00000000000E+00 0. -1.
         25    2    1    2    0    0 -0.28853941938E+02  0.32127212933E+02 -0.16197548978E+03  0.20910788698E+03  0.12500136532E+03 0.  0.
          2    1    1    2  501    0  0.54039801223E+01 -0.54379605941E+02 -0.13636864030E+04  0.13647809166E+04  0.00000000000E+00 0. -1.
          1    1    1    2  502    0  0.23449961816E+02  0.22252393007E+02  0.11186663317E+04  0.11191333395E+04  0.00000000000E+00 0. -1.
         22    1    3    3    0    0 -0.46366182500E+02 -0.31633498457E+02 -0.35564477093E+02  0.66447973145E+02  0.00000000000E+00 0.  1.
         22    1    3    3    0    0  0.17512240562E+02  0.63760711390E+02 -0.12641101269E+03  0.14265991383E+03  0.00000000000E+00 0.  1.
</event>
<event>
 7    1  0.5553952E-006  0.7802490E+02  0.7818608E-02  0.1471299E+00
          2   -1    0    0  502    0  0.00000000000E+00  0.00000000000E+00  0.15308017938E+04  0.15308017938E+04  0.00000000000E+00 0. -1.
          1   -1    0    0  501    0 -0.00000000000E+00 -0.00000000000E+00 -0.48330672882E+03  0.48330672882E+03  0.00000000000E+00 0. -1.
         25    2    1    2    0    0 -0.84401144522E+02  0.42826371116E+02 -0.37465620353E+03  0.40613538298E+03  0.12498410781E+03 0.  0.
          2    1    1    2  501    0  0.84432252372E+01 -0.25143089520E+02 -0.89992488223E+02  0.93819565868E+02  0.00000000000E+00 0. -1.
          1    1    1    2  502    0  0.75957919285E+02 -0.17683281596E+02  0.15121437567E+04  0.15141535737E+04  0.00000000000E+00 0. -1.
         22    1    3    3    0    0 -0.83964238209E+00  0.58487153835E+02 -0.23889249610E+03  0.24594933799E+03  0.00000000000E+00 0. -1.
         22    1    3    3    0    0 -0.83561502140E+02 -0.15660782719E+02 -0.13576370743E+03  0.16018604499E+03  0.00000000000E+00 0. -1.
</event>
<event>
 7    1  0.5553952E-006  0.7264644E+02  0.7818608E-02  0.1450280E+00
          2   -1    0    0  502    0  0.00000000000E+00  0.00000000000E+00  0.16365866072E+04  0.16365866072E+04  0.00000000000E+00 0. -1.
          1   -1    0    0  501    0 -0.00000000000E+00 -0.00000000000E+00 -0.36182956085E+03  0.36182956085E+03  0.00000000000E+00 0. -1.
         25    2    1    2    0    0  0.44088754649E+02 -0.84763686051E+01  0.68937628688E+03  0.70205443396E+03  0.12500038489E+03 0.  0.
          2    1    1    2  501    0 -0.63717300664E+02  0.35227479287E+02 -0.35146586231E+03  0.35892773934E+03  0.00000000000E+00 0. -1.
          1    1    1    2  502    0  0.19628546015E+02 -0.26751110682E+02  0.93684662176E+03  0.93743399471E+03  0.00000000000E+00 0. -1.
         22    1    3    3    0    0  0.64099603867E+02  0.43222043598E+02  0.39002590960E+03  0.39761427845E+03  0.00000000000E+00 0. -1.
         22    1    3    3    0    0 -0.20010849218E+02 -0.51698412203E+02  0.29935037728E+03  0.30444015552E+03  0.00000000000E+00 0. -1.
</event>
<event>
 7    1  0.5553952E-006  0.6713283E+02  0.7818608E-02  0.1466880E+00
          2   -1    0    0  502    0  0.00000000000E+00  0.00000000000E+00  0.25822588891E+03  0.25822588891E+03  0.00000000000E+00 0. -1.
          1   -1    0    0  501    0 -0.00000000000E+00 -0.00000000000E+00 -0.22654295924E+03  0.22654295924E+03  0.00000000000E+00 0. -1.
         25    2    1    2    0    0  0.38815957318E+02 -0.46933374219E+02  0.13753952309E+03  0.19557579634E+03  0.12499340600E+03 0.  0.
          2    1    1    2  501    0 -0.13517924339E+02  0.66231877820E+02 -0.18870377527E+03  0.20044578000E+03  0.00000000000E+00 0. -1.
          1    1    1    2  502    0 -0.25298032979E+02 -0.19298503601E+02  0.82847181846E+02  0.88747271809E+02  0.00000000000E+00 0. -1.
         22    1    3    3    0    0  0.18764757162E+02 -0.88252789577E+02  0.71426823007E+02  0.11507589680E+03  0.00000000000E+00 0. -1.
         22    1    3    3    0    0  0.20051200155E+02  0.41319415358E+02  0.66112700086E+02  0.80499899539E+02  0.00000000000E+00 0. -1.
</event>
<event>
 7    1  0.5553952E-006  0.8933721E+02  0.7818608E-02  0.1436691E+00
          2   -1    0    0  502    0  0.00000000000E+00  0.00000000000E+00  0.18406312264E+04  0.18406312264E+04  0.00000000000E+00 0. -1.
          1   -1    0    0  501    0 -0.00000000000E+00 -0.00000000000E+00 -0.15148717417E+04  0.15148717417E+04  0.00000000000E+00 0. -1.
         25    2    1    2    0    0 -0.82728072038E+02 -0.81035914787E+02 -0.89911468680E+02  0.19266541069E+03  0.12500053955E+03 0.  0.
          2    1    1    2  501    0  0.70379409549E+02  0.53860115012E+02 -0.13720290733E+04  0.13748883414E+04  0.00000000000E+00 0. -1.
          1    1    1    2  502    0  0.12348662489E+02  0.27175799776E+02  0.17877000267E+04  0.17879492160E+04  0.00000000000E+00 0. -1.
         22    1    3    3    0    0  0.92665202617E+00  0.28142968286E+02 -0.34117176338E+02  0.44236490245E+02  0.00000000000E+00 0.  1.
         22    1    3    3    0    0 -0.83654724064E+02 -0.10917888307E+03 -0.55794292342E+02  0.14842892045E+03  0.00000000000E+00 0.  1.
</event>
<event>
 7    1  0.5553952E-006  0.1711411E+03  0.7818608E-02  0.1364704E+00
          2   -1    0    0  502    0  0.00000000000E+00  0.00000000000E+00  0.71694342806E+03  0.71694342806E+03  0.00000000000E+00 0. -1.
          1   -1    0    0  501    0 -0.00000000000E+00 -0.00000000000E+00 -0.28500241063E+03  0.28500241063E+03  0.00000000000E+00 0. -1.
         25    2    1    2    0    0  0.95371562462E+02 -0.13738699684E+03 -0.89027733161E+02  0.22698451558E+03  0.12500044484E+03 0.  0.
          2    1    1    2  501    0 -0.76865941835E+02  0.15779233262E+03 -0.65873444765E+02  0.18747294198E+03  0.00000000000E+00 0. -1.
          1    1    1    2  502    0 -0.18505620627E+02 -0.20405335778E+02  0.58684219535E+03  0.58748838114E+03  0.00000000000E+00 0. -1.
         22    1    3    3    0    0  0.82405341726E+01 -0.37033084865E+02  0.30160688243E+02  0.48466719441E+02  0.00000000000E+00 0. -1.
         22    1    3    3    0    0  0.87131028290E+02 -0.10035391198E+03 -0.11918842140E+03  0.17851779613E+03  0.00000000000E+00 0. -1.
</event>
<event>
 7    1  0.5553952E-006  0.9727004E+02  0.7818608E-02  0.1377484E+00
          2   -1    0    0  502    0  0.00000000000E+00  0.00000000000E+00  0.59324015418E+03  0.59324015418E+03  0.00000000000E+00 0. -1.
          1   -1    0    0  501    0 -0.00000000000E+00 -0.00000000000E+00 -0.11038752103E+03  0.11038752103E+03  0.00000000000E+00 0. -1.
         25    2    1    2    0    0 -0.98783177085E+02 -0.47984297788E+02  0.37528974555E+03  0.41052199085E+03  0.12500121181E+03 0.  0.
          2    1    1    2  501    0  0.96890259024E+02  0.44159517726E+01 -0.63923437922E+02  0.11616121917E+03  0.00000000000E+00 0. -1.
          1    1    1    2  502    0  0.18929180610E+01  0.43568346016E+02  0.17148632553E+03  0.17694446518E+03  0.00000000000E+00 0. -1.
         22    1    3    3    0    0 -0.10565718953E+03 -0.71006249222E+02  0.22665026252E+03  0.25995320853E+03  0.00000000000E+00 0.  1.
         22    1    3    3    0    0  0.68740124415E+01  0.23021951433E+02  0.14863948303E+03  0.15056878232E+03  0.00000000000E+00 0.  1.
</event>
<event>
 7    1  0.5553952E-006  0.7903143E+02  0.7818608E-02  0.1409941E+00
          2   -1    0    0  502    0  0.00000000000E+00  0.00000000000E+00  0.39214485975E+03  0.39214485975E+03  0.00000000000E+00 0. -1.
          1   -1    0    0  501    0 -0.00000000000E+00 -0.00000000000E+00 -0.41603701150E+03  0.41603701150E+03  0.00000000000E+00 0. -1.
         25    2    1    2    0    0  0.16537896846E+02  0.10459192699E+03  0.73646165642E+02  0.17961616605E+03  0.12500094467E+03 0.  0.
          2    1    1    2  501    0  0.19193348049E+02 -0.36692552845E+02 -0.35628462538E+03  0.35868295517E+03  0.00000000000E+00 0. -1.
          1    1    1    2  502    0 -0.35731244896E+02 -0.67899374141E+02  0.25874630799E+03  0.26988275004E+03  0.00000000000E+00 0. -1.
         22    1    3    3    0    0 -0.44910023120E+01  0.12373014920E+03  0.83709110304E+02  0.14945412028E+03  0.00000000000E+00 0. -1.
         22    1    3    3    0    0  0.21028899158E+02 -0.19138222211E+02 -0.10062944662E+02  0.30162045761E+02  0.00000000000E+00 0. -1.
</event>
<event>
 7    1  0.5553952E-006  0.1857652E+03  0.7818608E-02  0.1246243E+00
          2   -1    0    0  502    0  0.00000000000E+00  0.00000000000E+00  0.89294656365E+03  0.89294656365E+03  0.00000000000E+00 0. -1.
          1   -1    0    0  501    0 -0.00000000000E+00 -0.00000000000E+00 -0.30845509540E+04  0.30845509540E+04  0.00000000000E+00 0. -1.
         25    2    1    2    0    0  0.17964710723E+03  0.12274342367E+03 -0.89542097394E+03  0.92991561713E+03  0.12500121291E+03 0.  0.
          2    1    1    2  501    0 -0.31381810107E+00 -0.75097673884E+02 -0.21613937570E+04  0.21626980214E+04  0.00000000000E+00 0. -1.
          1    1    1    2  502    0 -0.17933328913E+03 -0.47645749783E+02  0.86521034057E+03  0.88488387910E+03  0.00000000000E+00 0. -1.
         22    1    3    3    0    0  0.16740363308E+03  0.46745376006E+02 -0.63477347795E+03  0.65813864410E+03  0.00000000000E+00 0.  1.
         22    1    3    3    0    0  0.12243474156E+02  0.75998047661E+02 -0.26064749598E+03  0.27177697303E+03  0.00000000000E+00 0.  1.
</event>
<event>
 7    1  0.5553952E-006  0.4847345E+02  0.7818608E-02  0.1462940E+00
          2   -1    0    0  502    0  0.00000000000E+00  0.00000000000E+00  0.31736813086E+03  0.31736813086E+03  0.00000000000E+00 0. -1.
          1   -1    0    0  501    0 -0.00000000000E+00 -0.00000000000E+00 -0.10535147790E+03  0.10535147790E+03  0.00000000000E+00 0. -1.
         25    2    1    2    0    0 -0.12729797023E+02 -0.21400695779E+02  0.16656624528E+02  0.12854735847E+03  0.12500777063E+03 0.  0.
          2    1    1    2  501    0 -0.20818279432E+02  0.51896785356E+02 -0.30577269692E+02  0.63731048247E+02  0.00000000000E+00 0. -1.
          1    1    1    2  502    0  0.33548076456E+02 -0.30496089577E+02  0.22593729812E+03  0.23044120204E+03  0.00000000000E+00 0. -1.
         22    1    3    3    0    0  0.23522155295E+02 -0.43536785203E+02 -0.35780212704E+02  0.61065268989E+02  0.00000000000E+00 0. -1.
         22    1    3    3    0    0 -0.36251952318E+02  0.22136089424E+02  0.52436837231E+02  0.67482089481E+02  0.00000000000E+00 0. -1.
</event>
<event>
 7    1  0.5553952E-006  0.1077575E+03  0.7818608E-02  0.1431813E+00
          2   -1    0    0  502    0  0.00000000000E+00  0.00000000000E+00  0.26078686538E+04  0.26078686538E+04  0.00000000000E+00 0. -1.
          1   -1    0    0  501    0 -0.00000000000E+00 -0.00000000000E+00 -0.51634099173E+03  0.51634099173E+03  0.00000000000E+00 0. -1.
         25    2    1    2    0    0 -0.86208559823E+02  0.74698728829E+02  0.25698143111E+03  0.30769635393E+03  0.12500309759E+03 0.  0.
          2    1    1    2  501    0 -0.87505614423E+01 -0.24136265629E+02 -0.48940266865E+03  0.49007561021E+03  0.00000000000E+00 0. -1.
          1    1    1    2  502    0  0.94959121265E+02 -0.50562463200E+02  0.23239488997E+04  0.23264376814E+04  0.00000000000E+00 0. -1.
         22    1    3    3    0    0 -0.50799010006E+02  0.60508054242E+02  0.42230042907E+02  0.89583148916E+02  0.00000000000E+00 0. -1.
         22    1    3    3    0    0 -0.35409549817E+02  0.14190674587E+02  0.21475138821E+03  0.21811320501E+03  0.00000000000E+00 0. -1.
</event>
<event>
 7    1  0.6037677E-006  0.4046849E+02  0.7818608E-02  0.1538045E+00
          2   -1    0    0  502    0  0.00000000000E+00  0.00000000000E+00  0.20700231144E+04  0.20700231144E+04  0.00000000000E+00 0. -1.
          1   -1    0    0  501    0 -0.00000000000E+00 -0.00000000000E+00 -0.23887208689E+04  0.23887208689E+04  0.00000000000E+00 0. -1.
         25    2    1    2    0    0  0.11521348827E+02  0.28910561290E+02 -0.52777422323E+03  0.54326686935E+03  0.12499879440E+03 0.  0.
          2    1    1    2  501    0  0.27303978831E+02 -0.17468081896E+02 -0.18528599527E+04  0.18531434498E+04  0.00000000000E+00 0. -1.
          1    1    1    2  502    0 -0.38825327658E+02 -0.11442479394E+02  0.20619364214E+04  0.20623336641E+04  0.00000000000E+00 0. -1.
         22    1    3    3    0    0  0.23390874564E+02 -0.37967577621E+02 -0.35220099499E+03  0.35501297277E+03  0.00000000000E+00 0. -1.
         22    1    3    3    0    0 -0.11869525736E+02  0.66878138911E+02 -0.17557322824E+03  0.18825389658E+03  0.00000000000E+00 0. -1.
</event>
<event>
 7    1  0.5553952E-006  0.1192083E+03  0.7818608E-02  0.1431755E+00
          2   -1    0    0  502    0  0.00000000000E+00  0.00000000000E+00  0.69207514143E+03  0.69207514143E+03  0.00000000000E+00 0. -1.
          1   -1    0    0  501    0 -0.00000000000E+00 -0.00000000000E+00 -0.52936444386E+03  0.52936444386E+03  0.00000000000E+00 0. -1.
         25    2    1    2    0    0 -0.78433820205E+02 -0.56754523001E+02  0.39253482773E+03  0.42318173106E+03  0.12500498584E+03 0.  0.
          2    1    1    2  501    0  0.93873277812E+02  0.74094844131E+02 -0.50659254892E+03  0.52051728966E+03  0.00000000000E+00 0. -1.
          1    1    1    2  502    0 -0.15439457608E+02 -0.17340321131E+02  0.27676841876E+03  0.27774056457E+03  0.00000000000E+00 0. -1.
         22    1    3    3    0    0 -0.74699605188E+02 -0.30910435556E+02  0.38842402411E+03  0.39674766356E+03  0.00000000000E+00 0.  1.
         22    1    3    3    0    0 -0.37342150170E+01 -0.25844087445E+02  0.41108036253E+01  0.26434067491E+02  0.00000000000E+00 0.  1.
</event>
<event>
 7    1  0.5553952E-006  0.1207780E+03  0.7818608E-02  0.1423139E+00
          2   -1    0    0  502    0  0.00000000000E+00  0.00000000000E+00  0.18278249987E+04  0.18278249987E+04  0.00000000000E+00 0. -1.
          1   -1    0    0  501    0 -0.00000000000E+00 -0.00000000000E+00 -0.96446809595E+03  0.96446809595E+03  0.00000000000E+00 0. -1.
         25    2    1    2    0    0  0.13925300394E+03 -0.21050866875E+02 -0.79391548617E+03  0.81594160827E+03  0.12499748327E+03 0.  0.
          2    1    1    2  501    0 -0.18634718546E+02  0.15857331014E+02 -0.15658269175E+03  0.15848295504E+03  0.00000000000E+00 0. -1.
          1    1    1    2  502    0 -0.12061828540E+03  0.51935358612E+01  0.18138550807E+04  0.18178685313E+04  0.00000000000E+00 0. -1.
         22    1    3    3    0    0  0.17920640752E+02 -0.11516697981E+02 -0.46075005584E+03  0.46124223317E+03  0.00000000000E+00 0.  1.
         22    1    3    3    0    0  0.12133236319E+03 -0.95341688941E+01 -0.33316543033E+03  0.35469937510E+03  0.00000000000E+00 0.  1.
</event>
<event>
 7    1  0.5553952E-006  0.1022772E+03  0.7818608E-02  0.1345740E+00
          2   -1    0    0  502    0  0.00000000000E+00  0.00000000000E+00  0.22864434729E+04  0.22864434729E+04  0.00000000000E+00 0. -1.
          1   -1    0    0  501    0 -0.00000000000E+00 -0.00000000000E+00 -0.20640790130E+03  0.20640790130E+03  0.00000000000E+00 0. -1.
         25    2    1    2    0    0  0.12329538608E+03 -0.45399619985E+02 -0.68593809305E+02  0.19388965471E+03  0.12500083922E+03 0.  0.
          2    1    1    2  501    0 -0.70630954214E+02  0.57870265809E+02 -0.46978243573E+02  0.10268716924E+03  0.00000000000E+00 0. -1.
          1    1    1    2  502    0 -0.52664431867E+02 -0.12470645824E+02  0.21956076245E+04  0.21962745503E+04  0.00000000000E+00 0. -1.
         22    1    3    3    0    0  0.29003224541E+02 -0.25847681960E+02 -0.87514932721E+02  0.95750473344E+02  0.00000000000E+00 0. -1.
         22    1    3    3    0    0  0.94292161540E+02 -0.19551938025E+02  0.18921123416E+02  0.98139181369E+02  0.00000000000E+00 0. -1.
</event>
<event>
 7    1  0.5553952E-006  0.1712275E+03  0.7818608E-02  0.1248300E+00
          2   -1    0    0  502    0  0.00000000000E+00  0.00000000000E+00  0.53876325948E+03  0.53876325948E+03  0.00000000000E+00 0. -1.
          1   -1    0    0  501    0 -0.00000000000E+00 -0.00000000000E+00 -0.21643279473E+04  0.21643279473E+04  0.00000000000E+00 0. -1.
         25    2    1    2    0    0  0.16672867455E+03 -0.13585984148E+03 -0.73238199088E+03  0.77347506864E+03  0.12499581514E+03 0.  0.
          2    1    1    2  501    0 -0.56224212774E+01  0.79611768586E+02 -0.13961811111E+04  0.13984603463E+04  0.00000000000E+00 0. -1.
          1    1    1    2  502    0 -0.16110625328E+03  0.56248072896E+02  0.50299841413E+03  0.53115579181E+03  0.00000000000E+00 0. -1.
         22    1    3    3    0    0  0.17060621335E+03 -0.73701319740E+02 -0.52369354027E+03  0.55569172091E+03  0.00000000000E+00 0. -1.
         22    1    3    3    0    0 -0.38775388004E+01 -0.62158521741E+02 -0.20868845061E+03  0.21778334773E+03  0.00000000000E+00 0. -1.
</event>
<event>
 7    1  0.5553952E-006  0.1592243E+03  0.7818608E-02  0.1283842E+00
          2   -1    0    0  502    0  0.00000000000E+00  0.00000000000E+00  0.18172607721E+04  0.18172607721E+04  0.00000000000E+00 0. -1.
          1   -1    0    0  501    0 -0.00000000000E+00 -0.00000000000E+00 -0.15221244380E+04  0.15221244380E+04  0.00000000000E+00 0. -1.
         25    2    1    2    0    0  0.41328318890E+02  0.20411254963E+03  0.36213435730E+03  0.43604665089E+03  0.12500170462E+03 0.  0.
          2    1    1    2  501    0 -0.60862920505E+02 -0.14661277900E+03 -0.14802724978E+04  0.14887599772E+04  0.00000000000E+00 0. -1.
          1    1    1    2  502    0  0.19534601616E+02 -0.57499770632E+02  0.14132744745E+04  0.14145785820E+04  0.00000000000E+00 0. -1.
         22    1    3    3    0    0  0.49754784600E+02  0.28471881356E+02  0.42949861361E+02  0.71630141766E+02  0.00000000000E+00 0. -1.
         22    1    3    3    0    0 -0.84264657101E+01  0.17564066828E+03  0.31918449594E+03  0.36441650913E+03  0.00000000000E+00 0. -1.
</event>
<event>
 7    1  0.5553952E-006  0.1174219E+03  0.7818608E-02  0.1374806E+00
          2   -1    0    0  502    0  0.00000000000E+00  0.00000000000E+00  0.18250125249E+04  0.18250125249E+04  0.00000000000E+00 0. -1.
          1   -1    0    0  501    0 -0.00000000000E+00 -0.00000000000E+00 -0.11593031944E+04  0.11593031944E+04  0.00000000000E+00 0. -1.
         25    2    1    2    0    0 -0.97989171003E+01 -0.92424919081E+02  0.11009839405E+03  0.19074923974E+03  0.12500092658E+03 0.  0.
          2    1    1    2  501    0  0.27020973681E+02 -0.25169321909E+02 -0.11165634251E+04  0.11171738943E+04  0.00000000000E+00 0. -1.
          1    1    1    2  502    0 -0.17222056581E+02  0.11759424099E+03  0.16721743615E+04  0.16763925853E+04  0.00000000000E+00 0. -1.
         22    1    3    3    0    0 -0.26606384438E+01 -0.10538730677E+03  0.30439476631E+02  0.10972750413E+03  0.00000000000E+00 0.  1.
         22    1    3    3    0    0 -0.71382786564E+01  0.12962387689E+02  0.79658917414E+02  0.81021735605E+02  0.00000000000E+00 0.  1.
</event>
<event>
 7    1  0.5553952E-006  0.5191662E+02  0.7818608E-02  0.1479267E+00
          2   -1    0    0  502    0  0.00000000000E+00  0.00000000000E+00  0.35600504175E+03  0.35600504175E+03  0.00000000000E+00 0. -1.
          1   -1    0    0  501    0 -0.00000000000E+00 -0.00000000000E+00 -0.37466369619E+03  0.37466369619E+03  0.00000000000E+00 0. -1.
         25    2    1    2    0    0  0.11725161858E+02  0.25732019922E+02 -0.14701715173E+03  0.19503650534E+03  0.12500231695E+03 0.  0.
          2    1    1    2  501    0  0.11354958522E+02 -0.55497715581E+02 -0.19859510973E+03  0.20651622001E+03  0.00000000000E+00 0. -1.
          1    1    1    2  502    0 -0.23080120381E+02  0.29765695659E+02  0.32695360702E+03  0.32911601258E+03  0.00000000000E+00 0. -1.
         22    1    3    3    0    0  0.15506675021E+02  0.34340611099E+01 -0.16523425876E+03  0.16599581325E+03  0.00000000000E+00 0. -1.
         22    1    3    3    0    0 -0.37815131621E+01  0.22297958812E+02  0.18217107031E+02  0.29040692099E+02  0.00000000000E+00 0. -1.
</event>
<event>
 7    1  0.5553952E-006  0.2325384E+03  0.7818608E-02  0.1300207E+00
          2   -1    0    0  502    0  0.00000000000E+00  0.00000000000E+00  0.16916448622E+04  0.16916448622E+04  0.00000000000E+00 0. -1.
          1   -1    0    0  501    0 -0.00000000000E+00 -0.00000000000E+00 -0.70244178130E+02  0.70244178130E+02  0.00000000000E+00 0. -1.
         25    2    1    2    0    0 -0.11174042514E+03  0.20619544398E+03  0.78822087766E+03  0.83181690298E+03  0.12499889745E+03 0.  0.
          2    1    1    2  501    0  0.33442009045E+02  0.12467493697E+02 -0.23324103935E+02  0.42635902623E+02  0.00000000000E+00 0. -1.
          1    1    1    2  502    0  0.78298416090E+02 -0.21866293768E+03  0.85650391030E+03  0.88743623469E+03  0.00000000000E+00 0. -1.
         22    1    3    3    0    0 -0.10851236804E+03  0.17430911957E+03  0.76542865856E+03  0.79248951699E+03  0.00000000000E+00 0.  1.
         22    1    3    3    0    0 -0.32280570944E+01  0.31886324417E+02  0.22792219101E+02  0.39327385993E+02  0.00000000000E+00 0.  1.
</event>
<event>
 7    1  0.5553952E-006  0.3884083E+03  0.7818608E-02  0.1134801E+00
          2   -1    0    0  502    0  0.00000000000E+00  0.00000000000E+00  0.46829383074E+04  0.46829383074E+04  0.00000000000E+00 0. -1.
          1   -1    0    0  501    0 -0.00000000000E+00 -0.00000000000E+00 -0.24602667338E+04  0.24602667338E+04  0.00000000000E+00 0. -1.
         25    2    1    2    0    0  0.31862575965E+03 -0.12241924727E+01  0.34481710080E+04  0.34651163826E+04  0.12499748566E+03 0.  0.
          2    1    1    2  501    0 -0.37309558542E+03 -0.10930909754E+03 -0.24332271810E+04  0.24640907672E+04  0.00000000000E+00 0. -1.
          1    1    1    2  502    0  0.54469825769E+02  0.11053329001E+03  0.12077277466E+04  0.12139978913E+04  0.00000000000E+00 0. -1.
         22    1    3    3    0    0  0.53734292036E+01  0.13892880860E+02  0.51720040272E+03  0.51741486493E+03  0.00000000000E+00 0.  1.
         22    1    3    3    0    0  0.31325233045E+03 -0.15117073333E+02  0.29309706052E+04  0.29477015177E+04  0.00000000000E+00 0.  1.
</event>
<event>
 7    1  0.5553952E-006  0.5616494E+02  0.7818608E-02  0.1474842E+00
          2   -1    0    0  502    0  0.00000000000E+00  0.00000000000E+00  0.59408822221E+03  0.59408822221E+03  0.00000000000E+00 0. -1.
          1   -1    0    0  501    0 -0.00000000000E+00 -0.00000000000E+00 -0.85819668319E+03  0.85819668319E+03  0.00000000000E+00 0. -1.
         25    2    1    2    0    0  0.69412361887E+02 -0.39771625963E+02 -0.21349234080E+03  0.26000883713E+03  0.12500303032E+03 0.  0.
          2    1    1    2  501    0 -0.54766979586E+02  0.69658667522E+01 -0.61965233159E+03  0.62210686975E+03  0.00000000000E+00 0. -1.
          1    1    1    2  502    0 -0.14645382301E+02  0.32805759211E+02  0.56903621140E+03  0.57016919852E+03  0.00000000000E+00 0. -1.
         22    1    3    3    0    0  0.50952079654E+02 -0.83069735151E+02 -0.11421972973E+03  0.15014273868E+03  0.00000000000E+00 0. -1.
         22    1    3    3    0    0  0.18460282234E+02  0.43298109188E+02 -0.99272611070E+02  0.10986609845E+03  0.00000000000E+00 0. -1.
</event>
<event>
 7    1  0.5553952E-006  0.1450847E+03  0.7818608E-02  0.1289958E+00
          2   -1    0    0  502    0  0.00000000000E+00  0.00000000000E+00  0.19363424253E+04  0.19363424253E+04  0.00000000000E+00 0. -1.
          1   -1    0    0  501    0 -0.00000000000E+00 -0.00000000000E+00 -0.76370585556E+03  0.76370585556E+03  0.00000000000E+00 0. -1.
         25    2    1    2    0    0 -0.11340700519E+03 -0.13722584144E+03  0.13886387866E+03  0.25806975428E+03  0.12499896359E+03 0.  0.
          2    1    1    2  501    0  0.62868218947E+02  0.24977227381E+01 -0.69971034170E+03  0.70253342544E+03  0.00000000000E+00 0. -1.
          1    1    1    2  502    0  0.50538786241E+02  0.13472811870E+03  0.17334830328E+04  0.17394451011E+04  0.00000000000E+00 0. -1.
         22    1    3    3    0    0 -0.59522821983E+02  0.10348613318E+02  0.39304596384E+02  0.72075733998E+02  0.00000000000E+00 0.  1.
         22    1    3    3    0    0 -0.53884183204E+02 -0.14757445475E+03  0.99559282273E+02  0.18599402029E+03  0.00000000000E+00 0.  1.
</event>
<event>
 7    1  0.5553952E-006  0.1174487E+03  0.7818608E-02  0.1282764E+00
          2   -1    0    0  502    0  0.00000000000E+00  0.00000000000E+00  0.48198612605E+03  0.48198612605E+03  0.00000000000E+00 0. -1.
          1   -1    0    0  501    0 -0.00000000000E+00 -0.00000000000E+00 -0.16628230321E+03  0.16628230321E+03  0.00000000000E+00 0. -1.
         25    2    1    2    0    0 -0.72260978076E+02  0.97406611180E+02  0.11099647784E+03  0.20653003028E+03  0.12499895384E+03 0.  0.
          2    1    1    2  501    0  0.11831480945E+03 -0.28148581675E+02 -0.79708819456E+02  0.14541056593E+03  0.00000000000E+00 0. -1.
          1    1    1    2  502    0 -0.46053831369E+02 -0.69258029505E+02  0.28441616446E+03  0.29632783305E+03  0.00000000000E+00 0. -1.
         22    1    3    3    0    0 -0.87627109656E+02  0.79279160339E+02  0.29716446247E+02  0.12184729290E+03  0.00000000000E+00 0. -1.
         22    1    3    3    0    0  0.15366131579E+02  0.18127450841E+02  0.81280031590E+02  0.84682737373E+02  0.00000000000E+00 0. -1.
</event>
<event>
 7    1  0.5553952E-006  0.6516140E+02  0.7818608E-02  0.1496753E+00
          2   -1    0    0  502    0  0.00000000000E+00  0.00000000000E+00  0.15253145613E+04  0.15253145613E+04  0.00000000000E+00 0. -1.
          1   -1    0    0  501    0 -0.00000000000E+00 -0.00000000000E+00 -0.98552466659E+02  0.98552466659E+02  0.00000000000E+00 0. -1.
         25    2    1    2    0    0 -0.37611163117E+02 -0.18979517222E+02  0.73605875773E+03  0.74778342867E+03  0.12499095848E+03 0.  0.
          2    1    1    2  501    0  0.63842519982E+02  0.14822235215E+02 -0.80847189857E+02  0.10407609775E+03  0.00000000000E+00 0. -1.
          1    1    1    2  502    0 -0.26231356865E+02  0.41572820073E+01  0.77155052679E+03  0.77200750156E+03  0.00000000000E+00 0. -1.
         22    1    3    3    0    0 -0.69645444571E+02 -0.51215922932E+02  0.48506191363E+03  0.49270540768E+03  0.00000000000E+00 0.  1.
         22    1    3    3    0    0  0.32034281454E+02  0.32236405710E+02  0.25099684411E+03  0.25507802099E+03  0.00000000000E+00 0.  1.
</event>
<event>
 7    1  0.5553952E-006  0.1041967E+03  0.7818608E-02  0.1314785E+00
          2   -1    0    0  502    0  0.00000000000E+00  0.00000000000E+00  0.21713843737E+04  0.21713843737E+04  0.00000000000E+00 0. -1.
          1   -1    0    0  501    0 -0.00000000000E+00 -0.00000000000E+00 -0.54336690699E+02  0.54336690699E+02  0.00000000000E+00 0. -1.
         25    2    1    2    0    0  0.16188548744E+03 -0.45239071677E+02  0.14938213193E+04  0.15084352689E+04  0.12498536661E+03 0.  0.
          2    1    1    2  501    0 -0.92166846420E+02  0.43299887714E+02  0.12506633425E+02  0.10259641190E+03  0.00000000000E+00 0. -1.
          1    1    1    2  502    0 -0.69718641022E+02  0.19391839628E+01  0.61071973031E+03  0.61468938362E+03  0.00000000000E+00 0. -1.
         22    1    3    3    0    0  0.35737593368E+02  0.24753453671E+02  0.13156560863E+03  0.13856196600E+03  0.00000000000E+00 0.  1.
         22    1    3    3    0    0  0.12614789407E+03 -0.69992525347E+02  0.13622557107E+04  0.13698733029E+04  0.00000000000E+00 0.  1.
</event>
<event>
 7    1  0.5553952E-006  0.1339254E+03  0.7818608E-02  0.1289197E+00
          2   -1    0    0  502    0  0.00000000000E+00  0.00000000000E+00  0.32798733601E+03  0.32798733601E+03  0.00000000000E+00 0. -1.
          1   -1    0    0  501    0 -0.00000000000E+00 -0.00000000000E+00 -0.30480169550E+03  0.30480169550E+03  0.00000000000E+00 0. -1.
         25    2    1    2    0    0  0.80090777997E+02 -0.92423943921E+01  0.45971707156E+02  0.15569319795E+03  0.12500807756E+03 0.  0.
          2    1    1    2  501    0 -0.14519127927E+03 -0.12541334613E+02 -0.22246370015E+03  0.26594715741E+03  0.00000000000E+00 0. -1.
          1    1    1    2  502    0  0.65100501269E+02  0.21783729005E+02  0.19967763351E+03  0.21114867615E+03  0.00000000000E+00 0. -1.
         22    1    3    3    0    0  0.25423056718E+01  0.29320295890E+01 -0.39473387425E+02  0.39663691589E+02  0.00000000000E+00 0.  1.
         22    1    3    3    0    0  0.77548472325E+02 -0.12174423981E+02  0.85445094581E+02  0.11602950636E+03  0.00000000000E+00 0.  1.
</event>
<event>
 7    1  0.5553952E-006  0.2623071E+03  0.7818608E-02  0.1248914E+00
          2   -1    0    0  502    0  0.00000000000E+00  0.00000000000E+00  0.21727562682E+04  0.21727562682E+04  0.00000000000E+00 0. -1.
          1   -1    0    0  501    0 -0.00000000000E+00 -0.00000000000E+00 -0.44861489929E+03  0.44861489929E+03  0.00000000000E+00 0. -1.
         25    2    1    2    0    0  0.95405198481E+02 -0.29482733913E+03  0.72455233683E+02  0.34190618509E+03  0.12499906688E+03 0.  0.
          2    1    1    2  501    0 -0.25267149306E+02  0.45195339139E+02 -0.30313301702E+03  0.30752345198E+03  0.00000000000E+00 0. -1.
          1    1    1    2  502    0 -0.70138049175E+02  0.24963199999E+03  0.19548191523E+04  0.19719415304E+04  0.00000000000E+00 0. -1.
         22    1    3    3    0    0  0.11940657480E+03 -0.26746480291E+03  0.82205481919E+02  0.30422539696E+03  0.00000000000E+00 0. -1.
         22    1    3    3    0    0 -0.24001376315E+02 -0.27362536225E+02 -0.97502482363E+01  0.37680788133E+02  0.00000000000E+00 0. -1.
</event>
<event>
 7    1  0.5553952E-006  0.4880600E+02  0.7818608E-02  0.1550371E+00
          2   -1    0    0  502    0  0.00000000000E+00  0.00000000000E+00  0.20681072927E+04  0.20681072927E+04  0.00000000000E+00 0. -1.
          1   -1    0    0  501    0 -0.00000000000E+00 -0.00000000000E+00 -0.65525854696E+03  0.65525854696E+03  0.00000000000E+00 0. -1.
         25    2    1    2    0    0  0.22810510802E+00  0.48803720293E+02  0.69362535153E+03  0.70648718000E+03  0.12500460816E+03 0.  0.
          2    1    1    2  501    0  0.23803718921E+02 -0.42617081092E+02 -0.64779673478E+03  0.64963331367E+03  0.00000000000E+00 0. -1.
          1    1    1    2  502    0 -0.24031824029E+02 -0.61866392006E+01  0.13670201290E+04  0.13672453460E+04  0.00000000000E+00 0. -1.
         22    1    3    3    0    0 -0.40390227359E+02  0.12504410693E+02  0.56784772471E+03  0.56941967758E+03  0.00000000000E+00 0.  1.
         22    1    3    3    0    0  0.40618332467E+02  0.36299309600E+02  0.12577762683E+03  0.13706750242E+03  0.00000000000E+00 0.  1.
</event>
<event>
 7    1  0.5553952E-006  0.1841218E+03  0.7818608E-02  0.1283247E+00
          2   -1    0    0  502    0  0.00000000000E+00  0.00000000000E+00  0.97524519747E+03  0.97524519747E+03  0.00000000000E+00 0. -1.
          1   -1    0    0  501    0 -0.00000000000E+00 -0.00000000000E+00 -0.57730079513E+03  0.57730079513E+03  0.00000000000E+00 0. -1.
         25    2    1    2    0    0 -0.21693585323E+02  0.14441040383E+03  0.64796861721E+02  0.20285100269E+03  0.12499967850E+03 0.  0.
          2    1    1    2  501    0 -0.60567920897E+01 -0.18934418878E+03 -0.48974593473E+03  0.52510854796E+03  0.00000000000E+00 0. -1.
          1    1    1    2  502    0  0.27750377412E+02  0.44933784947E+02  0.82289347534E+03  0.82458644195E+03  0.00000000000E+00 0. -1.
         22    1    3    3    0    0 -0.51239238654E+02  0.13455769884E+03  0.15874355748E+02  0.14485589068E+03  0.00000000000E+00 0. -1.
         22    1    3    3    0    0  0.29545653331E+02  0.98527049901E+01  0.48922505973E+02  0.57995112010E+02  0.00000000000E+00 0. -1.
</event>
<event>
 7    1  0.5553952E-006  0.9849363E+02  0.7818608E-02  0.1291750E+00
          2   -1    0    0  502    0  0.00000000000E+00  0.00000000000E+00  0.28662324392E+04  0.28662324392E+04  0.00000000000E+00 0. -1.
          1   -1    0    0  501    0 -0.00000000000E+00 -0.00000000000E+00 -0.70412663846E+03  0.70412663846E+03  0.00000000000E+00 0. -1.
         25    2    1    2    0    0  0.15402872580E+03  0.12829395432E+02  0.19593286801E+03  0.27911561575E+03  0.12500558561E+03 0.  0.
          2    1    1    2  501    0 -0.68439747778E+02 -0.60187365733E+02 -0.65848551595E+03  0.66476288463E+03  0.00000000000E+00 0. -1.
          1    1    1    2  502    0 -0.85588978019E+02  0.47357970302E+02  0.26246584487E+04  0.26264805773E+04  0.00000000000E+00 0. -1.
         22    1    3    3    0    0  0.62719648816E+02 -0.15996772323E+02  0.42728084100E+01  0.64868389559E+02  0.00000000000E+00 0.  1.
         22    1    3    3    0    0  0.91309076981E+02  0.28826167755E+02  0.19166005960E+03  0.21424722619E+03  0.00000000000E+00 0.  1.
</event>
<event>
 7    1  0.5553952E-006  0.1718096E+03  0.7818608E-02  0.1376747E+00
          2   -1    0    0  502    0  0.00000000000E+00  0.00000000000E+00  0.53866516103E+03  0.53866516103E+03  0.00000000000E+00 0. -1.
          1   -1    0    0  501    0 -0.00000000000E+00 -0.00000000000E+00 -0.20775357191E+04  0.20775357191E+04  0.00000000000E+00 0. -1.
         25    2    1    2    0    0  0.15274039384E+03 -0.90499039933E+02 -0.10994923913E+04  0.11207279779E+04  0.12501191016E+03 0.  0.
          2    1    1    2  501    0 -0.13219610360E+03  0.10445974964E+03 -0.95979119739E+03  0.97446744003E+03  0.00000000000E+00 0. -1.
          1    1    1    2  502    0 -0.20544290249E+02 -0.13960709709E+02  0.52041303061E+03  0.52100546226E+03  0.00000000000E+00 0. -1.
         22    1    3    3    0    0  0.79118143934E+01 -0.69416958590E+02 -0.40497112623E+03  0.41095367625E+03  0.00000000000E+00 0.  1.
         22    1    3    3    0    0  0.14482857945E+03 -0.21082081343E+02 -0.69452126510E+03  0.70977430163E+03  0.00000000000E+00 0.  1.
</event>
<event>
 7    1  0.5553952E-006  0.6074068E+02  0.7818608E-02  0.1411195E+00
          2   -1    0    0  502    0  0.00000000000E+00  0.00000000000E+00  0.20015406824E+04  0.20015406824E+04  0.00000000000E+00 0. -1.
          1   -1    0    0  501    0 -0.00000000000E+00 -0.00000000000E+00 -0.39844823641E+02  0.39844823641E+02  0.00000000000E+00 0. -1.
         25    2    1    2    0    0 -0.54553132583E+02 -0.27989935396E+02  0.13554956848E+03  0.19432078003E+03  0.12500959674E+03 0.  0.
          2    1    1    2  501    0  0.65189100783E+02 -0.24294091127E+02  0.11041476600E+03  0.13050380177E+03  0.00000000000E+00 0. -1.
          1    1    1    2  502    0 -0.10635968200E+02  0.52284026523E+02  0.17157315242E+04  0.17165609242E+04  0.00000000000E+00 0. -1.
         22    1    3    3    0    0 -0.23173889564E+01 -0.36368723923E+02  0.13662973006E+03  0.14140628525E+03  0.00000000000E+00 0. -1.
         22    1    3    3    0    0 -0.52235743626E+02  0.83787885268E+01 -0.10801615746E+01  0.52914494785E+02  0.00000000000E+00 0. -1.
</event>
<event>
 7    1  0.5553952E-006  0.1744202E+03  0.7818608E-02  0.1291389E+00
          2   -1    0    0  502    0  0.00000000000E+00  0.00000000000E+00  0.25706608412E+04  0.25706608412E+04  0.00000000000E+00 0. -1.
          1   -1    0    0  501    0 -0.00000000000E+00 -0.00000000000E+00 -0.16206495047E+04  0.16206495047E+04  0.00000000000E+00 0. -1.
         25    2    1    2    0    0 -0.15811475013E+03  0.91352921336E+02  0.38787614382E+03  0.44656379719E+03  0.12500276626E+03 0.  0.
          2    1    1    2  501    0  0.16952581410E+03 -0.40989412211E+02 -0.15862155137E+04  0.15957752941E+04  0.00000000000E+00 0. -1.
          1    1    1    2  502    0 -0.11411063969E+02 -0.50363509124E+02  0.21483507063E+04  0.21489712545E+04  0.00000000000E+00 0. -1.
         22    1    3    3    0    0  0.17305817043E+02 -0.67802570221E+01  0.50960516061E+02  0.54244238274E+02  0.00000000000E+00 0. -1.
         22    1    3    3    0    0 -0.17542056717E+03  0.98133178358E+02  0.33691562776E+03  0.39231955892E+03  0.00000000000E+00 0. -1.
</event>
<event>
 7    1  0.5553952E-006  0.6885836E+02  0.7818608E-02  0.1464258E+00
          2   -1    0    0  502    0  0.00000000000E+00  0.00000000000E+00  0.19044956246E+04  0.19044956246E+04  0.00000000000E+00 0. -1.
          1   -1    0    0  501    0 -0.00000000000E+00 -0.00000000000E+00 -0.11483745962E+03  0.11483745962E+03  0.00000000000E+00 0. -1.
         25    2    1    2    0    0 -0.37863413952E+02  0.78592688498E+02  0.15819136598E+03  0.21968204759E+03  0.12500097984E+03 0.  0.
          2    1    1    2  501    0  0.47452476394E+02 -0.48469019987E+02 -0.70242986588E+02  0.97647634786E+02  0.00000000000E+00 0. -1.
          1    1    1    2  502    0 -0.95890624421E+01 -0.30123668512E+02  0.17017097856E+04  0.17020034019E+04  0.00000000000E+00 0. -1.
         22    1    3    3    0    0 -0.54160612881E+01  0.87917548802E+01  0.14026963963E+03  0.14064921072E+03  0.00000000000E+00 0. -1.
         22    1    3    3    0    0 -0.32447352664E+02  0.69800933618E+02  0.17921726354E+02  0.79032836874E+02  0.00000000000E+00 0. -1.
</event>
<event>
 7    1  0.5553952E-006  0.4977679E+02  0.7818608E-02  0.1569454E+00
          2   -1    0    0  502    0  0.00000000000E+00  0.00000000000E+00  0.14678132446E+04  0.14678132446E+04  0.00000000000E+00 0. -1.
          1   -1    0    0  501    0 -0.00000000000E+00 -0.00000000000E+00 -0.27888307739E+03  0.27888307739E+03  0.00000000000E+00 0. -1.
         25    2    1    2    0    0  0.58600096743E+02 -0.40277989735E+02  0.72299028085E+03  0.73715702385E+03  0.12501697413E+03 0.  0.
          2    1    1    2  501    0 -0.42175456522E+02  0.26312926923E+02 -0.26936745004E+03  0.27391597690E+03  0.00000000000E+00 0. -1.
          1    1    1    2  502    0 -0.16424640220E+02  0.13965062813E+02  0.73530733636E+03  0.73562332120E+03  0.00000000000E+00 0. -1.
         22    1    3    3    0    0 -0.29815862594E+02 -0.10629370379E+02  0.61921429209E+02  0.69543026769E+02  0.00000000000E+00 0.  1.
         22    1    3    3    0    0  0.88415959337E+02 -0.29648619356E+02  0.66106885164E+03  0.66761399708E+03  0.00000000000E+00 0.  1.
</event>
<event>
 7    1  0.5553952E-006  0.1872277E+03  0.7818608E-02  0.1237218E+00
          2   -1    0    0  502    0  0.00000000000E+00  0.00000000000E+00  0.82159710762E+03  0.82159710762E+03  0.00000000000E+00 0. -1.
          1   -1    0    0  501    0 -0.00000000000E+00 -0.00000000000E+00 -0.12264564621E+04  0.12264564621E+04  0.00000000000E+00 0. -1.
         25    2    1    2    0    0 -0.21876190236E+03 -0.72588138839E+02  0.20830211038E+03  0.33487454100E+03  0.12500152478E+03 0.  0.
          2    1    1    2  501    0  0.74392200824E+02 -0.33633832264E+02 -0.11470783966E+04  0.11499801226E+04  0.00000000000E+00 0. -1.
          1    1    1    2  502    0  0.14436970153E+03  0.10622197110E+03  0.53391693178E+03  0.56319890617E+03  0.00000000000E+00 0. -1.
         22    1    3    3    0    0  0.64694824165E+01 -0.26918425291E+02  0.45415768725E+02  0.53188794607E+02  0.00000000000E+00 0.  1.
         22    1    3    3    0    0 -0.22523138477E+03 -0.45669713547E+02  0.16288634166E+03  0.28168574639E+03  0.00000000000E+00 0.  1.
</event>
<event>
 7    1  0.5553952E-006  0.3901913E+02  0.7818608E-02  0.1563019E+00
          2   -1    0    0  502    0  0.00000000000E+00  0.00000000000E+00  0.15021706332E+04  0.15021706332E+04  0.00000000000E+00 0. -1.
          1   -1    0    0  501    0 -0.00000000000E+00 -0.00000000000E+00 -0.17702336932E+02  0.17702336932E+02  0.00000000000E+00 0. -1.
         25    2    1    2    0    0 -0.24064494883E+02  0.24679066165E+02  0.66132903088E+03  0.67392082528E+03  0.12500014179E+03 0.  0.
          2    1    1    2  501    0  0.39762936348E+02 -0.72672208925E+00  0.24312954759E+02  0.46612648510E+02  0.00000000000E+00 0. -1.
          1    1    1    2  502    0 -0.15698441465E+02 -0.23952344076E+02  0.79882631064E+03  0.79933949634E+03  0.00000000000E+00 0. -1.
         22    1    3    3    0    0  0.28859439287E+02 -0.37916667194E+02  0.25173013250E+03  0.25620031322E+03  0.00000000000E+00 0.  1.
         22    1    3    3    0    0 -0.52923934170E+02  0.62595733359E+02  0.40959889838E+03  0.41772051206E+03  0.00000000000E+00 0.  1.
</event>
<event>
 7    1  0.5553952E-006  0.5408214E+02  0.7818608E-02  0.1454261E+00
          2   -1    0    0  502    0  0.00000000000E+00  0.00000000000E+00  0.71077186565E+03  0.71077186565E+03  0.00000000000E+00 0. -1.
          1   -1    0    0  501    0 -0.00000000000E+00 -0.00000000000E+00 -0.97462081659E+02  0.97462081659E+02  0.00000000000E+00 0. -1.
         25    2    1    2    0    0  0.89351780394E+00 -0.29967051728E+02  0.53374119007E+03  0.54900249912E+03  0.12500105401E+03 0.  0.
          2    1    1    2  501    0 -0.44118712796E+02  0.32246309272E+02 -0.78329356992E+02  0.95507975830E+02  0.00000000000E+00 0. -1.
          1    1    1    2  502    0  0.43225194992E+02 -0.22792575443E+01  0.15789795091E+03  0.16372347235E+03  0.00000000000E+00 0. -1.
         22    1    3    3    0    0 -0.29366911970E+02 -0.50413010753E+01  0.48736822226E+03  0.48827821404E+03  0.00000000000E+00 0. -1.
         22    1    3    3    0    0  0.30260429774E+02 -0.24925750652E+02  0.46372967805E+02  0.60724285082E+02  0.00000000000E+00 0. -1.
</event>
<event>
 7    1  0.5553952E-006  0.9529187E+02  0.7818608E-02  0.1408178E+00
          2   -1    0    0  502    0  0.00000000000E+00  0.00000000000E+00  0.24531384230E+03  0.24531384230E+03  0.00000000000E+00 0. -1.
          1   -1    0    0  501    0 -0.00000000000E+00 -0.00000000000E+00 -0.63335449953E+03  0.63335449953E+03  0.00000000000E+00 0. -1.
         25    2    1    2    0    0  0.39592353021E+02  0.53239414058E+02 -0.27127318056E+03  0.30596574409E+03  0.12499563367E+03 0.  0.
          2    1    1    2  501    0  0.33467356437E+02  0.96101916492E+01 -0.33360283793E+03  0.33541507599E+03  0.00000000000E+00 0. -1.
          1    1    1    2  502    0 -0.73059709458E+02 -0.62849605707E+02  0.21683536126E+03  0.23728752175E+03  0.00000000000E+00 0. -1.
         22    1    3    3    0    0  0.36779409214E+02  0.80973034338E+02 -0.10603889471E+03  0.13839654773E+03  0.00000000000E+00 0.  1.
         22    1    3    3    0    0  0.28129438071E+01 -0.27733620280E+02 -0.16523428586E+03  0.16756919636E+03  0.00000000000E+00 0.  1.
</event>
<event>
 7    1  0.5553952E-006  0.6813023E+02  0.7818608E-02  0.1486175E+00
          2   -1    0    0  502    0  0.00000000000E+00  0.00000000000E+00  0.23311208594E+04  0.23311208594E+04  0.00000000000E+00 0. -1.
          1   -1    0    0  501    0 -0.00000000000E+00 -0.00000000000E+00 -0.29105871104E+02  0.29105871104E+02  0.00000000000E+00 0. -1.
         25    2    1    2    0    0  0.36677692851E+02  0.61303593454E+02  0.33806882400E+03  0.36744963057E+03  0.12500127006E+03 0.  0.
          2    1    1    2  501    0 -0.10079628350E+02 -0.67629620519E+02  0.67323450224E+02  0.95957341717E+02  0.00000000000E+00 0. -1.
          1    1    1    2  502    0 -0.26598064501E+02  0.63260270651E+01  0.18966227141E+04  0.18968197582E+04  0.00000000000E+00 0. -1.
         22    1    3    3    0    0  0.82503535520E+02  0.50527881288E+02  0.23522019774E+03  0.25433922542E+03  0.00000000000E+00 0. -1.
         22    1    3    3    0    0 -0.45825842669E+02  0.10775712166E+02  0.10284862626E+03  0.11311040515E+03  0.00000000000E+00 0. -1.
</event>
<event>
 7    1  0.5553952E-006  0.1146414E+03  0.7818608E-02  0.1437307E+00
          2   -1    0    0  502    0  0.00000000000E+00  0.00000000000E+00  0.20421495321E+03  0.20421495321E+03  0.00000000000E+00 0. -1.
          1   -1    0    0  501    0 -0.00000000000E+00 -0.00000000000E+00 -0.46389394811E+03  0.46389394811E+03  0.00000000000E+00 0. -1.
         25    2    1    2    0    0 -0.12769245911E+03 -0.12191912265E+02 -0.55555564043E+02  0.18752476222E+03  0.12500043565E+03 0.  0.
          2    1    1    2  501    0  0.15532820027E+02  0.17170839286E+02 -0.31906856611E+03  0.31990757431E+03  0.00000000000E+00 0. -1.
          1    1    1    2  502    0  0.11215963908E+03 -0.49789270207E+01  0.11494513526E+03  0.16067656479E+03  0.00000000000E+00 0. -1.
         22    1    3    3    0    0  0.19520891016E+02 -0.23813870102E+02 -0.37023751871E+01  0.31014080308E+02  0.00000000000E+00 0. -1.
         22    1    3    3    0    0 -0.14721335012E+03  0.11621957837E+02 -0.51853188856E+02  0.15651068191E+03  0.00000000000E+00 0. -1.
</event>
<event>
 7    1  0.5553952E-006  0.5299321E+02  0.7818608E-02  0.1510429E+00
          2   -1    0    0  502    0  0.00000000000E+00  0.00000000000E+00  0.15046028028E+03  0.15046028028E+03  0.00000000000E+00 0. -1.
          1   -1    0    0  501    0 -0.00000000000E+00 -0.00000000000E+00 -0.10721036170E+04  0.10721036170E+04  0.00000000000E+00 0. -1.
         25    2    1    2    0    0  0.11155918204E+02 -0.74973959540E+02 -0.26116928832E+02  0.14850348610E+03  0.12500256914E+03 0.  0.
          2    1    1    2  501    0 -0.17445196329E+02  0.24088194185E+02 -0.97718593847E+03  0.97763844764E+03  0.00000000000E+00 0. -1.
          1    1    1    2  502    0  0.62892781252E+01  0.50885765355E+02  0.81659530530E+02  0.96421963585E+02  0.00000000000E+00 0. -1.
         22    1    3    3    0    0  0.29895716068E+02 -0.40613029236E+02  0.44831061698E+02  0.67475892554E+02  0.00000000000E+00 0.  1.
         22    1    3    3    0    0 -0.18739797864E+02 -0.34360930304E+02 -0.70947990530E+02  0.81027593544E+02  0.00000000000E+00 0.  1.
</event>
<event>
 7    1  0.5553952E-006  0.8098304E+02  0.7818608E-02  0.1432864E+00
          2   -1    0    0  502    0  0.00000000000E+00  0.00000000000E+00  0.13303311239E+04  0.13303311239E+04  0.00000000000E+00 0. -1.
          1   -1    0    0  501    0 -0.00000000000E+00 -0.00000000000E+00 -0.73216768066E+02  0.73216768066E+02  0.00000000000E+00 0. -1.
         25    2    1    2    0    0  0.47782846001E+02 -0.58471822197E+02  0.54000175736E+02  0.15570282612E+03  0.12500078688E+03 0.  0.
          2    1    1    2  501    0 -0.27218512098E+02 -0.20194097028E+02 -0.73281249369E+01  0.34674924235E+02  0.00000000000E+00 0. -1.
          1    1    1    2  502    0 -0.20564333903E+02  0.78665919225E+02  0.12104423050E+04  0.12131701416E+04  0.00000000000E+00 0. -1.
         22    1    3    3    0    0  0.58298573683E+02  0.20350025980E+02  0.42328392806E+01  0.61893167468E+02  0.00000000000E+00 0.  1.
         22    1    3    3    0    0 -0.10515727682E+02 -0.78821848178E+02  0.49767336456E+02  0.93809658654E+02  0.00000000000E+00 0.  1.
</event>
<event>
 7    1  0.5553952E-006  0.8445361E+02  0.7818608E-02  0.1323701E+00
          2   -1    0    0  502    0  0.00000000000E+00  0.00000000000E+00  0.42965168642E+03  0.42965168642E+03  0.00000000000E+00 0. -1.
          1   -1    0    0  501    0 -0.00000000000E+00 -0.00000000000E+00 -0.25124536419E+04  0.25124536419E+04  0.00000000000E+00 0. -1.
         25    2    1    2    0    0 -0.10246098319E+02  0.13740503703E+03 -0.20402815957E+03  0.27611096532E+03  0.12499859415E+03 0.  0.
          2    1    1    2  501    0  0.48592705628E+02 -0.62862258657E+02 -0.22672170529E+04  0.22686088423E+04  0.00000000000E+00 0. -1.
          1    1    1    2  502    0 -0.38346607309E+02 -0.74542778371E+02  0.38844325701E+03  0.39738552064E+03  0.00000000000E+00 0. -1.
         22    1    3    3    0    0 -0.21604298174E+02  0.50367786718E+02 -0.17543439086E+03  0.18379577017E+03  0.00000000000E+00 0.  1.
         22    1    3    3    0    0  0.11358199855E+02  0.87037250310E+02 -0.28593768715E+02  0.92315195146E+02  0.00000000000E+00 0.  1.
</event>
<event>
 7    1  0.5553952E-006  0.1276072E+03  0.7818608E-02  0.1351378E+00
          2   -1    0    0  502    0  0.00000000000E+00  0.00000000000E+00  0.28022281999E+03  0.28022281999E+03  0.00000000000E+00 0. -1.
          1   -1    0    0  501    0 -0.00000000000E+00 -0.00000000000E+00 -0.15359045905E+03  0.15359045905E+03  0.00000000000E+00 0. -1.
         25    2    1    2    0    0  0.13614959160E+02 -0.96252313780E+02 -0.88100745617E+01  0.15859642334E+03  0.12500133224E+03 0.  0.
          2    1    1    2  501    0 -0.10143158386E+02 -0.40072694925E+02 -0.36925714215E+02  0.55427546499E+02  0.00000000000E+00 0. -1.
          1    1    1    2  502    0 -0.34718007738E+01  0.13632500870E+03  0.17236814971E+03  0.21978930919E+03  0.00000000000E+00 0. -1.
         22    1    3    3    0    0 -0.20247906884E+02 -0.36967402108E+02 -0.59956180159E+02  0.73289222203E+02  0.00000000000E+00 0. -1.
         22    1    3    3    0    0  0.33862866045E+02 -0.59284911672E+02  0.51146105597E+02  0.85307201141E+02  0.00000000000E+00 0. -1.
</event>
<event>
 7    1  0.5553952E-006  0.4956283E+02  0.7818608E-02  0.1497913E+00
          2   -1    0    0  502    0  0.00000000000E+00  0.00000000000E+00  0.10767206032E+04  0.10767206032E+04  0.00000000000E+00 0. -1.
          1   -1    0    0  501    0 -0.00000000000E+00 -0.00000000000E+00 -0.38723814533E+03  0.38723814533E+03  0.00000000000E+00 0. -1.
         25    2    1    2    0    0  0.28564791768E+02 -0.13859369242E+02 -0.18135241804E+02  0.13023418598E+03  0.12499610697E+03 0.  0.
          2    1    1    2  501    0 -0.11178331108E+02 -0.32786039182E+02 -0.31148581620E+03  0.31340595583E+03  0.00000000000E+00 0. -1.
          1    1    1    2  502    0 -0.17386460660E+02  0.46645408424E+02  0.10191035159E+04  0.10203186067E+04  0.00000000000E+00 0. -1.
         22    1    3    3    0    0  0.41160319058E+02 -0.48999744996E+02  0.28874311395E+02  0.70205930898E+02  0.00000000000E+00 0.  1.
         22    1    3    3    0    0 -0.12595527290E+02  0.35140375754E+02 -0.47009553199E+02  0.60028255079E+02  0.00000000000E+00 0.  1.
</event>
<event>
 7    1  0.5553952E-006  0.4296156E+02  0.7818608E-02  0.1600971E+00
          2   -1    0    0  502    0  0.00000000000E+00  0.00000000000E+00  0.77883446713E+03  0.77883446713E+03  0.00000000000E+00 0. -1.
          1   -1    0    0  501    0 -0.00000000000E+00 -0.00000000000E+00 -0.40882771320E+03  0.40882771320E+03  0.00000000000E+00 0. -1.
         25    2    1    2    0    0  0.59022487427E+02 -0.18883680598E+02  0.70023103990E+02  0.15610382575E+03  0.12499968763E+03 0.  0.
          2    1    1    2  501    0 -0.38434427213E+02  0.18736937349E+02 -0.36437778560E+03  0.36687797515E+03  0.00000000000E+00 0. -1.
          1    1    1    2  502    0 -0.20588060214E+02  0.14674324879E+00  0.66436143554E+03  0.66468037943E+03  0.00000000000E+00 0. -1.
         22    1    3    3    0    0 -0.24465149679E+02  0.13476451990E+02  0.59775864805E+02  0.65979635648E+02  0.00000000000E+00 0. -1.
         22    1    3    3    0    0  0.83487637106E+02 -0.32360132588E+02  0.10247239185E+02  0.90124190102E+02  0.00000000000E+00 0. -1.
</event>
<event>
 7    1  0.5553952E-006  0.1397791E+03  0.7818608E-02  0.1312898E+00
          2   -1    0    0  502    0  0.00000000000E+00  0.00000000000E+00  0.16535419106E+04  0.16535419106E+04  0.00000000000E+00 0. -1.
          1   -1    0    0  501    0 -0.00000000000E+00 -0.00000000000E+00 -0.21835766214E+04  0.21835766214E+04  0.00000000000E+00 0. -1.
         25    2    1    2    0    0 -0.18564152535E+03  0.27233515087E+02 -0.11809045293E+02  0.22576403878E+03  0.12500202950E+03 0.  0.
          2    1    1    2  501    0  0.47114709566E+02 -0.24018158895E+02 -0.20613466185E+04  0.20620248664E+04  0.00000000000E+00 0. -1.
          1    1    1    2  502    0  0.13852681578E+03 -0.32153561925E+01  0.15431209530E+04  0.15493296269E+04  0.00000000000E+00 0. -1.
         22    1    3    3    0    0 -0.20059937112E+03  0.76191016243E+01 -0.11906751670E+02  0.20109681534E+03  0.00000000000E+00 0. -1.
         22    1    3    3    0    0  0.14957845775E+02  0.19614413463E+02  0.97706376760E-01  0.24667223440E+02  0.00000000000E+00 0. -1.
</event>
<event>
 7    1  0.5553952E-006  0.2217754E+03  0.7818608E-02  0.1261387E+00
          2   -1    0    0  502    0  0.00000000000E+00  0.00000000000E+00  0.26849841210E+03  0.26849841210E+03  0.00000000000E+00 0. -1.
          1   -1    0    0  501    0 -0.00000000000E+00 -0.00000000000E+00 -0.64501050936E+03  0.64501050936E+03  0.00000000000E+00 0. -1.
         25    2    1    2    0    0  0.17970399266E+03  0.34578017658E+02  0.86024065284E+02  0.23772792860E+03  0.12500105578E+03 0.  0.
          2    1    1    2  501    0 -0.22739745491E+03 -0.89900609260E+01 -0.53728511148E+03  0.58349439990E+03  0.00000000000E+00 0. -1.
          1    1    1    2  502    0  0.47693462256E+02 -0.25587956732E+02  0.74748948938E+02  0.92286592954E+02  0.00000000000E+00 0. -1.
         22    1    3    3    0    0  0.12295665688E+03 -0.65496233877E+01  0.10851449807E+03  0.16412383535E+03  0.00000000000E+00 0. -1.
         22    1    3    3    0    0  0.56747335774E+02  0.41127641046E+02 -0.22490432790E+02  0.73604093246E+02  0.00000000000E+00 0. -1.
</event>
<event>
 7    1  0.5553952E-006  0.8272677E+02  0.7818608E-02  0.1384318E+00
          2   -1    0    0  502    0  0.00000000000E+00  0.00000000000E+00  0.12354404337E+03  0.12354404337E+03  0.00000000000E+00 0. -1.
          1   -1    0    0  501    0 -0.00000000000E+00 -0.00000000000E+00 -0.76499144291E+03  0.76499144291E+03  0.00000000000E+00 0. -1.
         25    2    1    2    0    0  0.93835965516E+02  0.74981239261E+02 -0.52931129768E+02  0.18124808537E+03  0.12498715649E+03 0.  0.
          2    1    1    2  501    0 -0.45964885818E+02 -0.67196081484E+02 -0.63494710612E+03  0.64014522701E+03  0.00000000000E+00 0. -1.
          1    1    1    2  502    0 -0.47871079698E+02 -0.77851577766E+01  0.46430836348E+02  0.67142173907E+02  0.00000000000E+00 0. -1.
         22    1    3    3    0    0  0.21433629006E+02  0.26962167966E+02 -0.82559332105E+02  0.89456147197E+02  0.00000000000E+00 0.  1.
         22    1    3    3    0    0  0.72402336510E+02  0.48019071295E+02  0.29628202337E+02  0.91791938175E+02  0.00000000000E+00 0.  1.
</event>
<event>
 7    1  0.5553952E-006  0.2616973E+03  0.7818608E-02  0.1137799E+00
          2   -1    0    0  502    0  0.00000000000E+00  0.00000000000E+00  0.15484303246E+04  0.15484303246E+04  0.00000000000E+00 0. -1.
          1   -1    0    0  501    0 -0.00000000000E+00 -0.00000000000E+00 -0.29795912719E+04  0.29795912719E+04  0.00000000000E+00 0. -1.
         25    2    1    2    0    0  0.10132055863E+03  0.39102949171E+03  0.39432715423E+03  0.57817663334E+03  0.12499758312E+03 0.  0.
          2    1    1    2  501    0  0.89937372163E+01 -0.17612282843E+03 -0.28711915255E+04  0.28766023212E+04  0.00000000000E+00 0. -1.
          1    1    1    2  502    0 -0.11031429585E+03 -0.21490666328E+03  0.10457034240E+04  0.10732426421E+04  0.00000000000E+00 0. -1.
         22    1    3    3    0    0  0.61637976315E+02  0.17559886320E+03  0.26491670045E+03  0.32375153908E+03  0.00000000000E+00 0. -1.
         22    1    3    3    0    0  0.39682582316E+02  0.21543062851E+03  0.12941045378E+03  0.25442509425E+03  0.00000000000E+00 0. -1.
</event>
<event>
 7    1  0.5553952E-006  0.2809190E+02  0.7818608E-02  0.1676965E+00
          2   -1    0    0  502    0  0.00000000000E+00  0.00000000000E+00  0.97983383391E+03  0.97983383391E+03  0.00000000000E+00 0. -1.
          1   -1    0    0  501    0 -0.00000000000E+00 -0.00000000000E+00 -0.39208991081E+03  0.39208991081E+03  0.00000000000E+00 0. -1.
         25    2    1    2    0    0 -0.86464420013E+01 -0.55534370849E+01  0.94537970575E+02  0.15706096452E+03  0.12500046829E+03 0.  0.
          2    1    1    2  501    0 -0.19590691426E+02  0.55929128622E+01 -0.36030716044E+03  0.36088270357E+03  0.00000000000E+00 0. -1.
          1    1    1    2  502    0  0.28237133427E+02 -0.39475777278E-01  0.85351311297E+03  0.85398007662E+03  0.00000000000E+00 0. -1.
         22    1    3    3    0    0 -0.59710507230E+02 -0.20264720829E+01  0.86680525434E+02  0.10527566078E+03  0.00000000000E+00 0.  1.
         22    1    3    3    0    0  0.51064065229E+02 -0.35269650019E+01  0.78574451408E+01  0.51785303745E+02  0.00000000000E+00 0.  1.
</event>
<event>
 7    1  0.5553952E-006  0.6818939E+02  0.7818608E-02  0.1392059E+00
          2   -1    0    0  502    0  0.00000000000E+00  0.00000000000E+00  0.56358751813E+03  0.56358751813E+03  0.00000000000E+00 0. -1.
          1   -1    0    0  501    0 -0.00000000000E+00 -0.00000000000E+00 -0.15286583003E+04  0.15286583003E+04  0.00000000000E+00 0. -1.
         25    2    1    2    0    0  0.76989847653E+02  0.83900430762E+02 -0.20497294934E+02  0.17032088855E+03  0.12498938776E+03 0.  0.
          2    1    1    2  501    0 -0.60137971596E+02 -0.31249721856E+02 -0.14308811379E+04  0.14324852361E+04  0.00000000000E+00 0. -1.
          1    1    1    2  502    0 -0.16851876057E+02 -0.52650708906E+02  0.48630765062E+03  0.48943969386E+03  0.00000000000E+00 0. -1.
         22    1    3    3    0    0 -0.11373897504E+02  0.17960480449E+02 -0.51562230933E+02  0.55772825472E+02  0.00000000000E+00 0.  1.
         22    1    3    3    0    0  0.88363745157E+02  0.65939950314E+02  0.31064935999E+02  0.11454806307E+03  0.00000000000E+00 0.  1.
</event>
<event>
 7    1  0.5553952E-006  0.7035382E+02  0.7818608E-02  0.1425214E+00
          2   -1    0    0  502    0  0.00000000000E+00  0.00000000000E+00  0.20339998982E+04  0.20339998982E+04  0.00000000000E+00 0. -1.
          1   -1    0    0  501    0 -0.00000000000E+00 -0.00000000000E+00 -0.36403535246E+03  0.36403535246E+03  0.00000000000E+00 0. -1.
         25    2    1    2    0    0 -0.29388809018E+02 -0.14207590841E+02  0.23215090469E+03  0.26567725259E+03  0.12499920904E+03 0.  0.
          2    1    1    2  501    0 -0.25247780380E+02 -0.32740097016E+02 -0.34531177869E+03  0.34777807417E+03  0.00000000000E+00 0. -1.
          1    1    1    2  502    0  0.54636589398E+02  0.46947687857E+02  0.17831254197E+04  0.17845799239E+04  0.00000000000E+00 0. -1.
         22    1    3    3    0    0  0.30733314783E+02 -0.40514720290E+02  0.47021931356E+02  0.69260675900E+02  0.00000000000E+00 0.  1.
         22    1    3    3    0    0 -0.60122123801E+02  0.26307129449E+02  0.18512897334E+03  0.19641657669E+03  0.00000000000E+00 0.  1.
</event>
<event>
 7    1  0.5553952E-006  0.1195888E+03  0.7818608E-02  0.1363707E+00
          2   -1    0    0  502    0  0.00000000000E+00  0.00000000000E+00  0.69757570193E+03  0.69757570193E+03  0.00000000000E+00 0. -1.
          1   -1    0    0  501    0 -0.00000000000E+00 -0.00000000000E+00 -0.32856768988E+03  0.32856768988E+03  0.00000000000E+00 0. -1.
         25    2    1    2    0    0  0.88709671991E+01 -0.13064578453E+03  0.24471649598E+03  0.30439789309E+03  0.12499959534E+03 0.  0.
          2    1    1    2  501    0 -0.43504578795E+02  0.11113432871E+03 -0.28580732212E+03  0.30972457566E+03  0.00000000000E+00 0. -1.
          1    1    1    2  502    0  0.34633611596E+02  0.19511455825E+02  0.41009883818E+03  0.41202092306E+03  0.00000000000E+00 0. -1.
         22    1    3    3    0    0  0.48145172196E+02 -0.43616695052E+02  0.17355761571E+03  0.18531761834E+03  0.00000000000E+00 0. -1.
         22    1    3    3    0    0 -0.39274204997E+02 -0.87029089478E+02  0.71158880268E+02  0.11908027475E+03  0.00000000000E+00 0. -1.
</event>
<event>
 7    1  0.7179567E-006  0.1014910E+03  0.7818608E-02  0.1383946E+00
          2   -1    0    0  502    0  0.00000000000E+00  0.00000000000E+00  0.12488317419E+04  0.12488317419E+04  0.00000000000E+00 0. -1.
          1   -1    0    0  501    0 -0.00000000000E+00 -0.00000000000E+00 -0.60168418840E+03  0.60168418840E+03  0.00000000000E+00 0. -1.
         25    2    1    2    0    0 -0.81994973389E+02  0.10386314800E+03 -0.28088253390E+03  0.33470774127E+03  0.12499418002E+03 0.  0.
          2    1    1    2  501    0  0.37511961690E+02 -0.12851543909E+02 -0.29044006097E+03  0.29313433519E+03  0.00000000000E+00 0. -1.
          1    1    1    2  502    0  0.44483011698E+02 -0.91011604087E+02  0.12184701483E+04  0.12226738538E+04  0.00000000000E+00 0. -1.
         22    1    3    3    0    0 -0.28689759110E+02 -0.27380495033E+02 -0.49789857122E+02  0.63653936707E+02  0.00000000000E+00 0.  1.
         22    1    3    3    0    0 -0.53305214279E+02  0.13124364303E+03 -0.23109267678E+03  0.27105380456E+03  0.00000000000E+00 0.  1.
</event>
<event>
 7    1  0.5553952E-006  0.8960839E+02  0.7818608E-02  0.1332911E+00
          2   -1    0    0  502    0  0.00000000000E+00  0.00000000000E+00  0.46843645692E+03  0.46843645692E+03  0.00000000000E+00 0. -1.
          1   -1    0    0  501    0 -0.00000000000E+00 -0.00000000000E+00 -0.16270267939E+03  0.16270267939E+03  0.00000000000E+00 0. -1.
         25    2    1    2    0    0 -0.29195668862E+02  0.19851847860E+02  0.85304168263E+02  0.15539547561E+03  0.12499787907E+03 0.  0.
          2    1    1    2  501    0  0.98025955823E+02 -0.14462185215E+02 -0.10423667385E+03  0.14381768664E+03  0.00000000000E+00 0. -1.
          1    1    1    2  502    0 -0.68830286961E+02 -0.53896626451E+01  0.32466628311E+03  0.33192597406E+03  0.00000000000E+00 0. -1.
         22    1    3    3    0    0  0.34248406379E+02 -0.81822273188E+01 -0.10839712563E+02  0.36842930826E+02  0.00000000000E+00 0.  1.
         22    1    3    3    0    0 -0.63444075241E+02  0.28034075179E+02  0.96143880827E+02  0.11855254478E+03  0.00000000000E+00 0.  1.
</event>
<event>
 7    1  0.5553952E-006  0.1796256E+03  0.7818608E-02  0.1220544E+00
          2   -1    0    0  502    0  0.00000000000E+00  0.00000000000E+00  0.18239896071E+04  0.18239896071E+04  0.00000000000E+00 0. -1.
          1   -1    0    0  501    0 -0.00000000000E+00 -0.00000000000E+00 -0.95770781057E+03  0.95770781057E+03  0.00000000000E+00 0. -1.
         25    2    1    2    0    0  0.45681940193E+02  0.22381371539E+03 -0.27795466559E+02  0.26187128687E+03  0.12499825628E+03 0.  0.
          2    1    1    2  501    0  0.61145958457E+02 -0.80533429411E+02 -0.80502483436E+03  0.81135038388E+03  0.00000000000E+00 0. -1.
          1    1    1    2  502    0 -0.10682789865E+03 -0.14328028597E+03  0.16991020974E+04  0.17084757469E+04  0.00000000000E+00 0. -1.
         22    1    3    3    0    0 -0.21957301886E+02  0.17537649979E+03 -0.26081568875E+02  0.17865969892E+03  0.00000000000E+00 0. -1.
         22    1    3    3    0    0  0.67639242079E+02  0.48437215598E+02 -0.17138976837E+01  0.83211587950E+02  0.00000000000E+00 0. -1.
</event>
<event>
 7    1  0.5553952E-006  0.8077482E+02  0.7818608E-02  0.1406888E+00
          2   -1    0    0  502    0  0.00000000000E+00  0.00000000000E+00  0.46408445368E+03  0.46408445368E+03  0.00000000000E+00 0. -1.
          1   -1    0    0  501    0 -0.00000000000E+00 -0.00000000000E+00 -0.17337761217E+03  0.17337761217E+03  0.00000000000E+00 0. -1.
         25    2    1    2    0    0 -0.57462816865E+02  0.66688392060E+02  0.19991378989E+02  0.15418699233E+03  0.12499862564E+03 0.  0.
          2    1    1    2  501    0 -0.17983230720E+02 -0.37395362584E+02 -0.97662089339E+02  0.10611170258E+03  0.00000000000E+00 0. -1.
          1    1    1    2  502    0  0.75446047586E+02 -0.29293029476E+02  0.36837755186E+03  0.37716337095E+03  0.00000000000E+00 0. -1.
         22    1    3    3    0    0  0.13940127619E+02  0.63308486853E+02 -0.25273742899E+02  0.69577681377E+02  0.00000000000E+00 0.  1.
         22    1    3    3    0    0 -0.71402944485E+02  0.33799052071E+01  0.45265121888E+02  0.84609310952E+02  0.00000000000E+00 0.  1.
</event>
<event>
 7    1  0.5553952E-006  0.2720706E+02  0.7818608E-02  0.1671793E+00
          2   -1    0    0  502    0  0.00000000000E+00  0.00000000000E+00  0.83533512524E+02  0.83533512524E+02  0.00000000000E+00 0. -1.
          1   -1    0    0  501    0 -0.00000000000E+00 -0.00000000000E+00 -0.74361523631E+03  0.74361523631E+03  0.00000000000E+00 0. -1.
         25    2    1    2    0    0  0.35200259373E+02 -0.22996923547E+02 -0.56802919852E+03  0.58313757326E+03  0.12499736883E+03 0.  0.
          2    1    1    2  501    0 -0.21633974946E+02 -0.53582264647E+00 -0.16487421982E+03  0.16628837704E+03  0.00000000000E+00 0. -1.
          1    1    1    2  502    0 -0.13566284427E+02  0.23532746194E+02  0.72821694549E+02  0.77722798544E+02  0.00000000000E+00 0. -1.
         22    1    3    3    0    0  0.91722853004E+01 -0.49916574283E+02 -0.87514597442E+02  0.10116619975E+03  0.00000000000E+00 0.  1.
         22    1    3    3    0    0  0.26027974072E+02  0.26919650736E+02 -0.48051460108E+03  0.48197137351E+03  0.00000000000E+00 0.  1.
</event>
<event>
 7    1  0.5553952E-006  0.1654257E+03  0.7818608E-02  0.1249962E+00
          2   -1    0    0  502    0  0.00000000000E+00  0.00000000000E+00  0.83650857097E+03  0.83650857097E+03  0.00000000000E+00 0. -1.
          1   -1    0    0  501    0 -0.00000000000E+00 -0.00000000000E+00 -0.16381559843E+03  0.16381559843E+03  0.00000000000E+00 0. -1.
         25    2    1    2    0    0 -0.81655240773E+02 -0.16531564299E+03  0.31900288663E+03  0.38908397111E+03  0.12500661876E+03 0.  0.
          2    1    1    2  501    0 -0.47551541731E+02  0.65878103484E+02 -0.10017390100E+03  0.12898016933E+03  0.00000000000E+00 0. -1.
          1    1    1    2  502    0  0.12920678250E+03  0.99437539508E+02  0.45386398691E+03  0.48226002895E+03  0.00000000000E+00 0. -1.
         22    1    3    3    0    0 -0.16039339527E+02 -0.13490062016E+03  0.26838165648E+03  0.30080583649E+03  0.00000000000E+00 0. -1.
         22    1    3    3    0    0 -0.65615901246E+02 -0.30415022827E+02  0.50621230156E+02  0.88278134622E+02  0.00000000000E+00 0. -1.
</event>
<event>
 7    1  0.5553952E-006  0.8278341E+02  0.7818608E-02  0.1327550E+00
          2   -1    0    0  502    0  0.00000000000E+00  0.00000000000E+00  0.11335861155E+04  0.11335861155E+04  0.00000000000E+00 0. -1.
          1   -1    0    0  501    0 -0.00000000000E+00 -0.00000000000E+00 -0.37028271850E+04  0.37028271850E+04  0.00000000000E+00 0. -1.
         25    2    1    2    0    0 -0.56848528062E+02  0.47737593120E+02  0.25835691539E+03  0.29645217386E+03  0.12499985085E+03 0.  0.
          2    1    1    2  501    0 -0.19175795635E+02 -0.80531868584E+02 -0.36813114613E+04  0.36822421388E+04  0.00000000000E+00 0. -1.
          1    1    1    2  502    0  0.76024323698E+02  0.32794275464E+02  0.85371347646E+03  0.85771898789E+03  0.00000000000E+00 0. -1.
         22    1    3    3    0    0 -0.62474696331E+02  0.46395618258E+02  0.60651788349E+02  0.98662457425E+02  0.00000000000E+00 0.  1.
         22    1    3    3    0    0  0.56261682690E+01  0.13419748619E+01  0.19770512704E+03  0.19778971643E+03  0.00000000000E+00 0.  1.
</event>
<event>
 7    1  0.5553952E-006  0.2997912E+02  0.7818608E-02  0.1649735E+00
          2   -1    0    0  502    0  0.00000000000E+00  0.00000000000E+00  0.55351908286E+02  0.55351908286E+02  0.00000000000E+00 0. -1.
          1   -1    0    0  501    0 -0.00000000000E+00 -0.00000000000E+00 -0.22831066453E+04  0.22831066453E+04  0.00000000000E+00 0. -1.
         25    2    1    2    0    0  0.39193264240E+02 -0.17149853763E+02 -0.16283320032E+04  0.16336824752E+04  0.12499235044E+03 0.  0.
          2    1    1    2  501    0 -0.28863827084E+02 -0.25095003067E+01 -0.64942135094E+03  0.65006731126E+03  0.00000000000E+00 0. -1.
          1    1    1    2  502    0 -0.10329437156E+02  0.19659354070E+02  0.49998617186E+02  0.54708767076E+02  0.00000000000E+00 0. -1.
         22    1    3    3    0    0  0.16749341347E+02 -0.30964972678E+02 -0.11846077922E+03  0.12358125336E+03  0.00000000000E+00 0.  1.
         22    1    3    3    0    0  0.22443922893E+02  0.13815118915E+02 -0.15098712240E+04  0.15101012219E+04  0.00000000000E+00 0.  1.
</event>
<event>
 7    1  0.1007181E-005  0.5414089E+02  0.7818608E-02  0.1491027E+00
          2   -1    0    0  502    0  0.00000000000E+00  0.00000000000E+00  0.10882208281E+04  0.10882208281E+04  0.00000000000E+00 0. -1.
          1   -1    0    0  501    0 -0.00000000000E+00 -0.00000000000E+00 -0.17348711736E+04  0.17348711736E+04  0.00000000000E+00 0. -1.
         25    2    1    2    0    0  0.73494763127E+02  0.25007942295E+02 -0.29383552671E+03  0.32861263125E+03  0.12498026753E+03 0.  0.
          2    1    1    2  501    0 -0.19430690019E+02 -0.26992358406E+02 -0.14227693187E+04  0.14231579931E+04  0.00000000000E+00 0. -1.
          1    1    1    2  502    0 -0.54064073108E+02  0.19844161117E+01  0.10699544999E+04  0.10713213774E+04  0.00000000000E+00 0. -1.
         22    1    3    3    0    0  0.10645861250E+03  0.16427595343E+02 -0.17979448336E+03  0.20959331648E+03  0.00000000000E+00 0. -1.
         22    1    3    3    0    0 -0.32963849377E+02  0.85803469513E+01 -0.11404104335E+03  0.11901931477E+03  0.00000000000E+00 0. -1.
</event>
<event>
 7    1  0.5553952E-006  0.7732553E+02  0.7818608E-02  0.1346108E+00
          2   -1    0    0  502    0  0.00000000000E+00  0.00000000000E+00  0.87982112816E+03  0.87982112816E+03  0.00000000000E+00 0. -1.
          1   -1    0    0  501    0 -0.00000000000E+00 -0.00000000000E+00 -0.15367476492E+04  0.15367476492E+04  0.00000000000E+00 0. -1.
         25    2    1    2    0    0 -0.34661798968E+02  0.71187192829E+02  0.26876361381E+01  0.14799270718E+03  0.12500224502E+03 0.  0.
          2    1    1    2  501    0 -0.42242713001E+02 -0.57512097961E+02 -0.14613263968E+04  0.14630676424E+04  0.00000000000E+00 0. -1.
          1    1    1    2  502    0  0.76904511969E+02 -0.13675094868E+02  0.80171223959E+03  0.80550842782E+03  0.00000000000E+00 0. -1.
         22    1    3    3    0    0 -0.77186033997E+02  0.25836848766E+02 -0.16253588881E+02  0.83002444240E+02  0.00000000000E+00 0.  1.
         22    1    3    3    0    0  0.42524235029E+02  0.45350344063E+02  0.18941225019E+02  0.64990262937E+02  0.00000000000E+00 0.  1.
</event>
<event>
 7    1  0.5553952E-006  0.8033792E+02  0.7818608E-02  0.1367049E+00
          2   -1    0    0  502    0  0.00000000000E+00  0.00000000000E+00  0.13736597220E+04  0.13736597220E+04  0.00000000000E+00 0. -1.
          1   -1    0    0  501    0 -0.00000000000E+00 -0.00000000000E+00 -0.32397939688E+03  0.32397939688E+03  0.00000000000E+00 0. -1.
         25    2    1    2    0    0 -0.56658584273E+02 -0.95442069945E+02  0.14949173775E+03  0.22425056773E+03  0.12498461339E+03 0.  0.
          2    1    1    2  501    0  0.12681856124E+01  0.79834435763E+02 -0.28032442594E+03  0.29147371958E+03  0.00000000000E+00 0. -1.
          1    1    1    2  502    0  0.55390398660E+02  0.15607634182E+02  0.11805130133E+04  0.11819148315E+04  0.00000000000E+00 0. -1.
         22    1    3    3    0    0  0.79978415048E+01 -0.30081247867E+01 -0.19373576993E+02  0.21174271392E+02  0.00000000000E+00 0.  1.
         22    1    3    3    0    0 -0.64656425778E+02 -0.92433945158E+02  0.16886531474E+03  0.20307629634E+03  0.00000000000E+00 0.  1.
</event>
<event>
 7    1  0.5553952E-006  0.9715651E+02  0.7818608E-02  0.1412965E+00
          2   -1    0    0  502    0  0.00000000000E+00  0.00000000000E+00  0.12933559315E+04  0.12933559315E+04  0.00000000000E+00 0. -1.
          1   -1    0    0  501    0 -0.00000000000E+00 -0.00000000000E+00 -0.42460632617E+03  0.42460632617E+03  0.00000000000E+00 0. -1.
         25    2    1    2    0    0  0.48162702370E+01 -0.79215347412E+02 -0.13899941882E+03  0.20308440400E+03  0.12499667593E+03 0.  0.
          2    1    1    2  501    0 -0.29248519937E+02 -0.15065025918E+02 -0.25060748846E+03  0.25275787662E+03  0.00000000000E+00 0. -1.
          1    1    1    2  502    0  0.24432249700E+02  0.94280373330E+02  0.12583565126E+04  0.12621199770E+04  0.00000000000E+00 0. -1.
         22    1    3    3    0    0 -0.25277243370E+02 -0.66087655646E+02 -0.15208622867E+03  0.16774009125E+03  0.00000000000E+00 0.  1.
         22    1    3    3    0    0  0.30093513607E+02 -0.13127691766E+02  0.13086809850E+02  0.35344312758E+02  0.00000000000E+00 0.  1.
</event>
<event>
 7    1  0.5553952E-006  0.6207608E+02  0.7818608E-02  0.1498428E+00
          2   -1    0    0  502    0  0.00000000000E+00  0.00000000000E+00  0.22351980752E+03  0.22351980752E+03  0.00000000000E+00 0. -1.
          1   -1    0    0  501    0 -0.00000000000E+00 -0.00000000000E+00 -0.24068513937E+04  0.24068513937E+04  0.00000000000E+00 0. -1.
         25    2    1    2    0    0  0.15906325106E+02  0.32077292524E+02  0.91204221265E+01  0.13033798946E+03  0.12499138179E+03 0.  0.
          2    1    1    2  501    0 -0.18081645877E+02 -0.59549917692E+02 -0.23445917765E+04  0.23454176039E+04  0.00000000000E+00 0. -1.
          1    1    1    2  502    0  0.21753207712E+01  0.27472625169E+02  0.15213976811E+03  0.15461560786E+03  0.00000000000E+00 0. -1.
         22    1    3    3    0    0  0.30272759345E+02  0.66797850551E+02 -0.27064666127E+02  0.78172175032E+02  0.00000000000E+00 0. -1.
         22    1    3    3    0    0 -0.14366434240E+02 -0.34720558028E+02  0.36185088254E+02  0.52165814423E+02  0.00000000000E+00 0. -1.
</event>
<event>
 7    1  0.5553952E-006  0.5241407E+02  0.7818608E-02  0.1479077E+00
          2   -1    0    0  502    0  0.00000000000E+00  0.00000000000E+00  0.11258672282E+04  0.11258672282E+04  0.00000000000E+00 0. -1.
          1   -1    0    0  501    0 -0.00000000000E+00 -0.00000000000E+00 -0.10699657381E+03  0.10699657381E+03  0.00000000000E+00 0. -1.
         25    2    1    2    0    0  0.80407158998E+01 -0.38212254279E+02  0.11378694375E+03  0.17348605214E+03  0.12500044892E+03 0.  0.
          2    1    1    2  501    0  0.36238260587E+02  0.90776118730E+01 -0.71863518578E+02  0.80993702657E+02  0.00000000000E+00 0. -1.
          1    1    1    2  502    0 -0.44278976487E+02  0.29134642406E+02  0.97694722920E+03  0.97838404719E+03  0.00000000000E+00 0. -1.
         22    1    3    3    0    0  0.66011919477E+02 -0.11425080309E+02  0.54805082068E+02  0.86554624334E+02  0.00000000000E+00 0.  1.
         22    1    3    3    0    0 -0.57971203577E+02 -0.26787173970E+02  0.58981861684E+02  0.86931427810E+02  0.00000000000E+00 0.  1.
</event>
<event>
 7    1  0.5553952E-006  0.1378485E+03  0.7818608E-02  0.1290575E+00
          2   -1    0    0  502    0  0.00000000000E+00  0.00000000000E+00  0.21580045553E+04  0.21580045553E+04  0.00000000000E+00 0. -1.
          1   -1    0    0  501    0 -0.00000000000E+00 -0.00000000000E+00 -0.31351377083E+02  0.31351377083E+02  0.00000000000E+00 0. -1.
         25    2    1    2    0    0 -0.91380204411E+02  0.13986035657E+03  0.59895485652E+03  0.63425781771E+03  0.12499919230E+03 0.  0.
          2    1    1    2  501    0  0.27667255851E+02 -0.12326311348E+03  0.29842483621E+03  0.32406273322E+03  0.00000000000E+00 0. -1.
          1    1    1    2  502    0  0.63712948560E+02 -0.16597243099E+02  0.12292734854E+04  0.12310353814E+04  0.00000000000E+00 0. -1.
         22    1    3    3    0    0 -0.15689255525E+02  0.10330676361E+03  0.19080981790E+03  0.21754729774E+03  0.00000000000E+00 0. -1.
         22    1    3    3    0    0 -0.75690948885E+02  0.36553592961E+02  0.40814503862E+03  0.41671051996E+03  0.00000000000E+00 0. -1.
</event>
<event>
 7    1  0.5553952E-006  0.1730372E+03  0.7818608E-02  0.1255072E+00
          2   -1    0    0  502    0  0.00000000000E+00  0.00000000000E+00  0.16886197727E+03  0.16886197727E+03  0.00000000000E+00 0. -1.
          1   -1    0    0  501    0 -0.00000000000E+00 -0.00000000000E+00 -0.32392545867E+04  0.32392545867E+04  0.00000000000E+00 0. -1.
         25    2    1    2    0    0  0.15213228083E+03  0.18867316368E+03 -0.89318528237E+03  0.93388806875E+03  0.12500073097E+03 0.  0.
          2    1    1    2  501    0 -0.38786263909E+02 -0.62813657724E+02 -0.22766315149E+04  0.22778281288E+04  0.00000000000E+00 0. -1.
          1    1    1    2  502    0 -0.11334601692E+03 -0.12585950595E+03  0.99424187837E+02  0.19640036639E+03  0.00000000000E+00 0. -1.
         22    1    3    3    0    0  0.16920322761E+03  0.16281554225E+03 -0.84129936721E+03  0.87345478320E+03  0.00000000000E+00 0.  1.
         22    1    3    3    0    0 -0.17070946779E+02  0.25857621424E+02 -0.51885915161E+02  0.60433285545E+02  0.00000000000E+00 0.  1.
</event>
<event>
 7    1  0.5553952E-006  0.8320914E+02  0.7818608E-02  0.1331286E+00
          2   -1    0    0  502    0  0.00000000000E+00  0.00000000000E+00  0.32826357295E+04  0.32826357295E+04  0.00000000000E+00 0. -1.
          1   -1    0    0  501    0 -0.00000000000E+00 -0.00000000000E+00 -0.20175371762E+02  0.20175371762E+02  0.00000000000E+00 0. -1.
         25    2    1    2    0    0  0.14447842545E+02 -0.18874981112E+02  0.46421489010E+03  0.48133786684E+03  0.12500269116E+03 0.  0.
          2    1    1    2  501    0 -0.94124480790E+02  0.42862357405E+02  0.23351747014E+03  0.25539578780E+03  0.00000000000E+00 0. -1.
          1    1    1    2  502    0  0.79676638245E+02 -0.23987376293E+02  0.25647279975E+04  0.25660774467E+04  0.00000000000E+00 0. -1.
         22    1    3    3    0    0 -0.55689473621E+02 -0.78289152857E+01  0.20699605905E+03  0.21449936562E+03  0.00000000000E+00 0. -1.
         22    1    3    3    0    0  0.70137316166E+02 -0.11046065826E+02  0.25721883104E+03  0.26683850122E+03  0.00000000000E+00 0. -1.
</event>
<event>
 7    1  0.5553952E-006  0.1186128E+03  0.7818608E-02  0.1343883E+00
          2   -1    0    0  502    0  0.00000000000E+00  0.00000000000E+00  0.59003606204E+02  0.59003606204E+02  0.00000000000E+00 0. -1.
          1   -1    0    0  501    0 -0.00000000000E+00 -0.00000000000E+00 -0.28095997101E+04  0.28095997101E+04  0.00000000000E+00 0. -1.
         25    2    1    2    0    0  0.61682805742E+02  0.10194179162E+03 -0.95910132414E+03  0.97452407581E+03  0.12499970785E+03 0.  0.
          2    1    1    2  501    0 -0.97407539460E+02 -0.70760871185E+02 -0.18294092326E+04  0.18333667036E+04  0.00000000000E+00 0. -1.
          1    1    1    2  502    0  0.35724733718E+02 -0.31180920431E+02  0.37914452848E+02  0.60712536867E+02  0.00000000000E+00 0. -1.
         22    1    3    3    0    0  0.83040587229E+02  0.10623285891E+03 -0.60913018853E+03  0.62387558536E+03  0.00000000000E+00 0. -1.
         22    1    3    3    0    0 -0.21357781487E+02 -0.42910672947E+01 -0.34997113562E+03  0.35064849045E+03  0.00000000000E+00 0. -1.
</event>
<event>
 7    1  0.5553952E-006  0.7542947E+02  0.7818608E-02  0.1357237E+00
          2   -1    0    0  502    0  0.00000000000E+00  0.00000000000E+00  0.42064191134E+03  0.42064191134E+03  0.00000000000E+00 0. -1.
          1   -1    0    0  501    0 -0.00000000000E+00 -0.00000000000E+00 -0.14565958408E+03  0.14565958408E+03  0.00000000000E+00 0. -1.
         25    2    1    2    0    0 -0.19204367511E+02 -0.32664527314E+02  0.87459385689E+02  0.15720475864E+03  0.12501365093E+03 0.  0.
          2    1    1    2  501    0 -0.63916475882E+02  0.18509830133E+02 -0.94027652530E+02  0.11519170604E+03  0.00000000000E+00 0. -1.
          1    1    1    2  502    0  0.83120843392E+02  0.14154697181E+02  0.28155059410E+03  0.29390503074E+03  0.00000000000E+00 0. -1.
         22    1    3    3    0    0  0.49467988237E+02 -0.22598925352E+02  0.63896397220E+02  0.83907942800E+02  0.00000000000E+00 0. -1.
         22    1    3    3    0    0 -0.68672355747E+02 -0.10065601962E+02  0.23562988469E+02  0.73296815840E+02  0.00000000000E+00 0. -1.
</event>
<event>
 7    1  0.5553952E-006  0.8977234E+02  0.7818608E-02  0.1413978E+00
          2   -1    0    0  502    0  0.00000000000E+00  0.00000000000E+00  0.10577969397E+04  0.10577969397E+04  0.00000000000E+00 0. -1.
          1   -1    0    0  501    0 -0.00000000000E+00 -0.00000000000E+00 -0.38386488005E+03  0.38386488005E+03  0.00000000000E+00 0. -1.
         25    2    1    2    0    0 -0.77940780206E+02  0.71618526658E+02 -0.25960107661E+03  0.30695333034E+03  0.12499459768E+03 0.  0.
          2    1    1    2  501    0  0.34639839888E+02  0.69370443255E+01 -0.95473359673E+02  0.10179982072E+03  0.00000000000E+00 0. -1.
          1    1    1    2  502    0  0.43300940319E+02 -0.78555570984E+02  0.10290064959E+04  0.10329086687E+04  0.00000000000E+00 0. -1.
         22    1    3    3    0    0 -0.20824272696E+02  0.98270413409E+02 -0.16859193201E+03  0.19624974911E+03  0.00000000000E+00 0. -1.
         22    1    3    3    0    0 -0.57116507510E+02 -0.26651886751E+02 -0.91009144597E+02  0.11070358123E+03  0.00000000000E+00 0. -1.
</event>
<event>
 7    1  0.5553952E-006  0.8451558E+02  0.7818608E-02  0.1344384E+00
          2   -1    0    0  502    0  0.00000000000E+00  0.00000000000E+00  0.12723183977E+04  0.12723183977E+04  0.00000000000E+00 0. -1.
          1   -1    0    0  501    0 -0.00000000000E+00 -0.00000000000E+00 -0.15724626065E+04  0.15724626065E+04  0.00000000000E+00 0. -1.
         25    2    1    2    0    0  0.46261825994E+02  0.33930364529E+02  0.39055894112E+02  0.14297594015E+03  0.12500132165E+03 0.  0.
          2    1    1    2  501    0 -0.41232387027E+02  0.51870936022E+02 -0.15182156162E+04  0.15196609362E+04  0.00000000000E+00 0. -1.
          1    1    1    2  502    0 -0.50294389668E+01 -0.85801300551E+02  0.11790155133E+04  0.11821441279E+04  0.00000000000E+00 0. -1.
         22    1    3    3    0    0  0.18287087053E+02  0.80276409353E+02  0.32214239375E+02  0.88410840229E+02  0.00000000000E+00 0.  1.
         22    1    3    3    0    0  0.27974738941E+02 -0.46346044824E+02  0.68416547376E+01  0.54565099919E+02  0.00000000000E+00 0.  1.
</event>
<event>
 7    1  0.5553952E-006  0.6707698E+02  0.7818608E-02  0.1512292E+00
          2   -1    0    0  502    0  0.00000000000E+00  0.00000000000E+00  0.20909283494E+04  0.20909283494E+04  0.00000000000E+00 0. -1.
          1   -1    0    0  501    0 -0.00000000000E+00 -0.00000000000E+00 -0.10520577186E+03  0.10520577186E+03  0.00000000000E+00 0. -1.
         25    2    1    2    0    0  0.29264915806E+02 -0.57169678641E+02  0.11485159945E+02  0.14100067477E+03  0.12499789572E+03 0.  0.
          2    1    1    2  501    0  0.20072205795E+02  0.11639168724E+02 -0.36513546466E+02  0.43262024566E+02  0.00000000000E+00 0. -1.
          1    1    1    2  502    0 -0.49337121601E+02  0.45530509916E+02  0.20107509640E+04  0.20118714219E+04  0.00000000000E+00 0. -1.
         22    1    3    3    0    0  0.58518708600E+02  0.70607030517E+01 -0.21957166048E+02  0.62899999401E+02  0.00000000000E+00 0.  1.
         22    1    3    3    0    0 -0.29253792794E+02 -0.64230381692E+02  0.33442325993E+02  0.78100675368E+02  0.00000000000E+00 0.  1.
</event>
<event>
 7    1  0.5553952E-006  0.9662187E+02  0.7818608E-02  0.1379384E+00
          2   -1    0    0  502    0  0.00000000000E+00  0.00000000000E+00  0.29910646383E+03  0.29910646383E+03  0.00000000000E+00 0. -1.
          1   -1    0    0  501    0 -0.00000000000E+00 -0.00000000000E+00 -0.77444034436E+03  0.77444034436E+03  0.00000000000E+00 0. -1.
         25    2    1    2    0    0  0.86594262150E+02 -0.45785369737E+02  0.22278740954E+02  0.16036372006E+03  0.12500125637E+03 0.  0.
          2    1    1    2  501    0 -0.28275818104E+02 -0.32693969671E+02 -0.69318495053E+03  0.69453134787E+03  0.00000000000E+00 0. -1.
          1    1    1    2  502    0 -0.58318444047E+02  0.78479339408E+02  0.19557232905E+03  0.21865174026E+03  0.00000000000E+00 0. -1.
         22    1    3    3    0    0 -0.69221019707E+01  0.26285626783E+02 -0.21278055107E+02  0.34519636444E+02  0.00000000000E+00 0.  1.
         22    1    3    3    0    0  0.93516364121E+02 -0.72070996520E+02  0.43556796061E+02  0.12584408362E+03  0.00000000000E+00 0.  1.
</event>
<event>
 7    1  0.5553952E-006  0.4957757E+02  0.7818608E-02  0.1557969E+00
          2   -1    0    0  502    0  0.00000000000E+00  0.00000000000E+00  0.12927381770E+04  0.12927381770E+04  0.00000000000E+00 0. -1.
          1   -1    0    0  501    0 -0.00000000000E+00 -0.00000000000E+00 -0.69663947435E+02  0.69663947435E+02  0.00000000000E+00 0. -1.
         25    2    1    2    0    0  0.19248750453E+02 -0.21892429096E+02  0.21172662275E+03  0.24759423606E+03  0.12499980042E+03 0.  0.
          2    1    1    2  501    0 -0.41219648655E+02  0.29564376254E+02 -0.39134948016E+02  0.64067588800E+02  0.00000000000E+00 0. -1.
          1    1    1    2  502    0  0.21970898202E+02 -0.76719471583E+01  0.10504825548E+04  0.10507402995E+04  0.00000000000E+00 0. -1.
         22    1    3    3    0    0 -0.31687460000E+02 -0.27430697101E+02  0.15333965460E+02  0.44628116266E+02  0.00000000000E+00 0.  1.
         22    1    3    3    0    0  0.50936210453E+02  0.55382680057E+01  0.19639265729E+03  0.20296611980E+03  0.00000000000E+00 0.  1.
</event>
<event>
 7    1  0.5553952E-006  0.8175499E+02  0.7818608E-02  0.1484806E+00
          2   -1    0    0  502    0  0.00000000000E+00  0.00000000000E+00  0.66064584484E+03  0.66064584484E+03  0.00000000000E+00 0. -1.
          1   -1    0    0  501    0 -0.00000000000E+00 -0.00000000000E+00 -0.48685103595E+02  0.48685103595E+02  0.00000000000E+00 0. -1.
         25    2    1    2    0    0  0.59215743757E+02  0.33967340296E+02  0.15633112986E+03  0.21147994101E+03  0.12499623503E+03 0.  0.
          2    1    1    2  501    0 -0.70816136389E+02 -0.53831539495E+02  0.74506676248E+02  0.11603449756E+03  0.00000000000E+00 0. -1.
          1    1    1    2  502    0  0.11600392632E+02  0.19864199198E+02  0.38112293513E+03  0.38181650986E+03  0.00000000000E+00 0. -1.
         22    1    3    3    0    0  0.15338333102E+02  0.21394897961E+02  0.16321173009E+03  0.16532112678E+03  0.00000000000E+00 0. -1.
         22    1    3    3    0    0  0.43877410655E+02  0.12572442336E+02 -0.68806002267E+01  0.46158814235E+02  0.00000000000E+00 0. -1.
</event>
<event>
 7    1  0.5860181E-006  0.1303912E+03  0.7818608E-02  0.1241347E+00
          2   -1    0    0  502    0  0.00000000000E+00  0.00000000000E+00  0.72518816467E+03  0.72518816467E+03  0.00000000000E+00 0. -1.
          1   -1    0    0  501    0 -0.00000000000E+00 -0.00000000000E+00 -0.23060656830E+04  0.23060656830E+04  0.00000000000E+00 0. -1.
         25    2    1    2    0    0  0.42472800755E+02  0.61764608302E+02 -0.76822637862E+03  0.78192958248E+03  0.12499318982E+03 0.  0.
          2    1    1    2  501    0 -0.14865754426E+03  0.13910057302E+02 -0.15213859335E+04  0.15286947746E+04  0.00000000000E+00 0. -1.
          1    1    1    2  502    0  0.10618474350E+03 -0.75674665604E+02  0.70873479381E+03  0.72062949060E+03  0.00000000000E+00 0. -1.
         22    1    3    3    0    0 -0.11039280238E+02 -0.75855791917E+01 -0.49123544641E+03  0.49141802015E+03  0.00000000000E+00 0. -1.
         22    1    3    3    0    0  0.53512080992E+02  0.69350187494E+02 -0.27699093221E+03  0.29051156233E+03  0.00000000000E+00 0. -1.
</event>
<event>
 7    1  0.5553952E-006  0.7606904E+02  0.7818608E-02  0.1417925E+00
          2   -1    0    0  502    0  0.00000000000E+00  0.00000000000E+00  0.12718159114E+04  0.12718159114E+04  0.00000000000E+00 0. -1.
          1   -1    0    0  501    0 -0.00000000000E+00 -0.00000000000E+00 -0.62172430852E+03  0.62172430852E+03  0.00000000000E+00 0. -1.
         25    2    1    2    0    0  0.53499066291E+02 -0.10241852321E+03 -0.48759607092E+02  0.17707100045E+03  0.12499974371E+03 0.  0.
          2    1    1    2  501    0 -0.23303987703E+02  0.33047740059E+02 -0.50681793219E+03  0.50842860399E+03  0.00000000000E+00 0. -1.
          1    1    1    2  502    0 -0.30195078588E+02  0.69370783147E+02  0.12056691421E+04  0.12080406154E+04  0.00000000000E+00 0. -1.
         22    1    3    3    0    0  0.40243523539E+00 -0.33287461395E+02 -0.78259768864E+02  0.85045919731E+02  0.00000000000E+00 0.  1.
         22    1    3    3    0    0  0.53096631055E+02 -0.69131061812E+02  0.29500161772E+02  0.92025080719E+02  0.00000000000E+00 0.  1.
</event>
<event>
 7    1  0.5553952E-006  0.2417217E+02  0.7818608E-02  0.1677396E+00
          2   -1    0    0  502    0  0.00000000000E+00  0.00000000000E+00  0.58682813031E+03  0.58682813031E+03  0.00000000000E+00 0. -1.
          1   -1    0    0  501    0 -0.00000000000E+00 -0.00000000000E+00 -0.74301877500E+02  0.74301877500E+02  0.00000000000E+00 0. -1.
         25    2    1    2    0    0 -0.13486594655E+02  0.15434499086E+02  0.36516486509E+02  0.13182803875E+03  0.12500026407E+03 0.  0.
          2    1    1    2  501    0  0.22535850255E+02  0.70792274545E+01 -0.21056266009E+02  0.31644057046E+02  0.00000000000E+00 0. -1.
          1    1    1    2  502    0 -0.90492556003E+01 -0.22513726540E+02  0.49706603231E+03  0.49765791201E+03  0.00000000000E+00 0. -1.
         22    1    3    3    0    0 -0.44943352564E+02 -0.36273406380E+02 -0.56982467070E+01  0.58035635308E+02  0.00000000000E+00 0. -1.
         22    1    3    3    0    0  0.31456757909E+02  0.51707905466E+02  0.42214733216E+02  0.73792403446E+02  0.00000000000E+00 0. -1.
</event>
<event>
 7    1  0.5553952E-006  0.5180967E+02  0.7818608E-02  0.1450482E+00
          2   -1    0    0  502    0  0.00000000000E+00  0.00000000000E+00  0.57982638254E+03  0.57982638254E+03  0.00000000000E+00 0. -1.
          1   -1    0    0  501    0 -0.00000000000E+00 -0.00000000000E+00 -0.28321176292E+04  0.28321176292E+04  0.00000000000E+00 0. -1.
         25    2    1    2    0    0 -0.35947483837E+02 -0.98235202934E+01 -0.49472687860E+03  0.51163293395E+03  0.12499940619E+03 0.  0.
          2    1    1    2  501    0  0.14380934142E+02  0.50968993765E+02 -0.23276917922E+04  0.23282941672E+04  0.00000000000E+00 0. -1.
          1    1    1    2  502    0  0.21566549695E+02 -0.41145473472E+02  0.57012742421E+03  0.57201691050E+03  0.00000000000E+00 0. -1.
         22    1    3    3    0    0  0.45270302197E+02 -0.18035141723E+02 -0.17668375873E+03  0.18328070601E+03  0.00000000000E+00 0.  1.
         22    1    3    3    0    0 -0.81217786034E+02  0.82116214295E+01 -0.31804311987E+03  0.32835222794E+03  0.00000000000E+00 0.  1.
</event>
<event>
 7    1  0.5553952E-006  0.7107281E+02  0.7818608E-02  0.1358635E+00
          2   -1    0    0  502    0  0.00000000000E+00  0.00000000000E+00  0.92294496494E+03  0.92294496494E+03  0.00000000000E+00 0. -1.
          1   -1    0    0  501    0 -0.00000000000E+00 -0.00000000000E+00 -0.65548638216E+03  0.65548638216E+03  0.00000000000E+00 0. -1.
         25    2    1    2    0    0 -0.53461665387E+02 -0.12938236332E+03 -0.16299665403E+03  0.24857779690E+03  0.12500026513E+03 0.  0.
          2    1    1    2  501    0  0.31476612885E+02  0.62292863290E+02 -0.44556241575E+03  0.45099561451E+03  0.00000000000E+00 0. -1.
          1    1    1    2  502    0  0.21985052501E+02  0.67089500030E+02  0.87601765256E+03  0.87885793570E+03  0.00000000000E+00 0. -1.
         22    1    3    3    0    0  0.42049637291E+01 -0.40967391070E+02  0.13143626965E+02  0.43229200557E+02  0.00000000000E+00 0.  1.
         22    1    3    3    0    0 -0.57666629116E+02 -0.88414972251E+02 -0.17614028099E+03  0.20534859634E+03  0.00000000000E+00 0.  1.
</event>
<event>
 7    1  0.5553952E-006  0.3142453E+02  0.7818608E-02  0.1649743E+00
          2   -1    0    0  502    0  0.00000000000E+00  0.00000000000E+00  0.28367285415E+03  0.28367285415E+03  0.00000000000E+00 0. -1.
          1   -1    0    0  501    0 -0.00000000000E+00 -0.00000000000E+00 -0.13960979763E+03  0.13960979763E+03  0.00000000000E+00 0. -1.
         25    2    1    2    0    0 -0.19970708539E+02 -0.48095780158E+02  0.54273277269E+02  0.14588553309E+03  0.12499986748E+03 0.  0.
          2    1    1    2  501    0  0.12150793603E+02  0.28406477874E+02 -0.90622879572E+02  0.95744848803E+02  0.00000000000E+00 0. -1.
          1    1    1    2  502    0  0.78199149350E+01  0.19689302284E+02  0.18041265882E+03  0.18165226989E+03  0.00000000000E+00 0. -1.
         22    1    3    3    0    0 -0.70401391145E+02 -0.37944630014E+02  0.49880517104E+02  0.94256123454E+02  0.00000000000E+00 0. -1.
         22    1    3    3    0    0  0.50430682606E+02 -0.10151150144E+02  0.43927601650E+01  0.51629409635E+02  0.00000000000E+00 0. -1.
</event>
<event>
 7    1  0.5553952E-006  0.8208868E+02  0.7818608E-02  0.1389578E+00
          2   -1    0    0  502    0  0.00000000000E+00  0.00000000000E+00  0.97948562067E+03  0.97948562067E+03  0.00000000000E+00 0. -1.
          1   -1    0    0  501    0 -0.00000000000E+00 -0.00000000000E+00 -0.57381274932E+03  0.57381274932E+03  0.00000000000E+00 0. -1.
         25    2    1    2    0    0 -0.12100658803E+02  0.47784951875E+02  0.33430196735E+02  0.13846645261E+03  0.12500221149E+03 0.  0.
          2    1    1    2  501    0 -0.44933346981E+02  0.13245955875E+02 -0.51828368593E+03  0.52039642593E+03  0.00000000000E+00 0. -1.
          1    1    1    2  502    0  0.57034005784E+02 -0.61030907750E+02  0.89052636055E+03  0.89443549144E+03  0.00000000000E+00 0. -1.
         22    1    3    3    0    0 -0.42782597082E+02  0.52698151375E+02 -0.24961076757E+02  0.72322203536E+02  0.00000000000E+00 0. -1.
         22    1    3    3    0    0  0.30681938279E+02 -0.49131995001E+01  0.58391273492E+02  0.66144249077E+02  0.00000000000E+00 0. -1.
</event>
<event>
 7    1  0.5553952E-006  0.9225612E+02  0.7818608E-02  0.1409180E+00
          2   -1    0    0  502    0  0.00000000000E+00  0.00000000000E+00  0.35347384555E+03  0.35347384555E+03  0.00000000000E+00 0. -1.
          1   -1    0    0  501    0 -0.00000000000E+00 -0.00000000000E+00 -0.92783665709E+03  0.92783665709E+03  0.00000000000E+00 0. -1.
         25    2    1    2    0    0  0.37200984847E+02  0.80840124408E+02  0.20255156612E+03  0.25410486434E+03  0.12499242439E+03 0.  0.
          2    1    1    2  501    0  0.33076898674E+02 -0.13390897860E+02 -0.88269006089E+03  0.88341108266E+03  0.00000000000E+00 0. -1.
          1    1    1    2  502    0 -0.70277883521E+02 -0.67449226548E+02  0.10577568323E+03  0.14379455566E+03  0.00000000000E+00 0. -1.
         22    1    3    3    0    0  0.24569623213E+02 -0.55279654106E+01  0.15025442585E+03  0.15235031104E+03  0.00000000000E+00 0.  1.
         22    1    3    3    0    0  0.12631361634E+02  0.86368089819E+02  0.52297140265E+02  0.10175455329E+03  0.00000000000E+00 0.  1.
</event>
<event>
 7    1  0.5553952E-006  0.2033889E+03  0.7818608E-02  0.1288368E+00
          2   -1    0    0  502    0  0.00000000000E+00  0.00000000000E+00  0.30830117790E+04  0.30830117790E+04  0.00000000000E+00 0. -1.
          1   -1    0    0  501    0 -0.00000000000E+00 -0.00000000000E+00 -0.70954204919E+03  0.70954204919E+03  0.00000000000E+00 0. -1.
         25    2    1    2    0    0  0.12233097154E+03  0.15263705352E+03  0.17223878001E+03  0.28905759776E+03  0.12500064312E+03 0.  0.
          2    1    1    2  501    0 -0.89094399499E+02 -0.18379242914E+03 -0.63492794652E+03  0.66697148837E+03  0.00000000000E+00 0. -1.
          1    1    1    2  502    0 -0.33236572037E+02  0.31155375616E+02  0.28361588963E+04  0.28365247421E+04  0.00000000000E+00 0. -1.
         22    1    3    3    0    0  0.34445707982E+02  0.17440829784E+02 -0.15473768712E+02  0.41594793665E+02  0.00000000000E+00 0.  1.
         22    1    3    3    0    0  0.87885263554E+02  0.13519622374E+03  0.18771254872E+03  0.24746280410E+03  0.00000000000E+00 0.  1.
</event>
<event>
 7    1  0.5553952E-006  0.9348396E+02  0.7818608E-02  0.1322020E+00
          2   -1    0    0  502    0  0.00000000000E+00  0.00000000000E+00  0.76412167123E+02  0.76412167123E+02  0.00000000000E+00 0. -1.
          1   -1    0    0  501    0 -0.00000000000E+00 -0.00000000000E+00 -0.19825166028E+04  0.19825166028E+04  0.00000000000E+00 0. -1.
         25    2    1    2    0    0  0.13505608887E+03  0.46271275516E+02 -0.10998148548E+04  0.11160645216E+04  0.12500449323E+03 0.  0.
          2    1    1    2  501    0 -0.70169412016E+02  0.19618504660E+02 -0.84095452196E+03  0.84410493430E+03  0.00000000000E+00 0. -1.
          1    1    1    2  502    0 -0.64886676858E+02 -0.65889780175E+02  0.34664941128E+02  0.98759314035E+02  0.00000000000E+00 0. -1.
         22    1    3    3    0    0  0.14639545777E+03  0.16920670607E+02 -0.10141960474E+04  0.10248470919E+04  0.00000000000E+00 0.  1.
         22    1    3    3    0    0 -0.11339368901E+02  0.29350604909E+02 -0.85618807391E+02  0.91217429665E+02  0.00000000000E+00 0.  1.
</event>
<event>
 7    1  0.5553952E-006  0.8638922E+02  0.7818608E-02  0.1357977E+00
          2   -1    0    0  502    0  0.00000000000E+00  0.00000000000E+00  0.98755612530E+03  0.98755612530E+03  0.00000000000E+00 0. -1.
          1   -1    0    0  501    0 -0.00000000000E+00 -0.00000000000E+00 -0.23964653056E+04  0.23964653056E+04  0.00000000000E+00 0. -1.
         25    2    1    2    0    0  0.73398312064E+02  0.81277926216E+02  0.59159827834E+03  0.61449730703E+03  0.12500001565E+03 0.  0.
          2    1    1    2  501    0 -0.57727199221E+02 -0.11683504257E+01 -0.23803295157E+04  0.23810296928E+04  0.00000000000E+00 0. -1.
          1    1    1    2  502    0 -0.15671112842E+02 -0.80109575790E+02  0.37982205709E+03  0.38849443106E+03  0.00000000000E+00 0. -1.
         22    1    3    3    0    0  0.10827564640E+03  0.71853930565E+02  0.47195998154E+03  0.48952306086E+03  0.00000000000E+00 0. -1.
         22    1    3    3    0    0 -0.34877334338E+02  0.94239956505E+01  0.11963829680E+03  0.12497424617E+03  0.00000000000E+00 0. -1.
</event>
<event>
 7    1  0.5553952E-006  0.6816371E+02  0.7818608E-02  0.1436097E+00
          2   -1    0    0  502    0  0.00000000000E+00  0.00000000000E+00  0.12788567804E+04  0.12788567804E+04  0.00000000000E+00 0. -1.
          1   -1    0    0  501    0 -0.00000000000E+00 -0.00000000000E+00 -0.85380626708E+03  0.85380626708E+03  0.00000000000E+00 0. -1.
         25    2    1    2    0    0  0.10253116289E+03 -0.26277220351E+02  0.60473531775E+03  0.62652507537E+03  0.12500293539E+03 0.  0.
          2    1    1    2  501    0 -0.63249277760E+02  0.25191494362E+02 -0.84095240657E+03  0.84370375881E+03  0.00000000000E+00 0. -1.
          1    1    1    2  502    0 -0.39281885125E+02  0.10857259887E+01  0.66126760210E+03  0.66243421325E+03  0.00000000000E+00 0. -1.
         22    1    3    3    0    0 -0.17730075194E+00 -0.53588351160E+02  0.27201260814E+03  0.27724105360E+03  0.00000000000E+00 0. -1.
         22    1    3    3    0    0  0.10270846364E+03  0.27311130809E+02  0.33272270962E+03  0.34928402177E+03  0.00000000000E+00 0. -1.
</event>
<event>
 7    1  0.5553952E-006  0.6136297E+02  0.7818608E-02  0.1444048E+00
          2   -1    0    0  502    0  0.00000000000E+00  0.00000000000E+00  0.60627316829E+02  0.60627316829E+02  0.00000000000E+00 0. -1.
          1   -1    0    0  501    0 -0.00000000000E+00 -0.00000000000E+00 -0.77396907683E+03  0.77396907683E+03  0.00000000000E+00 0. -1.
         25    2    1    2    0    0 -0.44352456817E+02  0.44741879028E+02 -0.25217145397E+03  0.28841734347E+03  0.12500058261E+03 0.  0.
          2    1    1    2  501    0  0.37377584381E+02  0.17174014829E+02 -0.47947669677E+03  0.48123791761E+03  0.00000000000E+00 0. -1.
          1    1    1    2  502    0  0.69748724359E+01 -0.61915893857E+02  0.18306390747E+02  0.64941132572E+02  0.00000000000E+00 0. -1.
         22    1    3    3    0    0  0.20032002909E+02  0.68482385663E+02 -0.12732682114E+03  0.14595628684E+03  0.00000000000E+00 0.  1.
         22    1    3    3    0    0 -0.64384459726E+02 -0.23740506635E+02 -0.12484463283E+03  0.14246105663E+03  0.00000000000E+00 0.  1.
</event>
<event>
 7    1  0.5553952E-006  0.6631091E+02  0.7818608E-02  0.1422331E+00
          2   -1    0    0  502    0  0.00000000000E+00  0.00000000000E+00  0.20534048378E+04  0.20534048378E+04  0.00000000000E+00 0. -1.
          1   -1    0    0  501    0 -0.00000000000E+00 -0.00000000000E+00 -0.29014599624E+02  0.29014599624E+02  0.00000000000E+00 0. -1.
         25    2    1    2    0    0  0.24959858389E+02  0.59258522174E+01  0.15560496307E+04  0.15612727901E+04  0.12499664708E+03 0.  0.
          2    1    1    2  501    0 -0.54965622029E+02 -0.39251415713E+02  0.19819922041E+02  0.70389790099E+02  0.00000000000E+00 0. -1.
          1    1    1    2  502    0  0.30005763640E+02  0.33325563495E+02  0.44852068551E+03  0.45075685726E+03  0.00000000000E+00 0. -1.
         22    1    3    3    0    0  0.45710708656E+02 -0.49582907053E+02  0.92005102147E+03  0.92251927658E+03  0.00000000000E+00 0.  1.
         22    1    3    3    0    0 -0.20750850267E+02  0.55508759270E+02  0.63599860919E+03  0.63875351352E+03  0.00000000000E+00 0.  1.
</event>
<event>
 7    1  0.5553952E-006  0.1533071E+03  0.7818608E-02  0.1411527E+00
          2   -1    0    0  502    0  0.00000000000E+00  0.00000000000E+00  0.16277102418E+04  0.16277102418E+04  0.00000000000E+00 0. -1.
          1   -1    0    0  501    0 -0.00000000000E+00 -0.00000000000E+00 -0.15173334578E+03  0.15173334578E+03  0.00000000000E+00 0. -1.
         25    2    1    2    0    0  0.88064500197E+02  0.12460804099E+03  0.64791025372E+03  0.67727021525E+03  0.12499891009E+03 0.  0.
          2    1    1    2  501    0 -0.17219253987E+02  0.12168151702E+02 -0.13005283909E+03  0.13175093009E+03  0.00000000000E+00 0. -1.
          1    1    1    2  502    0 -0.70845246210E+02 -0.13677619269E+03  0.95811948141E+03  0.97042244226E+03  0.00000000000E+00 0. -1.
         22    1    3    3    0    0  0.10044644710E+03  0.11260568282E+03  0.64128176768E+03  0.65879574536E+03  0.00000000000E+00 0. -1.
         22    1    3    3    0    0 -0.12381946907E+02  0.12002358167E+02  0.66284860328E+01  0.18474469894E+02  0.00000000000E+00 0. -1.
</event>
<event>
 7    1  0.5553952E-006  0.2161525E+03  0.7818608E-02  0.1335432E+00
          2   -1    0    0  502    0  0.00000000000E+00  0.00000000000E+00  0.10050896702E+04  0.10050896702E+04  0.00000000000E+00 0. -1.
          1   -1    0    0  501    0 -0.00000000000E+00 -0.00000000000E+00 -0.41217522249E+03  0.41217522249E+03  0.00000000000E+00 0. -1.
         25    2    1    2    0    0 -0.79787688928E+02  0.20436178883E+03  0.57987346760E+03  0.63246189846E+03  0.12499999414E+03 0.  0.
          2    1    1    2  501    0  0.10359299742E+03 -0.18962420441E+03 -0.35505944106E+03  0.41563933247E+03  0.00000000000E+00 0. -1.
          1    1    1    2  502    0 -0.23805308487E+02 -0.14737584415E+02  0.36810042121E+03  0.36916366181E+03  0.00000000000E+00 0. -1.
         22    1    3    3    0    0 -0.91329136704E+02  0.13834260165E+03  0.28175663925E+03  0.32690440560E+03  0.00000000000E+00 0.  1.
         22    1    3    3    0    0  0.11541447776E+02  0.66019187179E+02  0.29811682836E+03  0.30555749286E+03  0.00000000000E+00 0.  1.
</event>
<event>
 7    1  0.5553952E-006  0.3196525E+02  0.7818608E-02  0.1622782E+00
          2   -1    0    0  502    0  0.00000000000E+00  0.00000000000E+00  0.34865101325E+03  0.34865101325E+03  0.00000000000E+00 0. -1.
          1   -1    0    0  501    0 -0.00000000000E+00 -0.00000000000E+00 -0.85193141529E+03  0.85193141529E+03  0.00000000000E+00 0. -1.
         25    2    1    2    0    0  0.40612296493E+02 -0.27354299090E+02 -0.44118232831E+02  0.14130991582E+03  0.12499783012E+03 0.  0.
          2    1    1    2  501    0 -0.24316372256E+02 -0.13814175199E-01 -0.75817655160E+03  0.75856639099E+03  0.00000000000E+00 0. -1.
          1    1    1    2  502    0 -0.16295924237E+02  0.27368113266E+02  0.29901438239E+03  0.30070612173E+03  0.00000000000E+00 0. -1.
         22    1    3    3    0    0 -0.82641623200E+01  0.34160051674E+02 -0.51550530403E+02  0.62391206865E+02  0.00000000000E+00 0.  1.
         22    1    3    3    0    0  0.48876458813E+02 -0.61514350764E+02  0.74322975722E+01  0.78918708956E+02  0.00000000000E+00 0.  1.
</event>
<event>
 7    1  0.5553952E-006  0.8496371E+02  0.7818608E-02  0.1470043E+00
          2   -1    0    0  502    0  0.00000000000E+00  0.00000000000E+00  0.12018216839E+04  0.12018216839E+04  0.00000000000E+00 0. -1.
          1   -1    0    0  501    0 -0.00000000000E+00 -0.00000000000E+00 -0.58525120733E+02  0.58525120733E+02  0.00000000000E+00 0. -1.
         25    2    1    2    0    0  0.56173906751E+02  0.35925039130E+02  0.53412414281E+03  0.55259608816E+03  0.12501088146E+03 0.  0.
          2    1    1    2  501    0  0.20525884012E+02  0.13516713470E+02 -0.42836947082E+02  0.49386410001E+02  0.00000000000E+00 0. -1.
          1    1    1    2  502    0 -0.76699790763E+02 -0.49441752600E+02  0.65200936740E+03  0.65836430643E+03  0.00000000000E+00 0. -1.
         22    1    3    3    0    0  0.58559468273E+02  0.74768289289E+02  0.28390234964E+03  0.29936608448E+03  0.00000000000E+00 0. -1.
         22    1    3    3    0    0 -0.23855615220E+01 -0.38843250159E+02  0.25022179317E+03  0.25323000368E+03  0.00000000000E+00 0. -1.
</event>
<event>
 7    1  0.5553952E-006  0.1305757E+03  0.7818608E-02  0.1388918E+00
          2   -1    0    0  502    0  0.00000000000E+00  0.00000000000E+00  0.14475533995E+04  0.14475533995E+04  0.00000000000E+00 0. -1.
          1   -1    0    0  501    0 -0.00000000000E+00 -0.00000000000E+00 -0.15838839520E+03  0.15838839520E+03  0.00000000000E+00 0. -1.
         25    2    1    2    0    0  0.11526003756E+03 -0.63997413852E+02  0.92426669096E+02  0.20383528554E+03  0.12500235690E+03 0.  0.
          2    1    1    2  501    0  0.10302635207E+02  0.27756522830E+02 -0.97187729193E+02  0.10159735999E+03  0.00000000000E+00 0. -1.
          1    1    1    2  502    0 -0.12556267277E+03  0.36240891023E+02  0.12939260644E+04  0.13005091491E+04  0.00000000000E+00 0. -1.
         22    1    3    3    0    0  0.92797649065E+02 -0.62699915121E+02  0.12269350382E+03  0.16612157869E+03  0.00000000000E+00 0. -1.
         22    1    3    3    0    0  0.22462388495E+02 -0.12974987309E+01 -0.30266834722E+02  0.37713706844E+02  0.00000000000E+00 0. -1.
</event>
<event>
 7    1  0.5553952E-006  0.1279173E+03  0.7818608E-02  0.1430510E+00
          2   -1    0    0  502    0  0.00000000000E+00  0.00000000000E+00  0.43138450906E+03  0.43138450906E+03  0.00000000000E+00 0. -1.
          1   -1    0    0  501    0 -0.00000000000E+00 -0.00000000000E+00 -0.40722073716E+03  0.40722073716E+03  0.00000000000E+00 0. -1.
         25    2    1    2    0    0  0.56060945135E+02 -0.11220583571E+03 -0.20459478818E+03  0.27058641295E+03  0.12500000154E+03 0.  0.
          2    1    1    2  501    0 -0.19169468434E+02 -0.10468780732E+02 -0.15856436384E+03  0.16006161741E+03  0.00000000000E+00 0. -1.
          1    1    1    2  502    0 -0.36891476701E+02  0.12267461644E+03  0.38732292392E+03  0.40795721585E+03  0.00000000000E+00 0. -1.
         22    1    3    3    0    0  0.73358539760E+02 -0.12389215958E+03 -0.20401188246E+03  0.24970300508E+03  0.00000000000E+00 0.  1.
         22    1    3    3    0    0 -0.17297594625E+02  0.11686323865E+02 -0.58290571879E+00  0.20883407872E+02  0.00000000000E+00 0.  1.
</event>
<event>
 7    1  0.5553952E-006  0.2800115E+03  0.7818608E-02  0.1203376E+00
          2   -1    0    0  502    0  0.00000000000E+00  0.00000000000E+00  0.30853390236E+03  0.30853390236E+03  0.00000000000E+00 0. -1.
          1   -1    0    0  501    0 -0.00000000000E+00 -0.00000000000E+00 -0.29421008357E+04  0.29421008357E+04  0.00000000000E+00 0. -1.
         25    2    1    2    0    0 -0.20608899101E+03 -0.42334900094E+02 -0.71915634843E+01  0.24483147259E+03  0.12500326157E+03 0.  0.
          2    1    1    2  501    0  0.27133622169E+03  0.84835380217E+02 -0.28005878757E+04  0.28149800774E+04  0.00000000000E+00 0. -1.
          1    1    1    2  502    0 -0.65247230677E+02 -0.42500480123E+02  0.17421250580E+03  0.19082318805E+03  0.00000000000E+00 0. -1.
         22    1    3    3    0    0 -0.88713284743E+01 -0.34047474995E+02  0.27192339020E+02  0.44467452410E+02  0.00000000000E+00 0. -1.
         22    1    3    3    0    0 -0.19721766254E+03 -0.82874250997E+01 -0.34383902504E+02  0.20036402018E+03  0.00000000000E+00 0. -1.
</event>
<event>
 7    1  0.5553952E-006  0.9695168E+02  0.7818608E-02  0.1356015E+00
          2   -1    0    0  502    0  0.00000000000E+00  0.00000000000E+00  0.12557112752E+03  0.12557112752E+03  0.00000000000E+00 0. -1.
          1   -1    0    0  501    0 -0.00000000000E+00 -0.00000000000E+00 -0.39956487594E+03  0.39956487594E+03  0.00000000000E+00 0. -1.
         25    2    1    2    0    0 -0.66541492477E+02 -0.10998926846E+03 -0.11981465477E+03  0.21565658028E+03  0.12500719869E+03 0.  0.
          2    1    1    2  501    0  0.18185866463E+02  0.90042616093E+02 -0.21227869877E+03  0.23130206312E+03  0.00000000000E+00 0. -1.
          1    1    1    2  502    0  0.48355626014E+02  0.19946652369E+02  0.58099605129E+02  0.78177360048E+02  0.00000000000E+00 0. -1.
         22    1    3    3    0    0 -0.62609712415E+02  0.30625872872E+01 -0.63747105506E+02  0.89403853328E+02  0.00000000000E+00 0.  1.
         22    1    3    3    0    0 -0.39317800623E+01 -0.11305185575E+03 -0.56067549267E+02  0.12625272696E+03  0.00000000000E+00 0.  1.
</event>
<event>
 7    1  0.5553952E-006  0.8246682E+02  0.7818608E-02  0.1324255E+00
          2   -1    0    0  502    0  0.00000000000E+00  0.00000000000E+00  0.93917998337E+03  0.93917998337E+03  0.00000000000E+00 0. -1.
          1   -1    0    0  501    0 -0.00000000000E+00 -0.00000000000E+00 -0.43041236858E+03  0.43041236858E+03  0.00000000000E+00 0. -1.
         25    2    1    2    0    0  0.19704361273E+02 -0.45444383182E+02 -0.37486553825E+02  0.13958237484E+03  0.12499817532E+03 0.  0.
          2    1    1    2  501    0  0.64123192560E+02  0.49439024899E+02 -0.33506231836E+03  0.34470677132E+03  0.00000000000E+00 0. -1.
          1    1    1    2  502    0 -0.83827553833E+02 -0.39946417166E+01  0.88131648699E+03  0.88530320579E+03  0.00000000000E+00 0. -1.
         22    1    3    3    0    0 -0.31853473786E+02  0.27485080775E+02  0.15721634194E+01  0.42101605139E+02  0.00000000000E+00 0. -1.
         22    1    3    3    0    0  0.51557835059E+02 -0.72929463957E+02 -0.39058717244E+02  0.97480769702E+02  0.00000000000E+00 0. -1.
</event>
<event>
 7    1  0.5553952E-006  0.8454899E+02  0.7818608E-02  0.1347421E+00
          2   -1    0    0  502    0  0.00000000000E+00  0.00000000000E+00  0.21086142863E+04  0.21086142863E+04  0.00000000000E+00 0. -1.
          1   -1    0    0  501    0 -0.00000000000E+00 -0.00000000000E+00 -0.18738824712E+04  0.18738824712E+04  0.00000000000E+00 0. -1.
         25    2    1    2    0    0 -0.10033418365E+02  0.12183619679E+03 -0.18941839771E+03  0.25777955076E+03  0.12500495618E+03 0.  0.
          2    1    1    2  501    0 -0.35404123752E+02 -0.76012766506E+02 -0.16487158686E+04  0.16508468760E+04  0.00000000000E+00 0. -1.
          1    1    1    2  502    0  0.45437542118E+02 -0.45823430284E+02  0.20728660814E+04  0.20738703307E+04  0.00000000000E+00 0. -1.
         22    1    3    3    0    0  0.12071732470E+02  0.17264966339E+02 -0.13722831193E+03  0.13883592973E+03  0.00000000000E+00 0. -1.
         22    1    3    3    0    0 -0.22105150835E+02  0.10457123045E+03 -0.52190085774E+02  0.11894362103E+03  0.00000000000E+00 0. -1.
</event>
<event>
 7    1  0.5553952E-006  0.6842852E+02  0.7818608E-02  0.1443948E+00
          2   -1    0    0  502    0  0.00000000000E+00  0.00000000000E+00  0.80523742417E+03  0.80523742417E+03  0.00000000000E+00 0. -1.
          1   -1    0    0  501    0 -0.00000000000E+00 -0.00000000000E+00 -0.18209951980E+03  0.18209951980E+03  0.00000000000E+00 0. -1.
         25    2    1    2    0    0 -0.33014483473E+00  0.48704089284E+02  0.10918278389E+03  0.17297067268E+03  0.12500310396E+03 0.  0.
          2    1    1    2  501    0 -0.35034321073E+02  0.11630331147E+02 -0.14606193797E+03  0.15065443233E+03  0.00000000000E+00 0. -1.
          1    1    1    2  502    0  0.35364465908E+02 -0.60334420431E+02  0.66001705845E+03  0.66371183897E+03  0.00000000000E+00 0. -1.
         22    1    3    3    0    0  0.61293225980E+02  0.35086490843E+02  0.64477427398E+02  0.95630852943E+02  0.00000000000E+00 0. -1.
         22    1    3    3    0    0 -0.61623370815E+02  0.13617598441E+02  0.44705356492E+02  0.77339819737E+02  0.00000000000E+00 0. -1.
</event>
<event>
 7    1  0.5553952E-006  0.6407700E+02  0.7818608E-02  0.1431304E+00
          2   -1    0    0  502    0  0.00000000000E+00  0.00000000000E+00  0.16343633760E+04  0.16343633760E+04  0.00000000000E+00 0. -1.
          1   -1    0    0  501    0 -0.00000000000E+00 -0.00000000000E+00 -0.16432818121E+03  0.16432818121E+03  0.00000000000E+00 0. -1.
         25    2    1    2    0    0  0.36316370557E+02  0.92553470929E+02  0.10808253562E+02  0.16009165220E+03  0.12500997963E+03 0.  0.
          2    1    1    2  501    0 -0.81488000986E+01 -0.59612674430E+02 -0.79255920765E+02  0.99506657426E+02  0.00000000000E+00 0. -1.
          1    1    1    2  502    0 -0.28167570458E+02 -0.32940796499E+02  0.15384828620E+04  0.15390932476E+04  0.00000000000E+00 0. -1.
         22    1    3    3    0    0  0.77830479985E+02  0.71486043405E+02  0.29821133564E+02  0.10980499999E+03  0.00000000000E+00 0. -1.
         22    1    3    3    0    0 -0.41514109428E+02  0.21067427524E+02 -0.19012880002E+02  0.50286652206E+02  0.00000000000E+00 0. -1.
</event>
<event>
 7    1  0.5553952E-006  0.8899637E+02  0.7818608E-02  0.1373085E+00
          2   -1    0    0  502    0  0.00000000000E+00  0.00000000000E+00  0.10178485688E+04  0.10178485688E+04  0.00000000000E+00 0. -1.
          1   -1    0    0  501    0 -0.00000000000E+00 -0.00000000000E+00 -0.60141989470E+02  0.60141989470E+02  0.00000000000E+00 0. -1.
         25    2    1    2    0    0 -0.75278183611E+02  0.11117457124E+03  0.47221549264E+03  0.50659512574E+03  0.12499823886E+03 0.  0.
          2    1    1    2  501    0  0.45087724845E+02 -0.72052068719E+02  0.16245821600E+01  0.85012015654E+02  0.00000000000E+00 0. -1.
          1    1    1    2  502    0  0.30190458766E+02 -0.39122502525E+02  0.48386650450E+03  0.48638341685E+03  0.00000000000E+00 0. -1.
         22    1    3    3    0    0 -0.63283546195E+02  0.12854990907E+02  0.30900788121E+03  0.31568327270E+03  0.00000000000E+00 0. -1.
         22    1    3    3    0    0 -0.11994637416E+02  0.98319580338E+02  0.16320761143E+03  0.19091185304E+03  0.00000000000E+00 0. -1.
</event>
<event>
 7    1  0.5553952E-006  0.1570362E+03  0.7818608E-02  0.1226225E+00
          2   -1    0    0  502    0  0.00000000000E+00  0.00000000000E+00  0.71186608282E+03  0.71186608282E+03  0.00000000000E+00 0. -1.
          1   -1    0    0  501    0 -0.00000000000E+00 -0.00000000000E+00 -0.26167464007E+03  0.26167464007E+03  0.00000000000E+00 0. -1.
         25    2    1    2    0    0 -0.88013234336E+02  0.18869298287E+03  0.97315666023E+02  0.26162494130E+03  0.12500359937E+03 0.  0.
          2    1    1    2  501    0  0.10285884447E+03 -0.36076242291E+02 -0.15043002754E+03  0.18577036989E+03  0.00000000000E+00 0. -1.
          1    1    1    2  502    0 -0.14845610130E+02 -0.15261674058E+03  0.50330580427E+03  0.52614541171E+03  0.00000000000E+00 0. -1.
         22    1    3    3    0    0  0.11610676613E+02  0.11861076515E+03  0.64335731291E+02  0.13543414541E+03  0.00000000000E+00 0.  1.
         22    1    3    3    0    0 -0.99623910950E+02  0.70082217714E+02  0.32979934732E+02  0.12619079589E+03  0.00000000000E+00 0.  1.
</event>
<event>
 7    1  0.5553952E-006  0.4948476E+02  0.7818608E-02  0.1527428E+00
          2   -1    0    0  502    0  0.00000000000E+00  0.00000000000E+00  0.19632623033E+03  0.19632623033E+03  0.00000000000E+00 0. -1.
          1   -1    0    0  501    0 -0.00000000000E+00 -0.00000000000E+00 -0.11350425690E+04  0.11350425690E+04  0.00000000000E+00 0. -1.
         25    2    1    2    0    0 -0.72291021886E+02 -0.23341036377E+02 -0.21729730776E+03  0.26194235140E+03  0.12499951870E+03 0.  0.
          2    1    1    2  501    0  0.47935816948E+02  0.86877836135E+01 -0.89359406523E+03  0.89492104319E+03  0.00000000000E+00 0. -1.
          1    1    1    2  502    0  0.24355204937E+02  0.14653252764E+02  0.17217503434E+03  0.17450540471E+03  0.00000000000E+00 0. -1.
         22    1    3    3    0    0 -0.62035563859E+02 -0.20536897593E+02 -0.25966976485E+02  0.70316848720E+02  0.00000000000E+00 0.  1.
         22    1    3    3    0    0 -0.10255458026E+02 -0.28041387844E+01 -0.19133033127E+03  0.19162550268E+03  0.00000000000E+00 0.  1.
</event>
<event>
 7    1  0.5553952E-006  0.9816636E+02  0.7818608E-02  0.1344776E+00
          2   -1    0    0  502    0  0.00000000000E+00  0.00000000000E+00  0.66691815316E+03  0.66691815316E+03  0.00000000000E+00 0. -1.
          1   -1    0    0  501    0 -0.00000000000E+00 -0.00000000000E+00 -0.26151398609E+04  0.26151398609E+04  0.00000000000E+00 0. -1.
         25    2    1    2    0    0  0.31851391655E+02  0.98240914372E+02 -0.12185487051E+03  0.20282980204E+03  0.12500212288E+03 0.  0.
          2    1    1    2  501    0 -0.76055391111E+02 -0.62482832044E+02 -0.24505173681E+04  0.24524934043E+04  0.00000000000E+00 0. -1.
          1    1    1    2  502    0  0.44203999456E+02 -0.35758082328E+02  0.62415053086E+03  0.62673480771E+03  0.00000000000E+00 0. -1.
         22    1    3    3    0    0  0.33516553651E+02 -0.21482443631E+02 -0.47117695352E+02  0.61684130604E+02  0.00000000000E+00 0. -1.
         22    1    3    3    0    0 -0.16651619961E+01  0.11972335800E+03 -0.74737175154E+02  0.14114567144E+03  0.00000000000E+00 0. -1.
</event>
<event>
 7    1  0.5553952E-006  0.3702502E+02  0.7818608E-02  0.1558181E+00
          2   -1    0    0  502    0  0.00000000000E+00  0.00000000000E+00  0.33895529806E+02  0.33895529806E+02  0.00000000000E+00 0. -1.
          1   -1    0    0  501    0 -0.00000000000E+00 -0.00000000000E+00 -0.10276441287E+04  0.10276441287E+04  0.00000000000E+00 0. -1.
         25    2    1    2    0    0  0.25410340987E+02 -0.19949198239E+01 -0.15716712008E+03  0.20242484034E+03  0.12499858887E+03 0.  0.
          2    1    1    2  501    0 -0.23601414330E+02 -0.29072282332E+02 -0.82509271240E+03  0.82594201274E+03  0.00000000000E+00 0. -1.
          1    1    1    2  502    0 -0.18089266565E+01  0.31067202156E+02 -0.11488766404E+02  0.33172805413E+02  0.00000000000E+00 0. -1.
         22    1    3    3    0    0  0.58878866257E+02  0.32930631016E+02 -0.47334587660E+02  0.82411834950E+02  0.00000000000E+00 0.  1.
         22    1    3    3    0    0 -0.33468525270E+02 -0.34925550840E+02 -0.10983253242E+03  0.12001300539E+03  0.00000000000E+00 0.  1.
</event>
<event>
 7    1  0.5553952E-006  0.1342063E+03  0.7818608E-02  0.1236195E+00
          2   -1    0    0  502    0  0.00000000000E+00  0.00000000000E+00  0.28454122847E+03  0.28454122847E+03  0.00000000000E+00 0. -1.
          1   -1    0    0  501    0 -0.00000000000E+00 -0.00000000000E+00 -0.81513242410E+03  0.81513242410E+03  0.00000000000E+00 0. -1.
         25    2    1    2    0    0 -0.13620081166E+03  0.11636260785E+03 -0.26813132391E+03  0.34584893847E+03  0.12500465501E+03 0.  0.
          2    1    1    2  501    0  0.13143400823E+03 -0.13693312983E+01 -0.48542574881E+03  0.50290648355E+03  0.00000000000E+00 0. -1.
          1    1    1    2  502    0  0.47668034357E+01 -0.11499327655E+03  0.22296587710E+03  0.25091823054E+03  0.00000000000E+00 0. -1.
         22    1    3    3    0    0 -0.63427211331E+02  0.10528418904E+03 -0.23483438646E+03  0.26505652352E+03  0.00000000000E+00 0.  1.
         22    1    3    3    0    0 -0.72773600334E+02  0.11078418812E+02 -0.33296937454E+02  0.80792414945E+02  0.00000000000E+00 0.  1.
</event>
<event>
 7    1  0.5553952E-006  0.2103413E+03  0.7818608E-02  0.1250517E+00
          2   -1    0    0  502    0  0.00000000000E+00  0.00000000000E+00  0.13074406916E+04  0.13074406916E+04  0.00000000000E+00 0. -1.
          1   -1    0    0  501    0 -0.00000000000E+00 -0.00000000000E+00 -0.40666233089E+03  0.40666233089E+03  0.00000000000E+00 0. -1.
         25    2    1    2    0    0  0.16754802267E+03 -0.18493578596E+02  0.22400195735E+03  0.30694707449E+03  0.12500110916E+03 0.  0.
          2    1    1    2  501    0  0.46757842883E+02 -0.43030998465E+02 -0.35037156129E+03  0.35608733993E+03  0.00000000000E+00 0. -1.
          1    1    1    2  502    0 -0.21430586555E+03  0.61524577061E+02  0.10271479647E+04  0.10510686081E+04  0.00000000000E+00 0. -1.
         22    1    3    3    0    0  0.39110475905E+02  0.47716481809E+02  0.94804104487E+02  0.11311193655E+03  0.00000000000E+00 0. -1.
         22    1    3    3    0    0  0.12843754676E+03 -0.66210060405E+02  0.12919785287E+03  0.19383513794E+03  0.00000000000E+00 0. -1.
</event>
<event>
 7    1  0.5553952E-006  0.1044158E+03  0.7818608E-02  0.1271323E+00
          2   -1    0    0  502    0  0.00000000000E+00  0.00000000000E+00  0.29469987513E+03  0.29469987513E+03  0.00000000000E+00 0. -1.
          1   -1    0    0  501    0 -0.00000000000E+00 -0.00000000000E+00 -0.58089163357E+03  0.58089163357E+03  0.00000000000E+00 0. -1.
         25    2    1    2    0    0  0.26261752948E+02  0.80080697521E+02 -0.27050558180E+02  0.15316551780E+03  0.12500138144E+03 0.  0.
          2    1    1    2  501    0  0.85860208774E+02 -0.59419519476E+02 -0.47067863230E+03  0.48212138477E+03  0.00000000000E+00 0. -1.
          1    1    1    2  502    0 -0.11212196172E+03 -0.20661178045E+02  0.21153743204E+03  0.24030460614E+03  0.00000000000E+00 0. -1.
         22    1    3    3    0    0  0.21707902095E+02  0.11392023653E+03 -0.14899421814E+02  0.11692324865E+03  0.00000000000E+00 0. -1.
         22    1    3    3    0    0  0.45538508537E+01 -0.33839539010E+02 -0.12151136366E+02  0.36242269148E+02  0.00000000000E+00 0. -1.
</event>
<event>
 7    1  0.5553952E-006  0.2956895E+02  0.7818608E-02  0.1639372E+00
          2   -1    0    0  502    0  0.00000000000E+00  0.00000000000E+00  0.12445467705E+03  0.12445467705E+03  0.00000000000E+00 0. -1.
          1   -1    0    0  501    0 -0.00000000000E+00 -0.00000000000E+00 -0.73873806897E+03  0.73873806897E+03  0.00000000000E+00 0. -1.
         25    2    1    2    0    0 -0.26274714570E+01  0.95918420344E+01  0.48475392235E+02  0.13444487444E+03  0.12500661411E+03 0.  0.
          2    1    1    2  501    0 -0.12748691416E+02  0.20194909816E+02 -0.68697783252E+03  0.68739283229E+03  0.00000000000E+00 0. -1.
          1    1    1    2  502    0  0.15376162873E+02 -0.29786751851E+02  0.24219048368E+02  0.41355039286E+02  0.00000000000E+00 0. -1.
         22    1    3    3    0    0 -0.27055897857E+01  0.37373795877E+02  0.82445102253E+02  0.90561115937E+02  0.00000000000E+00 0.  1.
         22    1    3    3    0    0  0.78118328690E-01 -0.27781953843E+02 -0.33969710017E+02  0.43883758504E+02  0.00000000000E+00 0.  1.
</event>
<event>
 7    1  0.5553952E-006  0.5477850E+02  0.7818608E-02  0.1468367E+00
          2   -1    0    0  502    0  0.00000000000E+00  0.00000000000E+00  0.29756355515E+03  0.29756355515E+03  0.00000000000E+00 0. -1.
          1   -1    0    0  501    0 -0.00000000000E+00 -0.00000000000E+00 -0.19959592772E+03  0.19959592772E+03  0.00000000000E+00 0. -1.
         25    2    1    2    0    0  0.42682147992E+02 -0.14745392610E+02 -0.12508360878E+03  0.18250943060E+03  0.12499836285E+03 0.  0.
          2    1    1    2  501    0 -0.65605333691E+02 -0.16286365667E+02 -0.18463811284E+02  0.70072946580E+02  0.00000000000E+00 0. -1.
          1    1    1    2  502    0  0.22923185699E+02  0.31031758277E+02  0.24151504749E+03  0.24457710569E+03  0.00000000000E+00 0. -1.
         22    1    3    3    0    0  0.37227106323E+02 -0.27723881621E+02  0.93433149676E+01  0.47347318740E+02  0.00000000000E+00 0. -1.
         22    1    3    3    0    0  0.54550416690E+01  0.12978489010E+02 -0.13442692374E+03  0.13516211186E+03  0.00000000000E+00 0. -1.
</event>
<event>
 7    1  0.5553952E-006  0.1087301E+03  0.7818608E-02  0.1331529E+00
          2   -1    0    0  502    0  0.00000000000E+00  0.00000000000E+00  0.33164904391E+04  0.33164904391E+04  0.00000000000E+00 0. -1.
          1   -1    0    0  501    0 -0.00000000000E+00 -0.00000000000E+00 -0.18037647572E+04  0.18037647572E+04  0.00000000000E+00 0. -1.
         25    2    1    2    0    0 -0.10954861386E+03  0.11657519993E+03  0.72197903352E+03  0.74998038505E+03  0.12500470822E+03 0.  0.
          2    1    1    2  501    0  0.48277077073E+02 -0.31405380621E+02 -0.17882338227E+04  0.17891610265E+04  0.00000000000E+00 0. -1.
          1    1    1    2  502    0  0.61271536789E+02 -0.85169819310E+02  0.25789804711E+04  0.25811137847E+04  0.00000000000E+00 0. -1.
         22    1    3    3    0    0 -0.53160259742E+02 -0.17165356619E+02  0.25114371971E+03  0.25728161737E+03  0.00000000000E+00 0. -1.
         22    1    3    3    0    0 -0.56388354121E+02  0.13374055655E+03  0.47083531381E+03  0.49269876768E+03  0.00000000000E+00 0. -1.
</event>
<event>
 7    1  0.5553952E-006  0.8214058E+02  0.7818608E-02  0.1431120E+00
          2   -1    0    0  502    0  0.00000000000E+00  0.00000000000E+00  0.37868621446E+02  0.37868621446E+02  0.00000000000E+00 0. -1.
          1   -1    0    0  501    0 -0.00000000000E+00 -0.00000000000E+00 -0.26182039912E+04  0.26182039912E+04  0.00000000000E+00 0. -1.
         25    2    1    2    0    0 -0.77411442565E+02  0.84932566367E+02 -0.20185307773E+04  0.20256599880E+04  0.12500326326E+03 0.  0.
          2    1    1    2  501    0  0.25414568038E+02 -0.22370063845E+02 -0.54660838304E+03  0.54765595444E+03  0.00000000000E+00 0. -1.
          1    1    1    2  502    0  0.51996874526E+02 -0.62562502522E+02 -0.15196209416E+02  0.82756670202E+02  0.00000000000E+00 0. -1.
         22    1    3    3    0    0 -0.88224660851E+02  0.22076765007E+02 -0.74455867841E+03  0.75009239426E+03  0.00000000000E+00 0. -1.
         22    1    3    3    0    0  0.10813218286E+02  0.62855801360E+02 -0.12739720989E+04  0.12755675938E+04  0.00000000000E+00 0. -1.
</event>
<event>
 7    1  0.5553952E-006  0.1100508E+03  0.7818608E-02  0.1266174E+00
          2   -1    0    0  502    0  0.00000000000E+00  0.00000000000E+00  0.77024012280E+03  0.77024012280E+03  0.00000000000E+00 0. -1.
          1   -1    0    0  501    0 -0.00000000000E+00 -0.00000000000E+00 -0.20463039374E+03  0.20463039374E+03  0.00000000000E+00 0. -1.
         25    2    1    2    0    0  0.70072817504E+02  0.69974122498E+02 -0.78891825347E+02  0.17791971341E+03  0.12499970697E+03 0.  0.
          2    1    1    2  501    0 -0.13748223142E+03  0.17015296088E+02 -0.45790309262E+01  0.13860682444E+03  0.00000000000E+00 0. -1.
          1    1    1    2  502    0  0.67409413912E+02 -0.86989418586E+02  0.64908058533E+03  0.65834397869E+03  0.00000000000E+00 0. -1.
         22    1    3    3    0    0  0.46855326373E+02  0.90601549789E+02 -0.98004341646E+02  0.14145286641E+03  0.00000000000E+00 0. -1.
         22    1    3    3    0    0  0.23217491131E+02 -0.20627427291E+02  0.19112516300E+02  0.36466847004E+02  0.00000000000E+00 0. -1.
</event>
<event>
 7    1  0.5553952E-006  0.8739245E+02  0.7818608E-02  0.1381003E+00
          2   -1    0    0  502    0  0.00000000000E+00  0.00000000000E+00  0.76346044073E+03  0.76346044073E+03  0.00000000000E+00 0. -1.
          1   -1    0    0  501    0 -0.00000000000E+00 -0.00000000000E+00 -0.28323120857E+04  0.28323120857E+04  0.00000000000E+00 0. -1.
         25    2    1    2    0    0 -0.66999768785E+02  0.30139522621E+02 -0.11656969670E+03  0.18604029188E+03  0.12500054469E+03 0.  0.
          2    1    1    2  501    0 -0.19924962139E+02 -0.42748276843E+02 -0.26781520006E+04  0.26785672584E+04  0.00000000000E+00 0. -1.
          1    1    1    2  502    0  0.86924730924E+02  0.12608754222E+02  0.72587005233E+03  0.73116497618E+03  0.00000000000E+00 0. -1.
         22    1    3    3    0    0 -0.55207808592E+02 -0.11965729602E+02  0.51317747919E+01  0.56722270115E+02  0.00000000000E+00 0. -1.
         22    1    3    3    0    0 -0.11791960193E+02  0.42105252223E+02 -0.12170147149E+03  0.12931802176E+03  0.00000000000E+00 0. -1.
</event>
<event>
 7    1  0.5553952E-006  0.1388678E+03  0.7818608E-02  0.1316953E+00
          2   -1    0    0  502    0  0.00000000000E+00  0.00000000000E+00  0.10509154012E+03  0.10509154012E+03  0.00000000000E+00 0. -1.
          1   -1    0    0  501    0 -0.00000000000E+00 -0.00000000000E+00 -0.15467141345E+04  0.15467141345E+04  0.00000000000E+00 0. -1.
         25    2    1    2    0    0 -0.31440861011E+00  0.16799675610E+03 -0.84515022695E+03  0.87070499118E+03  0.12500106661E+03 0.  0.
          2    1    1    2  501    0 -0.25843036378E+02 -0.12384130512E+03 -0.67529486603E+03  0.68704271153E+03  0.00000000000E+00 0. -1.
          1    1    1    2  502    0  0.26157444988E+02 -0.44155450978E+02  0.78822498636E+02  0.94057971861E+02  0.00000000000E+00 0. -1.
         22    1    3    3    0    0  0.44797341352E+02  0.14875449876E+02 -0.25583446463E+03  0.26015255927E+03  0.00000000000E+00 0.  1.
         22    1    3    3    0    0 -0.45111749962E+02  0.15312130622E+03 -0.58931576232E+03  0.61055243192E+03  0.00000000000E+00 0.  1.
</event>
<event>
 7    1  0.5553952E-006  0.7092043E+02  0.7818608E-02  0.1391610E+00
          2   -1    0    0  502    0  0.00000000000E+00  0.00000000000E+00  0.25146064169E+04  0.25146064169E+04  0.00000000000E+00 0. -1.
          1   -1    0    0  501    0 -0.00000000000E+00 -0.00000000000E+00 -0.40425222204E+02  0.40425222204E+02  0.00000000000E+00 0. -1.
         25    2    1    2    0    0 -0.87408959956E+02  0.57803740385E+02  0.63702434666E+03  0.65757613239E+03  0.12499901190E+03 0.  0.
          2    1    1    2  501    0  0.34131968685E+02 -0.60495641509E+02  0.10770454182E+02  0.70290231264E+02  0.00000000000E+00 0. -1.
          1    1    1    2  502    0  0.53276991270E+02  0.26919011233E+01  0.18263863938E+04  0.18271652754E+04  0.00000000000E+00 0. -1.
         22    1    3    3    0    0 -0.65715377647E+02 -0.96563179650E+01  0.13371950263E+03  0.14930726948E+03  0.00000000000E+00 0.  1.
         22    1    3    3    0    0 -0.21693582309E+02  0.67460058350E+02  0.50330484403E+03  0.50826886292E+03  0.00000000000E+00 0.  1.
</event>
<event>
 7    1  0.5553952E-006  0.2719782E+02  0.7818608E-02  0.1631782E+00
          2   -1    0    0  502    0  0.00000000000E+00  0.00000000000E+00  0.27972518837E+03  0.27972518837E+03  0.00000000000E+00 0. -1.
          1   -1    0    0  501    0 -0.00000000000E+00 -0.00000000000E+00 -0.92110733115E+03  0.92110733115E+03  0.00000000000E+00 0. -1.
         25    2    1    2    0    0 -0.50959861299E+01 -0.12062633125E+01  0.90348217036E+02  0.15432325601E+03  0.12500177150E+03 0.  0.
          2    1    1    2  501    0 -0.30734639246E+01  0.27069282964E+02 -0.88774079999E+03  0.88815872468E+03  0.00000000000E+00 0. -1.
          1    1    1    2  502    0  0.81694500545E+01 -0.25863019651E+02  0.15601044018E+03  0.15835053882E+03  0.00000000000E+00 0. -1.
         22    1    3    3    0    0  0.14161940804E+01  0.61703939424E+02  0.48335600807E+02  0.78394591978E+02  0.00000000000E+00 0.  1.
         22    1    3    3    0    0 -0.65121802103E+01 -0.62910202736E+02  0.42012616229E+02  0.75928664033E+02  0.00000000000E+00 0.  1.
</event>
<event>
 7    1  0.5553952E-006  0.4830559E+02  0.7818608E-02  0.1460313E+00
          2   -1    0    0  502    0  0.00000000000E+00  0.00000000000E+00  0.80962283600E+03  0.80962283600E+03  0.00000000000E+00 0. -1.
          1   -1    0    0  501    0 -0.00000000000E+00 -0.00000000000E+00 -0.97805054094E+02  0.97805054094E+02  0.00000000000E+00 0. -1.
         25    2    1    2    0    0 -0.30156324301E+01 -0.13895281428E+02  0.20257930732E+03  0.23846526693E+03  0.12500053957E+03 0.  0.
          2    1    1    2  501    0  0.49083662790E+02  0.86189820596E+01 -0.71071875837E+02  0.86802674726E+02  0.00000000000E+00 0. -1.
          1    1    1    2  502    0 -0.46068030360E+02  0.52762993681E+01  0.58031035043E+03  0.58215994844E+03  0.00000000000E+00 0. -1.
         22    1    3    3    0    0 -0.25746621613E+02  0.46787068803E+02  0.52014295562E+02  0.74548006509E+02  0.00000000000E+00 0.  1.
         22    1    3    3    0    0  0.22730989183E+02 -0.60682350231E+02  0.15056501176E+03  0.16391726042E+03  0.00000000000E+00 0.  1.
</event>
<event>
 7    1  0.5553952E-006  0.9067148E+02  0.7818608E-02  0.1483207E+00
          2   -1    0    0  502    0  0.00000000000E+00  0.00000000000E+00  0.91166237160E+03  0.91166237160E+03  0.00000000000E+00 0. -1.
          1   -1    0    0  501    0 -0.00000000000E+00 -0.00000000000E+00 -0.75429686063E+02  0.75429686063E+02  0.00000000000E+00 0. -1.
         25    2    1    2    0    0 -0.51506845255E+02  0.52229925487E+02  0.78353785585E+03  0.79682961384E+03  0.12499976692E+03 0.  0.
          2    1    1    2  501    0  0.72121995384E+02 -0.56101020782E+02 -0.36679588483E+02  0.98459631130E+02  0.00000000000E+00 0. -1.
          1    1    1    2  502    0 -0.20615150129E+02  0.38710952943E+01  0.89374418175E+02  0.91802812690E+02  0.00000000000E+00 0. -1.
         22    1    3    3    0    0 -0.40480039978E+02  0.12586792755E+02  0.68146714912E+02  0.80256063583E+02  0.00000000000E+00 0.  1.
         22    1    3    3    0    0 -0.11026805277E+02  0.39643132732E+02  0.71539114093E+03  0.71657355026E+03  0.00000000000E+00 0.  1.
</event>
<event>
 7    1  0.5553952E-006  0.1242976E+03  0.7818608E-02  0.1308622E+00
          2   -1    0    0  502    0  0.00000000000E+00  0.00000000000E+00  0.10273903118E+04  0.10273903118E+04  0.00000000000E+00 0. -1.
          1   -1    0    0  501    0 -0.00000000000E+00 -0.00000000000E+00 -0.84965699221E+03  0.84965699221E+03  0.00000000000E+00 0. -1.
         25    2    1    2    0    0 -0.10085337395E+03  0.70486278236E+02  0.15293358910E+03  0.23270796138E+03  0.12499837662E+03 0.  0.
          2    1    1    2  501    0  0.54980295648E+02 -0.11192744796E+03 -0.80381059366E+03  0.81342612264E+03  0.00000000000E+00 0. -1.
          1    1    1    2  502    0  0.45873078301E+02  0.41441169723E+02  0.82861032412E+03  0.83091321995E+03  0.00000000000E+00 0. -1.
         22    1    3    3    0    0  0.18179395970E+01  0.13999198053E+02  0.10525161471E+03  0.10619409046E+03  0.00000000000E+00 0.  1.
         22    1    3    3    0    0 -0.10267131355E+03  0.56487080183E+02  0.47681974396E+02  0.12651387092E+03  0.00000000000E+00 0.  1.
</event>
<event>
 7    1  0.5553952E-006  0.1895117E+03  0.7818608E-02  0.1220351E+00
          2   -1    0    0  502    0  0.00000000000E+00  0.00000000000E+00  0.23548931654E+04  0.23548931654E+04  0.00000000000E+00 0. -1.
          1   -1    0    0  501    0 -0.00000000000E+00 -0.00000000000E+00 -0.20670579480E+04  0.20670579480E+04  0.00000000000E+00 0. -1.
         25    2    1    2    0    0  0.20181274210E+03 -0.78821297379E+02 -0.25821499824E+03  0.35950097813E+03  0.12499915267E+03 0.  0.
          2    1    1    2  501    0 -0.13069312782E+02  0.95142745594E+02 -0.17529894631E+04  0.17556181267E+04  0.00000000000E+00 0. -1.
          1    1    1    2  502    0 -0.18874342931E+03 -0.16321448215E+02  0.22990396787E+04  0.23068320087E+04  0.00000000000E+00 0. -1.
         22    1    3    3    0    0  0.15019254192E+02 -0.36644942146E+02 -0.11131474235E+03  0.11814991175E+03  0.00000000000E+00 0.  1.
         22    1    3    3    0    0  0.18679348790E+03 -0.42176355233E+02 -0.14690025589E+03  0.24135106638E+03  0.00000000000E+00 0.  1.
</event>
<event>
 7    1  0.5553952E-006  0.6999911E+02  0.7818608E-02  0.1369572E+00
          2   -1    0    0  502    0  0.00000000000E+00  0.00000000000E+00  0.50277313199E+03  0.50277313199E+03  0.00000000000E+00 0. -1.
          1   -1    0    0  501    0 -0.00000000000E+00 -0.00000000000E+00 -0.41515931036E+03  0.41515931036E+03  0.00000000000E+00 0. -1.
         25    2    1    2    0    0 -0.20616095301E+02 -0.73450360512E+02  0.45299390694E+02  0.15328583923E+03  0.12499813946E+03 0.  0.
          2    1    1    2  501    0 -0.45237386991E+02  0.46226846395E+02 -0.35507553686E+03  0.36091824474E+03  0.00000000000E+00 0. -1.
          1    1    1    2  502    0  0.65853482292E+02  0.27223514116E+02  0.39738996780E+03  0.40372835838E+03  0.00000000000E+00 0. -1.
         22    1    3    3    0    0 -0.66724483800E+02 -0.48900679194E+02  0.56088292890E+02  0.99946634577E+02  0.00000000000E+00 0. -1.
         22    1    3    3    0    0  0.46108388499E+02 -0.24549681318E+02 -0.10788902196E+02  0.53339204656E+02  0.00000000000E+00 0. -1.
</event>
<event>
 7    1  0.5553952E-006  0.5373214E+02  0.7818608E-02  0.1480800E+00
          2   -1    0    0  502    0  0.00000000000E+00  0.00000000000E+00  0.63042527525E+03  0.63042527525E+03  0.00000000000E+00 0. -1.
          1   -1    0    0  501    0 -0.00000000000E+00 -0.00000000000E+00 -0.25709767308E+02  0.25709767308E+02  0.00000000000E+00 0. -1.
         25    2    1    2    0    0  0.18305269622E+02  0.33857944092E+02  0.48548450426E+03  0.50279738717E+03  0.12501426075E+03 0.  0.
          2    1    1    2  501    0 -0.52291774907E+02 -0.21984918698E+02  0.51417700866E+02  0.76560736252E+02  0.00000000000E+00 0. -1.
          1    1    1    2  502    0  0.33986505285E+02 -0.11873025394E+02  0.67813302816E+02  0.76776919138E+02  0.00000000000E+00 0. -1.
         22    1    3    3    0    0 -0.19945978692E+02  0.61208385485E+02  0.40076532732E+03  0.40590288999E+03  0.00000000000E+00 0. -1.
         22    1    3    3    0    0  0.38251248314E+02 -0.27350441394E+02  0.84719176941E+02  0.96894497179E+02  0.00000000000E+00 0. -1.
</event>
<event>
 7    1  0.5553952E-006  0.7211529E+02  0.7818608E-02  0.1389517E+00
          2   -1    0    0  502    0  0.00000000000E+00  0.00000000000E+00  0.31316704565E+02  0.31316704565E+02  0.00000000000E+00 0. -1.
          1   -1    0    0  501    0 -0.00000000000E+00 -0.00000000000E+00 -0.10854836753E+04  0.10854836753E+04  0.00000000000E+00 0. -1.
         25    2    1    2    0    0 -0.10279905554E+03 -0.45751981019E+02 -0.61512533551E+03  0.63770350873E+03  0.12500278826E+03 0.  0.
          2    1    1    2  501    0  0.53323213209E+02 -0.16893410352E+01 -0.39281235363E+03  0.39641867275E+03  0.00000000000E+00 0. -1.
          1    1    1    2  502    0  0.49475842334E+02  0.47441322054E+02 -0.46229281614E+02  0.82678198404E+02  0.00000000000E+00 0. -1.
         22    1    3    3    0    0  0.21043167328E+02 -0.30519905906E+02 -0.79230440569E+02  0.87474237696E+02  0.00000000000E+00 0. -1.
         22    1    3    3    0    0 -0.12384222287E+03 -0.15232075113E+02 -0.53589489494E+03  0.55022927103E+03  0.00000000000E+00 0. -1.
</event>
<event>
 7    1  0.5553952E-006  0.1791817E+03  0.7818608E-02  0.1371719E+00
          2   -1    0    0  502    0  0.00000000000E+00  0.00000000000E+00  0.11081179945E+04  0.11081179945E+04  0.00000000000E+00 0. -1.
          1   -1    0    0  501    0 -0.00000000000E+00 -0.00000000000E+00 -0.80528727406E+02  0.80528727406E+02  0.00000000000E+00 0. -1.
         25    2    1    2    0    0 -0.15223460038E+03 -0.11590926793E+03  0.47015544589E+03  0.52276349712E+03  0.12500079471E+03 0.  0.
          2    1    1    2  501    0  0.12789267554E+03  0.12077061242E+03  0.89632071304E+02  0.19742336611E+03  0.00000000000E+00 0. -1.
          1    1    1    2  502    0  0.24341924835E+02 -0.48613444862E+01  0.46780174989E+03  0.46845985866E+03  0.00000000000E+00 0. -1.
         22    1    3    3    0    0 -0.13578251187E+03 -0.49366113563E+02  0.21855580936E+03  0.26199340736E+03  0.00000000000E+00 0.  1.
         22    1    3    3    0    0 -0.16452088510E+02 -0.66543154370E+02  0.25159963653E+03  0.26077008976E+03  0.00000000000E+00 0.  1.
</event>
<event>
 7    1  0.5553952E-006  0.1715050E+03  0.7818608E-02  0.1350887E+00
          2   -1    0    0  502    0  0.00000000000E+00  0.00000000000E+00  0.73106782217E+03  0.73106782217E+03  0.00000000000E+00 0. -1.
          1   -1    0    0  501    0 -0.00000000000E+00 -0.00000000000E+00 -0.56476039937E+03  0.56476039937E+03  0.00000000000E+00 0. -1.
         25    2    1    2    0    0  0.22602614244E+02 -0.19669720082E+03  0.76894770120E+02  0.24645078495E+03  0.12499806699E+03 0.  0.
          2    1    1    2  501    0 -0.87847436892E+01  0.29609315729E+02 -0.46711963527E+03  0.46813954860E+03  0.00000000000E+00 0. -1.
          1    1    1    2  502    0 -0.13817870555E+02  0.16708788509E+03  0.55653228795E+03  0.58123788798E+03  0.00000000000E+00 0. -1.
         22    1    3    3    0    0  0.66107899804E+02 -0.55442085546E+02  0.25530794125E+02  0.89977223311E+02  0.00000000000E+00 0.  1.
         22    1    3    3    0    0 -0.43505285560E+02 -0.14125511527E+03  0.51363975995E+02  0.15647356164E+03  0.00000000000E+00 0.  1.
</event>
<event>
 7    1  0.5553952E-006  0.6974059E+02  0.7818608E-02  0.1411333E+00
          2   -1    0    0  502    0  0.00000000000E+00  0.00000000000E+00  0.13215771270E+02  0.13215771270E+02  0.00000000000E+00 0. -1.
          1   -1    0    0  501    0 -0.00000000000E+00 -0.00000000000E+00 -0.18119562736E+04  0.18119562736E+04  0.00000000000E+00 0. -1.
         25    2    1    2    0    0 -0.82533860072E+02 -0.51064976721E+02 -0.13640889574E+04  0.13732383634E+04  0.12500179635E+03 0.  0.
          2    1    1    2  501    0  0.36624624095E+02  0.44201581588E+02 -0.35605729077E+03  0.36065487272E+03  0.00000000000E+00 0. -1.
          1    1    1    2  502    0  0.45909235978E+02  0.68633951328E+01 -0.78594254141E+02  0.91278808739E+02  0.00000000000E+00 0. -1.
         22    1    3    3    0    0 -0.28374174335E+02 -0.84317956897E+02 -0.96843017329E+03  0.97250789826E+03  0.00000000000E+00 0. -1.
         22    1    3    3    0    0 -0.54159685738E+02  0.33252980177E+02 -0.39565878413E+03  0.40073046517E+03  0.00000000000E+00 0. -1.
</event>
<event>
 7    1  0.5553952E-006  0.6022344E+02  0.7818608E-02  0.1464571E+00
          2   -1    0    0  502    0  0.00000000000E+00  0.00000000000E+00  0.13255737861E+04  0.13255737861E+04  0.00000000000E+00 0. -1.
          1   -1    0    0  501    0 -0.00000000000E+00 -0.00000000000E+00 -0.67473229433E+02  0.67473229433E+02  0.00000000000E+00 0. -1.
         25    2    1    2    0    0 -0.53951741529E+02  0.60258210498E+02  0.24326447690E+03  0.28520994748E+03  0.12500106430E+03 0.  0.
          2    1    1    2  501    0  0.54031075178E+02 -0.24194148852E+02 -0.27218952647E+02  0.65158156103E+02  0.00000000000E+00 0. -1.
          1    1    1    2  502    0 -0.79333649715E-01 -0.36064061646E+02  0.10420550324E+04  0.10426789120E+04  0.00000000000E+00 0. -1.
         22    1    3    3    0    0 -0.55242225949E+02  0.95318165583E+02  0.15443789066E+03  0.18970587310E+03  0.00000000000E+00 0.  1.
         22    1    3    3    0    0  0.12904844206E+01 -0.35059955085E+02  0.88826586239E+02  0.95504074381E+02  0.00000000000E+00 0.  1.
</event>
<event>
 7    1  0.5553952E-006  0.1455505E+03  0.7818608E-02  0.1257244E+00
          2   -1    0    0  502    0  0.00000000000E+00  0.00000000000E+00  0.10004461533E+04  0.10004461533E+04  0.00000000000E+00 0. -1.
          1   -1    0    0  501    0 -0.00000000000E+00 -0.00000000000E+00 -0.61000213169E+03  0.61000213169E+03  0.00000000000E+00 0. -1.
         25    2    1    2    0    0 -0.13805815140E+03  0.92783751034E+02 -0.19081393664E+03  0.28231898482E+03  0.12500069260E+03 0.  0.
          2    1    1    2  501    0  0.61171653411E+02 -0.13108717921E+03 -0.35739158463E+03  0.38555747237E+03  0.00000000000E+00 0. -1.
          1    1    1    2  502    0  0.76886497989E+02  0.38303428177E+02  0.93864954287E+03  0.94257182778E+03  0.00000000000E+00 0. -1.
         22    1    3    3    0    0 -0.12254135938E+03  0.71964837161E+02 -0.20746758536E+03  0.25147191000E+03  0.00000000000E+00 0. -1.
         22    1    3    3    0    0 -0.15516792019E+02  0.20818913874E+02  0.16653648715E+02  0.30847074820E+02  0.00000000000E+00 0. -1.
</event>
<event>
 7    1  0.5553952E-006  0.8747141E+02  0.7818608E-02  0.1377031E+00
          2   -1    0    0  502    0  0.00000000000E+00  0.00000000000E+00  0.21161441428E+03  0.21161441428E+03  0.00000000000E+00 0. -1.
          1   -1    0    0  501    0 -0.00000000000E+00 -0.00000000000E+00 -0.56697791709E+03  0.56697791709E+03  0.00000000000E+00 0. -1.
         25    2    1    2    0    0 -0.16075444639E+02  0.39759291405E+01 -0.35002238403E+03  0.37204079682E+03  0.12499782897E+03 0.  0.
          2    1    1    2  501    0  0.38883004899E+02  0.80469691184E+02 -0.18570769471E+03  0.20609368535E+03  0.00000000000E+00 0. -1.
          1    1    1    2  502    0 -0.22807560259E+02 -0.84445620325E+02  0.18036657592E+03  0.20045784920E+03  0.00000000000E+00 0. -1.
         22    1    3    3    0    0  0.35800927456E+02 -0.39143880248E+02 -0.10149925328E+03  0.11452531678E+03  0.00000000000E+00 0. -1.
         22    1    3    3    0    0 -0.51876372095E+02  0.43119809388E+02 -0.24852313075E+03  0.25751548004E+03  0.00000000000E+00 0. -1.
</event>
<event>
 7    1  0.5553952E-006  0.4475433E+02  0.7818608E-02  0.1555506E+00
          2   -1    0    0  502    0  0.00000000000E+00  0.00000000000E+00  0.48981555349E+03  0.48981555349E+03  0.00000000000E+00 0. -1.
          1   -1    0    0  501    0 -0.00000000000E+00 -0.00000000000E+00 -0.16690633229E+03  0.16690633229E+03  0.00000000000E+00 0. -1.
         25    2    1    2    0    0  0.23436566345E+02 -0.22433260889E+02  0.25916194712E+02  0.13171715940E+03  0.12500094838E+03 0.  0.
          2    1    1    2  501    0 -0.14446432336E+02 -0.21842006329E+02 -0.11123924857E+03  0.11428010793E+03  0.00000000000E+00 0. -1.
          1    1    1    2  502    0 -0.89901340090E+01  0.44275267218E+02  0.40823227506E+03  0.41072461845E+03  0.00000000000E+00 0. -1.
         22    1    3    3    0    0  0.48969656030E+02 -0.15096962888E+02 -0.37143661225E+02  0.63289786454E+02  0.00000000000E+00 0. -1.
         22    1    3    3    0    0 -0.25533089685E+02 -0.73362980013E+01  0.63059855937E+02  0.68427372944E+02  0.00000000000E+00 0. -1.
</event>
<event>
 7    1  0.5553952E-006  0.1365086E+03  0.7818608E-02  0.1316501E+00
          2   -1    0    0  502    0  0.00000000000E+00  0.00000000000E+00  0.10345936190E+04  0.10345936190E+04  0.00000000000E+00 0. -1.
          1   -1    0    0  501    0 -0.00000000000E+00 -0.00000000000E+00 -0.43348916343E+03  0.43348916343E+03  0.00000000000E+00 0. -1.
         25    2    1    2    0    0 -0.11581143813E+03  0.90044010576E+01  0.34693281319E+03  0.38662675043E+03  0.12499799534E+03 0.  0.
          2    1    1    2  501    0  0.13109374650E+03  0.41139624774E+02 -0.40115696171E+03  0.42403413427E+03  0.00000000000E+00 0. -1.
          1    1    1    2  502    0 -0.15282308369E+02 -0.50144025832E+02  0.65532860408E+03  0.65742189772E+03  0.00000000000E+00 0. -1.
         22    1    3    3    0    0  0.98253670633E+00  0.34644235705E+02  0.16718104345E+03  0.17073573070E+03  0.00000000000E+00 0. -1.
         22    1    3    3    0    0 -0.11679397483E+03 -0.25639834648E+02  0.17975176973E+03  0.21589101973E+03  0.00000000000E+00 0. -1.
</event>
<event>
 7    1  0.5553952E-006  0.9403236E+02  0.7818608E-02  0.1354959E+00
          2   -1    0    0  502    0  0.00000000000E+00  0.00000000000E+00  0.24427961995E+04  0.24427961995E+04  0.00000000000E+00 0. -1.
          1   -1    0    0  501    0 -0.00000000000E+00 -0.00000000000E+00 -0.20141444694E+03  0.20141444694E+03  0.00000000000E+00 0. -1.
         25    2    1    2    0    0  0.35314367564E+02 -0.12423075674E+03  0.77937918930E+03  0.79983516817E+03  0.12499596016E+03 0.  0.
          2    1    1    2  501    0 -0.42555371683E+02  0.33913663392E+02 -0.18604467497E+03  0.19383941113E+03  0.00000000000E+00 0. -1.
          1    1    1    2  502    0  0.72410041186E+01  0.90317093353E+02  0.16480472383E+04  0.16505360672E+04  0.00000000000E+00 0. -1.
         22    1    3    3    0    0 -0.23871468351E+02 -0.11119341295E+02  0.31132897026E+02  0.40776758445E+02  0.00000000000E+00 0.  1.
         22    1    3    3    0    0  0.59185835915E+02 -0.11311141545E+03  0.74824629227E+03  0.75905840973E+03  0.00000000000E+00 0.  1.
</event>
<event>
 7    1  0.5553952E-006  0.1133728E+03  0.7818608E-02  0.1377524E+00
          2   -1    0    0  502    0  0.00000000000E+00  0.00000000000E+00  0.12659306908E+03  0.12659306908E+03  0.00000000000E+00 0. -1.
          1   -1    0    0  501    0 -0.00000000000E+00 -0.00000000000E+00 -0.55309499498E+03  0.55309499498E+03  0.00000000000E+00 0. -1.
         25    2    1    2    0    0 -0.40637686421E+02 -0.11817044729E+03 -0.44177454229E+03  0.47582062845E+03  0.12499939228E+03 0.  0.
          2    1    1    2  501    0  0.10023497153E+02  0.96681718266E+02 -0.63887170975E+02  0.11631593080E+03  0.00000000000E+00 0. -1.
          1    1    1    2  502    0  0.30614189268E+02  0.21488729022E+02  0.79159787368E+02  0.87551504817E+02  0.00000000000E+00 0. -1.
         22    1    3    3    0    0  0.25278649269E+02 -0.10367829335E+03 -0.30841665862E+03  0.32635721829E+03  0.00000000000E+00 0. -1.
         22    1    3    3    0    0 -0.65916335690E+02 -0.14492153939E+02 -0.13335788367E+03  0.14946341015E+03  0.00000000000E+00 0. -1.
</event>
<event>
 7    1  0.5553952E-006  0.1141992E+03  0.7818608E-02  0.1291472E+00
          2   -1    0    0  502    0  0.00000000000E+00  0.00000000000E+00  0.10389609266E+04  0.10389609266E+04  0.00000000000E+00 0. -1.
          1   -1    0    0  501    0 -0.00000000000E+00 -0.00000000000E+00 -0.13617501503E+03  0.13617501503E+03  0.00000000000E+00 0. -1.
         25    2    1    2    0    0 -0.30865640625E+02 -0.71331529693E+02  0.18842067878E+03  0.23909708110E+03  0.12499674835E+03 0.  0.
          2    1    1    2  501    0  0.62171970704E+02 -0.48433055124E+02 -0.91477026214E+02  0.12074419694E+03  0.00000000000E+00 0. -1.
          1    1    1    2  502    0 -0.31306330079E+02  0.11976458482E+03  0.80584225896E+03  0.81529466354E+03  0.00000000000E+00 0. -1.
         22    1    3    3    0    0 -0.23522379964E+02 -0.96490331153E+02  0.18830220608E+03  0.21288825045E+03  0.00000000000E+00 0. -1.
         22    1    3    3    0    0 -0.73432606618E+01  0.25158801460E+02  0.11847269525E+00  0.26208830646E+02  0.00000000000E+00 0. -1.
</event>
<event>
 7    1  0.5553952E-006  0.5248044E+03  0.7818608E-02  0.1245697E+00
          2   -1    0    0  502    0  0.00000000000E+00  0.00000000000E+00  0.96819426476E+03  0.96819426476E+03  0.00000000000E+00 0. -1.
          1   -1    0    0  501    0 -0.00000000000E+00 -0.00000000000E+00 -0.33855655489E+03  0.33855655489E+03  0.00000000000E+00 0. -1.
         25    2    1    2    0    0  0.45806188390E+03 -0.22415444927E+03  0.32754465678E+03  0.61885097370E+03  0.12500047544E+03 0.  0.
          2    1    1    2  501    0 -0.48299928410E+03  0.23377503485E+03  0.18469220799E+03  0.56749474628E+03  0.00000000000E+00 0. -1.
          1    1    1    2  502    0  0.24937400204E+02 -0.96205855871E+01  0.11740084510E+03  0.12040509966E+03  0.00000000000E+00 0. -1.
         22    1    3    3    0    0  0.18812750619E+03 -0.16004749742E+03  0.13922882341E+03  0.28353452221E+03  0.00000000000E+00 0. -1.
         22    1    3    3    0    0  0.26993437771E+03 -0.64106951845E+02  0.18831583337E+03  0.33531645149E+03  0.00000000000E+00 0. -1.
</event>
<event>
 7    1  0.5553952E-006  0.7276787E+02  0.7818608E-02  0.1478457E+00
          2   -1    0    0  502    0  0.00000000000E+00  0.00000000000E+00  0.10049864359E+04  0.10049864359E+04  0.00000000000E+00 0. -1.
          1   -1    0    0  501    0 -0.00000000000E+00 -0.00000000000E+00 -0.48742025343E+03  0.48742025343E+03  0.00000000000E+00 0. -1.
         25    2    1    2    0    0  0.12693667661E+02  0.48331101411E+02 -0.16292075743E+03  0.21134075501E+03  0.12499886785E+03 0.  0.
          2    1    1    2  501    0 -0.11200408969E+02  0.24596837013E+02 -0.29832151623E+03  0.29954328669E+03  0.00000000000E+00 0. -1.
          1    1    1    2  502    0 -0.14932586923E+01 -0.72927938424E+02  0.97880845616E+03  0.98152264767E+03  0.00000000000E+00 0. -1.
         22    1    3    3    0    0 -0.11294616860E+01  0.27565914652E+02  0.15188170111E+02  0.31493425434E+02  0.00000000000E+00 0.  1.
         22    1    3    3    0    0  0.13823129347E+02  0.20765186759E+02 -0.17810892754E+03  0.17984732958E+03  0.00000000000E+00 0.  1.
</event>
<event>
 7    1  0.5553952E-006  0.4530726E+02  0.7818608E-02  0.1512285E+00
          2   -1    0    0  502    0  0.00000000000E+00  0.00000000000E+00  0.20826163166E+03  0.20826163166E+03  0.00000000000E+00 0. -1.
          1   -1    0    0  501    0 -0.00000000000E+00 -0.00000000000E+00 -0.14264930062E+04  0.14264930062E+04  0.00000000000E+00 0. -1.
         25    2    1    2    0    0 -0.64649232975E+01 -0.31256796516E+02 -0.19426061475E+03  0.23319651126E+03  0.12499857542E+03 0.  0.
          2    1    1    2  501    0 -0.27452042204E+02  0.36713658990E+02 -0.12107643433E+04  0.12116318758E+04  0.00000000000E+00 0. -1.
          1    1    1    2  502    0  0.33916965502E+02 -0.54568624746E+01  0.18679358354E+03  0.18992625081E+03  0.00000000000E+00 0. -1.
         22    1    3    3    0    0  0.58798248456E+02 -0.77925316080E+01 -0.81108444079E+02  0.10048152701E+03  0.00000000000E+00 0. -1.
         22    1    3    3    0    0 -0.65263171753E+02 -0.23464264908E+02 -0.11315217067E+03  0.13271498424E+03  0.00000000000E+00 0. -1.
</event>
<event>
 7    1  0.5553952E-006  0.7957105E+02  0.7818608E-02  0.1468200E+00
          2   -1    0    0  502    0  0.00000000000E+00  0.00000000000E+00  0.84856112430E+03  0.84856112430E+03  0.00000000000E+00 0. -1.
          1   -1    0    0  501    0 -0.00000000000E+00 -0.00000000000E+00 -0.13839959290E+03  0.13839959290E+03  0.00000000000E+00 0. -1.
         25    2    1    2    0    0 -0.73141592182E+02 -0.32571575861E+02  0.29835633675E+03  0.33324461912E+03  0.12499948973E+03 0.  0.
          2    1    1    2  501    0 -0.67050931185E+01  0.25732130721E+02 -0.11643433044E+03  0.11943221563E+03  0.00000000000E+00 0. -1.
          1    1    1    2  502    0  0.79846685300E+02  0.68394451399E+01  0.52823952510E+03  0.53428388244E+03  0.00000000000E+00 0. -1.
         22    1    3    3    0    0 -0.15298563022E+02  0.41257834730E+02  0.44348826773E+02  0.62474581978E+02  0.00000000000E+00 0.  1.
         22    1    3    3    0    0 -0.57843029160E+02 -0.73829410590E+02  0.25400750998E+03  0.27077003714E+03  0.00000000000E+00 0.  1.
</event>
<event>
 7    1  0.5553952E-006  0.1133593E+03  0.7818608E-02  0.1341459E+00
          2   -1    0    0  502    0  0.00000000000E+00  0.00000000000E+00  0.90920938529E+03  0.90920938529E+03  0.00000000000E+00 0. -1.
          1   -1    0    0  501    0 -0.00000000000E+00 -0.00000000000E+00 -0.12348175473E+04  0.12348175473E+04  0.00000000000E+00 0. -1.
         25    2    1    2    0    0 -0.83662750317E+02  0.85091375908E+02 -0.20404205433E+03  0.26739156905E+03  0.12500037287E+03 0.  0.
          2    1    1    2  501    0  0.10655879009E+03 -0.39895549132E+02 -0.99512484223E+03  0.10016086472E+04  0.00000000000E+00 0. -1.
          1    1    1    2  502    0 -0.22896039777E+02 -0.45195826776E+02  0.87355873459E+03  0.87502671626E+03  0.00000000000E+00 0. -1.
         22    1    3    3    0    0  0.25232707534E+02 -0.64921557653E+01 -0.57543660011E+02  0.63167320850E+02  0.00000000000E+00 0. -1.
         22    1    3    3    0    0 -0.10889545785E+03  0.91583531673E+02 -0.14649839432E+03  0.20422424820E+03  0.00000000000E+00 0. -1.
</event>
<event>
 7    1  0.5553952E-006  0.4115117E+02  0.7818608E-02  0.1582048E+00
          2   -1    0    0  502    0  0.00000000000E+00  0.00000000000E+00  0.53068089282E+03  0.53068089282E+03  0.00000000000E+00 0. -1.
          1   -1    0    0  501    0 -0.00000000000E+00 -0.00000000000E+00 -0.80761253296E+03  0.80761253296E+03  0.00000000000E+00 0. -1.
         25    2    1    2    0    0  0.39086043030E+02 -0.13465197666E+02  0.67915892053E+02  0.14814170067E+03  0.12499745908E+03 0.  0.
          2    1    1    2  501    0 -0.24791702612E+02  0.32888772106E+02 -0.76660236889E+03  0.76770794697E+03  0.00000000000E+00 0. -1.
          1    1    1    2  502    0 -0.14294340417E+02 -0.19423574441E+02  0.42175483670E+03  0.42244377814E+03  0.00000000000E+00 0. -1.
         22    1    3    3    0    0  0.80465803500E+02  0.13050461885E+02  0.33443995209E+02  0.88111071403E+02  0.00000000000E+00 0.  1.
         22    1    3    3    0    0 -0.41379760470E+02 -0.26515659551E+02  0.34471896844E+02  0.60030629266E+02  0.00000000000E+00 0.  1.
</event>
<event>
 7    1  0.5553952E-006  0.6193087E+02  0.7818608E-02  0.1514942E+00
          2   -1    0    0  502    0  0.00000000000E+00  0.00000000000E+00  0.36120516966E+03  0.36120516966E+03  0.00000000000E+00 0. -1.
          1   -1    0    0  501    0 -0.00000000000E+00 -0.00000000000E+00 -0.29313124183E+03  0.29313124183E+03  0.00000000000E+00 0. -1.
         25    2    1    2    0    0  0.67664954083E+01  0.40882756620E+02  0.12101551919E+03  0.17884902679E+03  0.12500013300E+03 0.  0.
          2    1    1    2  501    0 -0.25402522405E+02 -0.57071388054E+02 -0.25977778143E+03  0.26718332134E+03  0.00000000000E+00 0. -1.
          1    1    1    2  502    0  0.18636026996E+02  0.16188631433E+02  0.20683619007E+03  0.20830406336E+03  0.00000000000E+00 0. -1.
         22    1    3    3    0    0 -0.44466532345E+02  0.61813014588E+02  0.74927925733E+02  0.10682843875E+03  0.00000000000E+00 0. -1.
         22    1    3    3    0    0  0.51233027753E+02 -0.20930257968E+02  0.46087593458E+02  0.72020588043E+02  0.00000000000E+00 0. -1.
</event>
<event>
 7    1  0.5553952E-006  0.8090329E+02  0.7818608E-02  0.1497047E+00
          2   -1    0    0  502    0  0.00000000000E+00  0.00000000000E+00  0.24265741796E+04  0.24265741796E+04  0.00000000000E+00 0. -1.
          1   -1    0    0  501    0 -0.00000000000E+00 -0.00000000000E+00 -0.56525082919E+02  0.56525082919E+02  0.00000000000E+00 0. -1.
         25    2    1    2    0    0 -0.87472416799E+02 -0.29582049248E+02  0.12401425904E+04  0.12498416868E+04  0.12499630467E+03 0.  0.
          2    1    1    2  501    0  0.10033575583E+02  0.18842788561E+02 -0.48118414622E+02  0.52641287460E+02  0.00000000000E+00 0. -1.
          1    1    1    2  502    0  0.77438841217E+02  0.10739260687E+02  0.11780249209E+04  0.11806162883E+04  0.00000000000E+00 0. -1.
         22    1    3    3    0    0 -0.62546483215E+02 -0.77383447216E+02  0.70423066232E+03  0.71122506017E+03  0.00000000000E+00 0. -1.
         22    1    3    3    0    0 -0.24925933584E+02  0.47801397969E+02  0.53591192804E+03  0.53861662658E+03  0.00000000000E+00 0. -1.
</event>
<event>
 7    1  0.5553952E-006  0.1270666E+03  0.7818608E-02  0.1280233E+00
          2   -1    0    0  502    0  0.00000000000E+00  0.00000000000E+00  0.24271007456E+04  0.24271007456E+04  0.00000000000E+00 0. -1.
          1   -1    0    0  501    0 -0.00000000000E+00 -0.00000000000E+00 -0.39200024257E+03  0.39200024257E+03  0.00000000000E+00 0. -1.
         25    2    1    2    0    0  0.49061933684E+02  0.82417214694E+02  0.23106518092E+03  0.27967125250E+03  0.12500088410E+03 0.  0.
          2    1    1    2  501    0 -0.62449752119E+02  0.47968871630E+02 -0.36147674460E+03  0.36995462029E+03  0.00000000000E+00 0. -1.
          1    1    1    2  502    0  0.13387818435E+02 -0.13038608632E+03  0.21655120667E+04  0.21694751154E+04  0.00000000000E+00 0. -1.
         22    1    3    3    0    0 -0.18524976279E+02  0.79703290473E+02  0.81348455367E+02  0.11538353630E+03  0.00000000000E+00 0.  1.
         22    1    3    3    0    0  0.67586909963E+02  0.27139242212E+01  0.14971672555E+03  0.16428771620E+03  0.00000000000E+00 0.  1.
</event>
<event>
 7    1  0.5553952E-006  0.5588742E+02  0.7818608E-02  0.1443583E+00
          2   -1    0    0  502    0  0.00000000000E+00  0.00000000000E+00  0.37278861373E+03  0.37278861373E+03  0.00000000000E+00 0. -1.
          1   -1    0    0  501    0 -0.00000000000E+00 -0.00000000000E+00 -0.74058482965E+03  0.74058482965E+03  0.00000000000E+00 0. -1.
         25    2    1    2    0    0  0.71292880736E+02  0.10174342855E+02 -0.25337856302E+03  0.29156855607E+03  0.12500133837E+03 0.  0.
          2    1    1    2  501    0 -0.33266192670E+02  0.30778909166E+02 -0.46479464558E+03  0.46699897578E+03  0.00000000000E+00 0. -1.
          1    1    1    2  502    0 -0.38026688065E+02 -0.40953252020E+02  0.35037699267E+03  0.35480591152E+03  0.00000000000E+00 0. -1.
         22    1    3    3    0    0 -0.35800941928E+02  0.98160916999E+01 -0.62064727578E+02  0.72319385427E+02  0.00000000000E+00 0. -1.
         22    1    3    3    0    0  0.10709382266E+03  0.35825115493E+00 -0.19131383545E+03  0.21924917065E+03  0.00000000000E+00 0. -1.
</event>
<event>
 7    1  0.5553952E-006  0.9676624E+02  0.7818608E-02  0.1292497E+00
          2   -1    0    0  502    0  0.00000000000E+00  0.00000000000E+00  0.12265581061E+04  0.12265581061E+04  0.00000000000E+00 0. -1.
          1   -1    0    0  501    0 -0.00000000000E+00 -0.00000000000E+00 -0.93788321756E+03  0.93788321756E+03  0.00000000000E+00 0. -1.
         25    2    1    2    0    0  0.15075809163E+03 -0.74401032619E+02  0.36928580024E+03  0.42456740837E+03  0.12498786399E+03 0.  0.
          2    1    1    2  501    0 -0.58659959413E+02  0.76519227256E+02 -0.90511673853E+03  0.91023760269E+03  0.00000000000E+00 0. -1.
          1    1    1    2  502    0 -0.92098132221E+02 -0.21181946371E+01  0.82450582681E+03  0.82963631258E+03  0.00000000000E+00 0. -1.
         22    1    3    3    0    0  0.11342914427E+03 -0.45646033296E+02  0.35479086015E+03  0.37526828479E+03  0.00000000000E+00 0.  1.
         22    1    3    3    0    0  0.37328947368E+02 -0.28754999322E+02  0.14494940093E+02  0.49299123582E+02  0.00000000000E+00 0.  1.
</event>
<event>
 7    1  0.5553952E-006  0.7100044E+02  0.7818608E-02  0.1419432E+00
          2   -1    0    0  502    0  0.00000000000E+00  0.00000000000E+00  0.13352404428E+04  0.13352404428E+04  0.00000000000E+00 0. -1.
          1   -1    0    0  501    0 -0.00000000000E+00 -0.00000000000E+00 -0.13980026116E+03  0.13980026116E+03  0.00000000000E+00 0. -1.
         25    2    1    2    0    0  0.30406835958E+02  0.13289491061E+02  0.16687480832E+03  0.21112406933E+03  0.12499993901E+03 0.  0.
          2    1    1    2  501    0 -0.72926717076E+02 -0.81916469160E+01 -0.10579096231E+03  0.12875223046E+03  0.00000000000E+00 0. -1.
          1    1    1    2  502    0  0.42519881117E+02 -0.50978441453E+01  0.11343563356E+04  0.11351644041E+04  0.00000000000E+00 0. -1.
         22    1    3    3    0    0  0.78323624568E+02  0.18239882526E+02  0.93214500305E+02  0.12311062727E+03  0.00000000000E+00 0. -1.
         22    1    3    3    0    0 -0.47916788610E+02 -0.49503914647E+01  0.73660308015E+02  0.88013442060E+02  0.00000000000E+00 0. -1.
</event>
<event>
 7    1  0.5553952E-006  0.4589969E+02  0.7818608E-02  0.1483192E+00
          2   -1    0    0  502    0  0.00000000000E+00  0.00000000000E+00  0.20084582261E+02  0.20084582261E+02  0.00000000000E+00 0. -1.
          1   -1    0    0  501    0 -0.00000000000E+00 -0.00000000000E+00 -0.35710745908E+04  0.35710745908E+04  0.00000000000E+00 0. -1.
         25    2    1    2    0    0  0.58150399600E+00 -0.15881567190E+02 -0.17608075221E+04  0.17653103285E+04  0.12499945431E+03 0.  0.
          2    1    1    2  501    0 -0.40708637944E+02 -0.77513032685E+01 -0.17769540092E+04  0.17774371512E+04  0.00000000000E+00 0. -1.
          1    1    1    2  502    0  0.40127133948E+02  0.23632870458E+02 -0.13228477301E+02  0.48411693388E+02  0.00000000000E+00 0. -1.
         22    1    3    3    0    0 -0.10561966018E+02 -0.69924298530E+02 -0.95252770610E+03  0.95514919962E+03  0.00000000000E+00 0.  1.
         22    1    3    3    0    0  0.11143470014E+02  0.54042731340E+02 -0.80827981602E+03  0.81016112886E+03  0.00000000000E+00 0.  1.
</event>
<event>
 7    1  0.5553952E-006  0.1144483E+03  0.7818608E-02  0.1318166E+00
          2   -1    0    0  502    0  0.00000000000E+00  0.00000000000E+00  0.22749862658E+04  0.22749862658E+04  0.00000000000E+00 0. -1.
          1   -1    0    0  501    0 -0.00000000000E+00 -0.00000000000E+00 -0.48732269909E+03  0.48732269909E+03  0.00000000000E+00 0. -1.
         25    2    1    2    0    0 -0.15273948894E+03  0.81121238027E+02  0.74777857661E+02  0.22611163201E+03  0.12499894157E+03 0.  0.
          2    1    1    2  501    0  0.59114350291E+02 -0.17315958533E+02 -0.40783081327E+03  0.41245644749E+03  0.00000000000E+00 0. -1.
          1    1    1    2  502    0  0.93625138648E+02 -0.63805279494E+02  0.21207165223E+04  0.21237408854E+04  0.00000000000E+00 0. -1.
         22    1    3    3    0    0 -0.17059556766E+02 -0.29424835160E+02  0.30261641487E+02  0.45525996384E+02  0.00000000000E+00 0. -1.
         22    1    3    3    0    0 -0.13567993217E+03  0.11054607319E+03  0.44516216174E+02  0.18058563562E+03  0.00000000000E+00 0. -1.
</event>
<event>
 7    1  0.5553952E-006  0.7093198E+02  0.7818608E-02  0.1487639E+00
          2   -1    0    0  502    0  0.00000000000E+00  0.00000000000E+00  0.10991052619E+04  0.10991052619E+04  0.00000000000E+00 0. -1.
          1   -1    0    0  501    0 -0.00000000000E+00 -0.00000000000E+00 -0.12158600670E+03  0.12158600670E+03  0.00000000000E+00 0. -1.
         25    2    1    2    0    0 -0.54976231853E+02  0.86869655278E+01  0.11150002521E+03  0.17651678313E+03  0.12501227806E+03 0.  0.
          2    1    1    2  501    0  0.65022460199E+02 -0.32659503287E+02 -0.74008547764E+02  0.10378742037E+03  0.00000000000E+00 0. -1.
          1    1    1    2  502    0 -0.10046228347E+02  0.23972537760E+02  0.94002777771E+03  0.94038706506E+03  0.00000000000E+00 0. -1.
         22    1    3    3    0    0 -0.22982391907E+02 -0.46661122610E+02  0.49364513711E+01  0.52247672227E+02  0.00000000000E+00 0.  1.
         22    1    3    3    0    0 -0.31993839945E+02  0.55348088137E+02  0.10656357384E+03  0.12426911090E+03  0.00000000000E+00 0.  1.
</event>
<event>
 7    1  0.5553952E-006  0.5971400E+02  0.7818608E-02  0.1486919E+00
          2   -1    0    0  502    0  0.00000000000E+00  0.00000000000E+00  0.77234437305E+02  0.77234437305E+02  0.00000000000E+00 0. -1.
          1   -1    0    0  501    0 -0.00000000000E+00 -0.00000000000E+00 -0.41533006681E+03  0.41533006681E+03  0.00000000000E+00 0. -1.
         25    2    1    2    0    0  0.56005399424E+02 -0.66980635250E+02 -0.12379500251E+03  0.19640234767E+03  0.12500267701E+03 0.  0.
          2    1    1    2  501    0 -0.20483866770E+02  0.23309900470E+02 -0.23435728785E+03  0.23640278895E+03  0.00000000000E+00 0. -1.
          1    1    1    2  502    0 -0.35521532654E+02  0.43670734780E+02  0.20056660855E+02  0.59759367491E+02  0.00000000000E+00 0. -1.
         22    1    3    3    0    0 -0.58114851438E+01  0.83950141802E+01  0.20129980611E+02  0.22571347812E+02  0.00000000000E+00 0.  1.
         22    1    3    3    0    0  0.61816884568E+02 -0.75375649430E+02 -0.14392498312E+03  0.17383099986E+03  0.00000000000E+00 0.  1.
</event>
<event>
 7    1  0.5553952E-006  0.1514079E+03  0.7818608E-02  0.1261950E+00
          2   -1    0    0  502    0  0.00000000000E+00  0.00000000000E+00  0.13018535399E+03  0.13018535399E+03  0.00000000000E+00 0. -1.
          1   -1    0    0  501    0 -0.00000000000E+00 -0.00000000000E+00 -0.83500000133E+03  0.83500000133E+03  0.00000000000E+00 0. -1.
         25    2    1    2    0    0 -0.20819638439E+03  0.44108962839E+02 -0.35739145739E+03  0.43433230450E+03  0.12499824736E+03 0.  0.
          2    1    1    2  501    0  0.13245366686E+03 -0.22218667170E+02 -0.40920896588E+03  0.43068505987E+03  0.00000000000E+00 0. -1.
          1    1    1    2  502    0  0.75742717532E+02 -0.21890295669E+02  0.61785775937E+02  0.10016799095E+03  0.00000000000E+00 0. -1.
         22    1    3    3    0    0 -0.12179024163E+03  0.26896583013E+02 -0.92808837713E+02  0.15546629696E+03  0.00000000000E+00 0. -1.
         22    1    3    3    0    0 -0.86406142761E+02  0.17212379826E+02 -0.26458261968E+03  0.27886600754E+03  0.00000000000E+00 0. -1.
</event>
<event>
 7    1  0.5553952E-006  0.4706563E+02  0.7818608E-02  0.1502878E+00
          2   -1    0    0  502    0  0.00000000000E+00  0.00000000000E+00  0.16749803369E+04  0.16749803369E+04  0.00000000000E+00 0. -1.
          1   -1    0    0  501    0 -0.00000000000E+00 -0.00000000000E+00 -0.49635950671E+03  0.49635950671E+03  0.00000000000E+00 0. -1.
         25    2    1    2    0    0 -0.43952251320E+02 -0.23201569106E+01 -0.89063448212E+02  0.15966066363E+03  0.12498818416E+03 0.  0.
          2    1    1    2  501    0  0.35508183861E+02 -0.31907978087E+02 -0.37027543089E+03  0.37334011960E+03  0.00000000000E+00 0. -1.
          1    1    1    2  502    0  0.84440674585E+01  0.34228134998E+02  0.16379597092E+04  0.16383390603E+04  0.00000000000E+00 0. -1.
         22    1    3    3    0    0 -0.49091035245E+02  0.14156822695E+02  0.15727795796E+02  0.53457543255E+02  0.00000000000E+00 0. -1.
         22    1    3    3    0    0  0.51387839249E+01 -0.16476979605E+02 -0.10479124401E+03  0.10620312038E+03  0.00000000000E+00 0. -1.
</event>
<event>
 7    1  0.5553952E-006  0.4965949E+02  0.7818608E-02  0.1453482E+00
          2   -1    0    0  502    0  0.00000000000E+00  0.00000000000E+00  0.22025839493E+03  0.22025839493E+03  0.00000000000E+00 0. -1.
          1   -1    0    0  501    0 -0.00000000000E+00 -0.00000000000E+00 -0.11283221303E+04  0.11283221303E+04  0.00000000000E+00 0. -1.
         25    2    1    2    0    0  0.34163167396E+02  0.13820003506E+01 -0.82993531256E+02  0.15388034996E+03  0.12498881527E+03 0.  0.
          2    1    1    2  501    0 -0.19336561325E+02 -0.46413910966E+02 -0.10062066042E+04  0.10074621005E+04  0.00000000000E+00 0. -1.
          1    1    1    2  502    0 -0.14826606071E+02  0.45031910616E+02  0.18113640003E+03  0.18723807476E+03  0.00000000000E+00 0. -1.
         22    1    3    3    0    0  0.62461672929E+02 -0.41265422525E+02 -0.66426227466E+02  0.10008366189E+03  0.00000000000E+00 0. -1.
         22    1    3    3    0    0 -0.28298505533E+02  0.42647422876E+02 -0.16567303790E+02  0.53796688078E+02  0.00000000000E+00 0. -1.
</event>
<event>
 7    1  0.5553952E-006  0.2093309E+03  0.7818608E-02  0.1238286E+00
          2   -1    0    0  502    0  0.00000000000E+00  0.00000000000E+00  0.23799823465E+04  0.23799823465E+04  0.00000000000E+00 0. -1.
          1   -1    0    0  501    0 -0.00000000000E+00 -0.00000000000E+00 -0.19322192129E+04  0.19322192129E+04  0.00000000000E+00 0. -1.
         25    2    1    2    0    0  0.60175030742E+02  0.12720347617E+03 -0.15924579112E+03  0.24654788310E+03  0.12499951198E+03 0.  0.
          2    1    1    2  501    0  0.48229431419E+02  0.53770143636E+02 -0.17238024511E+04  0.17253151007E+04  0.00000000000E+00 0. -1.
          1    1    1    2  502    0 -0.10840446216E+03 -0.18097361981E+03  0.23308113758E+04  0.23403385756E+04  0.00000000000E+00 0. -1.
         22    1    3    3    0    0 -0.14121059535E+02  0.22699307750E+02 -0.10320935555E+03  0.10661535521E+03  0.00000000000E+00 0.  1.
         22    1    3    3    0    0  0.74296090277E+02  0.10450416842E+03 -0.56036435570E+02  0.13993252788E+03  0.00000000000E+00 0.  1.
</event>
<event>
 7    1  0.5553952E-006  0.7734705E+02  0.7818608E-02  0.1450227E+00
          2   -1    0    0  502    0  0.00000000000E+00  0.00000000000E+00  0.87162899943E+03  0.87162899943E+03  0.00000000000E+00 0. -1.
          1   -1    0    0  501    0 -0.00000000000E+00 -0.00000000000E+00 -0.50509290577E+02  0.50509290577E+02  0.00000000000E+00 0. -1.
         25    2    1    2    0    0  0.31082572971E+02  0.85073756027E+02  0.34758230748E+03  0.38031933907E+03  0.12500267553E+03 0.  0.
          2    1    1    2  501    0 -0.11696366258E+01 -0.76290964417E+02  0.96759164605E+01  0.76911004810E+02  0.00000000000E+00 0. -1.
          1    1    1    2  502    0 -0.29912936345E+02 -0.87827916100E+01  0.46386148491E+03  0.46490794613E+03  0.00000000000E+00 0. -1.
         22    1    3    3    0    0  0.21654609533E+02  0.63760832779E+02  0.35042985466E+03  0.35684092947E+03  0.00000000000E+00 0.  1.
         22    1    3    3    0    0  0.94279634384E+01  0.21312923248E+02 -0.28475471824E+01  0.23478409591E+02  0.00000000000E+00 0.  1.
</event>
<event>
 7    1  0.5553952E-006  0.6966039E+02  0.7818608E-02  0.1404937E+00
          2   -1    0    0  502    0  0.00000000000E+00  0.00000000000E+00  0.22048415058E+04  0.22048415058E+04  0.00000000000E+00 0. -1.
          1   -1    0    0  501    0 -0.00000000000E+00 -0.00000000000E+00 -0.85707730657E+02  0.85707730657E+02  0.00000000000E+00 0. -1.
         25    2    1    2    0    0  0.55946212644E+02  0.30199028846E+02  0.59618000091E+03  0.61245148122E+03  0.12499705317E+03 0.  0.
          2    1    1    2  501    0  0.13849222528E+02 -0.46853809373E+02 -0.68989726594E+02  0.84537937004E+02  0.00000000000E+00 0. -1.
          1    1    1    2  502    0 -0.69795435172E+02  0.16654780527E+02  0.15919435009E+04  0.15935598183E+04  0.00000000000E+00 0. -1.
         22    1    3    3    0    0 -0.76382950180E+00  0.62243757546E+02  0.16448278952E+03  0.17586772540E+03  0.00000000000E+00 0. -1.
         22    1    3    3    0    0  0.56710042146E+02 -0.32044728700E+02  0.43169721140E+03  0.43658375582E+03  0.00000000000E+00 0. -1.
</event>
<event>
 7    1  0.5553952E-006  0.1017660E+03  0.7818608E-02  0.1285797E+00
          2   -1    0    0  502    0  0.00000000000E+00  0.00000000000E+00  0.21187166243E+04  0.21187166243E+04  0.00000000000E+00 0. -1.
          1   -1    0    0  501    0 -0.00000000000E+00 -0.00000000000E+00 -0.35777973154E+03  0.35777973154E+03  0.00000000000E+00 0. -1.
         25    2    1    2    0    0  0.33464284792E+02  0.17210020848E+02  0.82200885358E+02  0.15426727301E+03  0.12500145117E+03 0.  0.
          2    1    1    2  501    0 -0.31623663966E+02  0.87752581874E+02 -0.31357502728E+03  0.32715419832E+03  0.00000000000E+00 0. -1.
          1    1    1    2  502    0 -0.18406208256E+01 -0.10496260272E+03  0.19923110347E+04  0.19950748845E+04  0.00000000000E+00 0. -1.
         22    1    3    3    0    0 -0.45651372025E+02  0.19363064537E+02  0.19456990052E+02  0.53268663376E+02  0.00000000000E+00 0. -1.
         22    1    3    3    0    0  0.79115656817E+02 -0.21530436895E+01  0.62743895307E+02  0.10099860964E+03  0.00000000000E+00 0. -1.
</event>
<event>
 7    1  0.5553952E-006  0.6497569E+02  0.7818608E-02  0.1380867E+00
          2   -1    0    0  502    0  0.00000000000E+00  0.00000000000E+00  0.18005349674E+03  0.18005349674E+03  0.00000000000E+00 0. -1.
          1   -1    0    0  501    0 -0.00000000000E+00 -0.00000000000E+00 -0.54322092053E+03  0.54322092053E+03  0.00000000000E+00 0. -1.
         25    2    1    2    0    0  0.29578178731E+02  0.18842411813E+01  0.11598293647E+02  0.12899061247E+03  0.12500255464E+03 0.  0.
          2    1    1    2  501    0 -0.11473620923E+02 -0.64286684855E+02 -0.47246192233E+03  0.47695355107E+03  0.00000000000E+00 0. -1.
          1    1    1    2  502    0 -0.18104557808E+02  0.62402443673E+02  0.97696204893E+02  0.11733025373E+03  0.00000000000E+00 0. -1.
         22    1    3    3    0    0  0.52883800438E+02  0.42286341296E+02 -0.22347132329E+02  0.71303753984E+02  0.00000000000E+00 0.  1.
         22    1    3    3    0    0 -0.23305621706E+02 -0.40402100114E+02  0.33945425975E+02  0.57686858481E+02  0.00000000000E+00 0.  1.
</event>
<event>
 7    1  0.5553952E-006  0.1169824E+03  0.7818608E-02  0.1392070E+00
          2   -1    0    0  502    0  0.00000000000E+00  0.00000000000E+00  0.93294532017E+03  0.93294532017E+03  0.00000000000E+00 0. -1.
          1   -1    0    0  501    0 -0.00000000000E+00 -0.00000000000E+00 -0.57953581207E+03  0.57953581207E+03  0.00000000000E+00 0. -1.
         25    2    1    2    0    0 -0.44259640248E+02  0.82889893404E+02  0.26702388338E+03  0.30944469947E+03  0.12499847021E+03 0.  0.
          2    1    1    2  501    0 -0.26395828583E+02  0.18478681486E+02 -0.55193082940E+03  0.55287054712E+03  0.00000000000E+00 0. -1.
          1    1    1    2  502    0  0.70655468831E+02 -0.10136857489E+03  0.63831645412E+03  0.65016588564E+03  0.00000000000E+00 0. -1.
         22    1    3    3    0    0  0.97526263801E+01  0.95157985854E+02  0.12800445910E+03  0.15979767690E+03  0.00000000000E+00 0.  1.
         22    1    3    3    0    0 -0.54012266629E+02 -0.12268092450E+02  0.13901942428E+03  0.14964702257E+03  0.00000000000E+00 0.  1.
</event>
<event>
 7    1  0.5553952E-006  0.8076258E+02  0.7818608E-02  0.1372497E+00
          2   -1    0    0  502    0  0.00000000000E+00  0.00000000000E+00  0.11549624841E+04  0.11549624841E+04  0.00000000000E+00 0. -1.
          1   -1    0    0  501    0 -0.00000000000E+00 -0.00000000000E+00 -0.26194273684E+03  0.26194273684E+03  0.00000000000E+00 0. -1.
         25    2    1    2    0    0  0.87895842060E+02  0.12023423499E+02  0.25782902029E+03  0.29995169118E+03  0.12499988629E+03 0.  0.
          2    1    1    2  501    0 -0.70513803589E+02  0.39862154368E+02 -0.23318623645E+03  0.24685422564E+03  0.00000000000E+00 0. -1.
          1    1    1    2  502    0 -0.17382038471E+02 -0.51885577868E+02  0.86837696343E+03  0.87009930414E+03  0.00000000000E+00 0. -1.
         22    1    3    3    0    0  0.88850217212E+02  0.54969803893E+02  0.14111380762E+03  0.17558230873E+03  0.00000000000E+00 0.  1.
         22    1    3    3    0    0 -0.95437515157E+00 -0.42946380394E+02  0.11671521267E+03  0.12436938245E+03  0.00000000000E+00 0.  1.
</event>
<event>
 7    1  0.5553952E-006  0.1353371E+03  0.7818608E-02  0.1271309E+00
          2   -1    0    0  502    0  0.00000000000E+00  0.00000000000E+00  0.38598828331E+04  0.38598828331E+04  0.00000000000E+00 0. -1.
          1   -1    0    0  501    0 -0.00000000000E+00 -0.00000000000E+00 -0.26942584808E+02  0.26942584808E+02  0.00000000000E+00 0. -1.
         25    2    1    2    0    0 -0.32987159546E+02 -0.87891291996E+02  0.12387097409E+04  0.12485352046E+04  0.12500121223E+03 0.  0.
          2    1    1    2  501    0 -0.24956272771E+02  0.14382011694E+03  0.22821323664E+03  0.27090279246E+03  0.00000000000E+00 0. -1.
          1    1    1    2  502    0  0.57943432317E+02 -0.55928824940E+02  0.23660172708E+04  0.23673874209E+04  0.00000000000E+00 0. -1.
         22    1    3    3    0    0  0.71151327510E+01  0.21644390574E+02  0.51343526115E+03  0.51394053367E+03  0.00000000000E+00 0. -1.
         22    1    3    3    0    0 -0.40102292297E+02 -0.10953568257E+03  0.72527447974E+03  0.73459467093E+03  0.00000000000E+00 0. -1.
</event>
<event>
 7    1  0.5553952E-006  0.4692355E+02  0.7818608E-02  0.1477188E+00
          2   -1    0    0  502    0  0.00000000000E+00  0.00000000000E+00  0.49773900199E+03  0.49773900199E+03  0.00000000000E+00 0. -1.
          1   -1    0    0  501    0 -0.00000000000E+00 -0.00000000000E+00 -0.47130676690E+03  0.47130676690E+03  0.00000000000E+00 0. -1.
         25    2    1    2    0    0 -0.83187804061E+02  0.18062336400E+02 -0.14007772345E+02  0.15187692115E+03  0.12499569093E+03 0.  0.
          2    1    1    2  501    0  0.42141682708E+02  0.35534496655E+01 -0.38595128920E+03  0.38826144034E+03  0.00000000000E+00 0. -1.
          1    1    1    2  502    0  0.41046121354E+02 -0.21615786065E+02  0.42639129663E+03  0.42890740741E+03  0.00000000000E+00 0. -1.
         22    1    3    3    0    0 -0.43986960575E+01  0.61100563757E+02 -0.19153753022E+01  0.61288629296E+02  0.00000000000E+00 0.  1.
         22    1    3    3    0    0 -0.78789108004E+02 -0.43038227358E+02 -0.12092397043E+02  0.90588291850E+02  0.00000000000E+00 0.  1.
</event>
<event>
 7    1  0.5553952E-006  0.7056050E+02  0.7818608E-02  0.1455637E+00
          2   -1    0    0  502    0  0.00000000000E+00  0.00000000000E+00  0.80942640434E+03  0.80942640434E+03  0.00000000000E+00 0. -1.
          1   -1    0    0  501    0 -0.00000000000E+00 -0.00000000000E+00 -0.69332412382E+02  0.69332412382E+02  0.00000000000E+00 0. -1.
         25    2    1    2    0    0  0.82954262806E+02  0.26827206067E+02  0.12473270850E+03  0.19693487474E+03  0.12499595040E+03 0.  0.
          2    1    1    2  501    0 -0.67784820679E+02  0.23041257475E+01  0.22787227781E+01  0.67862239039E+02  0.00000000000E+00 0. -1.
          1    1    1    2  502    0 -0.15169442128E+02 -0.29131331815E+02  0.61308256069E+03  0.61396170295E+03  0.00000000000E+00 0. -1.
         22    1    3    3    0    0  0.10044907332E+03  0.57786713446E+02  0.10437219967E+03  0.15595793229E+03  0.00000000000E+00 0. -1.
         22    1    3    3    0    0 -0.17494810518E+02 -0.30959507379E+02  0.20360508831E+02  0.40976942444E+02  0.00000000000E+00 0. -1.
</event>
<event>
 7    1  0.5553952E-006  0.1082987E+03  0.7818608E-02  0.1310702E+00
          2   -1    0    0  502    0  0.00000000000E+00  0.00000000000E+00  0.11723316902E+04  0.11723316902E+04  0.00000000000E+00 0. -1.
          1   -1    0    0  501    0 -0.00000000000E+00 -0.00000000000E+00 -0.81028499185E+02  0.81028499185E+02  0.00000000000E+00 0. -1.
         25    2    1    2    0    0 -0.64302895617E+02  0.10808806348E+02  0.27857972210E+03  0.31222417705E+03  0.12500232994E+03 0.  0.
          2    1    1    2  501    0  0.90771900053E+02 -0.75206536136E+02 -0.73536469664E+01  0.11810858157E+03  0.00000000000E+00 0. -1.
          1    1    1    2  502    0 -0.26469004436E+02  0.64397729788E+02  0.82007711585E+03  0.82302743074E+03  0.00000000000E+00 0. -1.
         22    1    3    3    0    0 -0.30928187320E+02 -0.57131673659E+02  0.11814320709E+03  0.13482729059E+03  0.00000000000E+00 0.  1.
         22    1    3    3    0    0 -0.33374708298E+02  0.67940480007E+02  0.16043651500E+03  0.17739688646E+03  0.00000000000E+00 0.  1.
</event>
<event>
 7    1  0.5553952E-006  0.4596354E+02  0.7818608E-02  0.1492865E+00
          2   -1    0    0  502    0  0.00000000000E+00  0.00000000000E+00  0.41843086759E+03  0.41843086759E+03  0.00000000000E+00 0. -1.
          1   -1    0    0  501    0 -0.00000000000E+00 -0.00000000000E+00 -0.42677279431E+03  0.42677279431E+03  0.00000000000E+00 0. -1.
         25    2    1    2    0    0 -0.73623085504E+02 -0.23782345504E+02  0.16095464832E+03  0.21798435532E+03  0.12499928668E+03 0.  0.
          2    1    1    2  501    0  0.35316464021E+02  0.29133234785E+02 -0.39529378566E+03  0.39793614436E+03  0.00000000000E+00 0. -1.
          1    1    1    2  502    0  0.38306621483E+02 -0.53508892813E+01  0.22599721063E+03  0.22928316222E+03  0.00000000000E+00 0. -1.
         22    1    3    3    0    0 -0.40914304838E+02  0.50997089174E+02  0.70697085092E+02  0.96295177891E+02  0.00000000000E+00 0.  1.
         22    1    3    3    0    0 -0.32708780666E+02 -0.74779434677E+02  0.90257563227E+02  0.12168917743E+03  0.00000000000E+00 0.  1.
</event>
<event>
 7    1  0.5553952E-006  0.1337174E+03  0.7818608E-02  0.1254690E+00
          2   -1    0    0  502    0  0.00000000000E+00  0.00000000000E+00  0.20453694434E+03  0.20453694434E+03  0.00000000000E+00 0. -1.
          1   -1    0    0  501    0 -0.00000000000E+00 -0.00000000000E+00 -0.15277424961E+04  0.15277424961E+04  0.00000000000E+00 0. -1.
         25    2    1    2    0    0 -0.84428311002E+02 -0.13167313295E+02 -0.20588403504E+02  0.15280241560E+03  0.12499271185E+03 0.  0.
          2    1    1    2  501    0  0.83398006296E+02  0.10905494124E+03 -0.14207246861E+04  0.14273425802E+04  0.00000000000E+00 0. -1.
          1    1    1    2  502    0  0.10303047065E+01 -0.95887627948E+02  0.11810753788E+03  0.15213444457E+03  0.00000000000E+00 0. -1.
         22    1    3    3    0    0 -0.11363016277E+03 -0.10080127723E+01 -0.33750922120E+02  0.11854094113E+03  0.00000000000E+00 0.  1.
         22    1    3    3    0    0  0.29201851769E+02 -0.12159300523E+02  0.13162518617E+02  0.34261474461E+02  0.00000000000E+00 0.  1.
</event>
<event>
 7    1  0.5553952E-006  0.7851403E+02  0.7818608E-02  0.1361493E+00
          2   -1    0    0  502    0  0.00000000000E+00  0.00000000000E+00  0.89838928483E+03  0.89838928483E+03  0.00000000000E+00 0. -1.
          1   -1    0    0  501    0 -0.00000000000E+00 -0.00000000000E+00 -0.14284398472E+04  0.14284398472E+04  0.00000000000E+00 0. -1.
         25    2    1    2    0    0  0.14250297209E+02  0.13563520521E+03  0.19397442597E+02  0.18601411861E+03  0.12500004671E+03 0.  0.
          2    1    1    2  501    0  0.67986128599E+01 -0.61304443358E+02 -0.13425466176E+04  0.13439627511E+04  0.00000000000E+00 0. -1.
          1    1    1    2  502    0 -0.21048910069E+02 -0.74330761854E+02  0.79309861258E+03  0.79685226238E+03  0.00000000000E+00 0. -1.
         22    1    3    3    0    0 -0.32765933876E+02  0.13167010514E+03  0.19239227843E+01  0.13569939016E+03  0.00000000000E+00 0.  1.
         22    1    3    3    0    0  0.47016231085E+02  0.39651000699E+01  0.17473519813E+02  0.50314728447E+02  0.00000000000E+00 0.  1.
</event>
<event>
 7    1  0.5553952E-006  0.3183361E+03  0.7818608E-02  0.1197328E+00
          2   -1    0    0  502    0  0.00000000000E+00  0.00000000000E+00  0.28670032226E+04  0.28670032226E+04  0.00000000000E+00 0. -1.
          1   -1    0    0  501    0 -0.00000000000E+00 -0.00000000000E+00 -0.78189143985E+02  0.78189143985E+02  0.00000000000E+00 0. -1.
         25    2    1    2    0    0 -0.15555422462E+03 -0.34402939572E+03  0.60032700824E+03  0.72011726222E+03  0.12499205016E+03 0.  0.
          2    1    1    2  501    0  0.14140291735E+02  0.71760422822E+02  0.19789522440E+03  0.21097873346E+03  0.00000000000E+00 0. -1.
          1    1    1    2  502    0  0.14141393289E+03  0.27226897290E+03  0.19905918459E+04  0.20140963709E+04  0.00000000000E+00 0. -1.
         22    1    3    3    0    0 -0.13742968828E+03 -0.17016852417E+03  0.38470210566E+03  0.44253808416E+03  0.00000000000E+00 0. -1.
         22    1    3    3    0    0 -0.18124536345E+02 -0.17386087156E+03  0.21562490259E+03  0.27757917806E+03  0.00000000000E+00 0. -1.
</event>
<event>
 7    1  0.5553952E-006  0.1359422E+03  0.7818608E-02  0.1304237E+00
          2   -1    0    0  502    0  0.00000000000E+00  0.00000000000E+00  0.11508738936E+04  0.11508738936E+04  0.00000000000E+00 0. -1.
          1   -1    0    0  501    0 -0.00000000000E+00 -0.00000000000E+00 -0.10613015509E+04  0.10613015509E+04  0.00000000000E+00 0. -1.
         25    2    1    2    0    0  0.31237161556E+02 -0.14693213787E+03  0.78426382458E+02  0.21057154632E+03  0.12499946100E+03 0.  0.
          2    1    1    2  501    0 -0.57211437547E+02  0.13714788167E+02 -0.98977530620E+03  0.99152226438E+03  0.00000000000E+00 0. -1.
          1    1    1    2  502    0  0.25974275991E+02  0.13321734971E+03  0.10009212664E+04  0.10100816338E+04  0.00000000000E+00 0. -1.
         22    1    3    3    0    0  0.50278597182E+02 -0.36375828745E+01  0.14056161796E+02  0.52333020439E+02  0.00000000000E+00 0. -1.
         22    1    3    3    0    0 -0.19041435626E+02 -0.14329455500E+03  0.64370220663E+02  0.15823852588E+03  0.00000000000E+00 0. -1.
</event>
<event>
 7    1  0.5553952E-006  0.1100741E+03  0.7818608E-02  0.1273269E+00
          2   -1    0    0  502    0  0.00000000000E+00  0.00000000000E+00  0.29747691719E+04  0.29747691719E+04  0.00000000000E+00 0. -1.
          1   -1    0    0  501    0 -0.00000000000E+00 -0.00000000000E+00 -0.21340560232E+03  0.21340560232E+03  0.00000000000E+00 0. -1.
         25    2    1    2    0    0 -0.84169681944E+02  0.68687694920E+02  0.16539233931E+04  0.16621943973E+04  0.12500035696E+03 0.  0.
          2    1    1    2  501    0 -0.42674250261E+02 -0.87290362769E+02 -0.19467180696E+03  0.21757254306E+03  0.00000000000E+00 0. -1.
          1    1    1    2  502    0  0.12684393221E+03  0.18602667849E+02  0.13021119834E+04  0.13084078339E+04  0.00000000000E+00 0. -1.
         22    1    3    3    0    0 -0.87894449995E+02  0.94055492506E+02  0.15423459018E+04  0.15477088715E+04  0.00000000000E+00 0. -1.
         22    1    3    3    0    0  0.37247680504E+01 -0.25367797586E+02  0.11157749128E+03  0.11448552577E+03  0.00000000000E+00 0. -1.
</event>
<event>
 7    1  0.5553952E-006  0.4981312E+02  0.7818608E-02  0.1456317E+00
          2   -1    0    0  502    0  0.00000000000E+00  0.00000000000E+00  0.54074050303E+02  0.54074050303E+02  0.00000000000E+00 0. -1.
          1   -1    0    0  501    0 -0.00000000000E+00 -0.00000000000E+00 -0.43269542793E+03  0.43269542793E+03  0.00000000000E+00 0. -1.
         25    2    1    2    0    0  0.31672732486E+02  0.70444958378E+02 -0.13768349500E+03  0.20136378374E+03  0.12499989784E+03 0.  0.
          2    1    1    2  501    0 -0.41563542087E+02 -0.25220476248E+02 -0.23351341290E+03  0.23852067930E+03  0.00000000000E+00 0. -1.
          1    1    1    2  502    0  0.98908096016E+01 -0.45224482131E+02 -0.74244697250E+01  0.46885015189E+02  0.00000000000E+00 0. -1.
         22    1    3    3    0    0 -0.44952864913E+02  0.46324444618E+02 -0.44868110889E+02  0.78612095811E+02  0.00000000000E+00 0. -1.
         22    1    3    3    0    0  0.76625597398E+02  0.24120513760E+02 -0.92815384112E+02  0.12275168793E+03  0.00000000000E+00 0. -1.
</event>
<event>
 7    1  0.5553952E-006  0.4085477E+02  0.7818608E-02  0.1546564E+00
          2   -1    0    0  502    0  0.00000000000E+00  0.00000000000E+00  0.27762832321E+03  0.27762832321E+03  0.00000000000E+00 0. -1.
          1   -1    0    0  501    0 -0.00000000000E+00 -0.00000000000E+00 -0.22755512243E+04  0.22755512243E+04  0.00000000000E+00 0. -1.
         25    2    1    2    0    0  0.32220769513E+02  0.38117515974E+02  0.47910242606E+02  0.14286501209E+03  0.12499558920E+03 0.  0.
          2    1    1    2  501    0  0.77244894700E+01 -0.29381888706E+02 -0.22256752861E+04  0.22258826210E+04  0.00000000000E+00 0. -1.
          1    1    1    2  502    0 -0.39945258983E+02 -0.87356272688E+01  0.17984214239E+03  0.18443191448E+03  0.00000000000E+00 0. -1.
         22    1    3    3    0    0  0.64966318216E+02  0.22868246788E+02 -0.14845837743E+02  0.70455504483E+02  0.00000000000E+00 0.  1.
         22    1    3    3    0    0 -0.32745548703E+02  0.15249269186E+02  0.62756080349E+02  0.72409507603E+02  0.00000000000E+00 0.  1.
</event>
<event>
 7    1  0.5553952E-006  0.5960485E+02  0.7818608E-02  0.1465031E+00
          2   -1    0    0  502    0  0.00000000000E+00  0.00000000000E+00  0.27313317396E+04  0.27313317396E+04  0.00000000000E+00 0. -1.
          1   -1    0    0  501    0 -0.00000000000E+00 -0.00000000000E+00 -0.34431423346E+03  0.34431423346E+03  0.00000000000E+00 0. -1.
         25    2    1    2    0    0 -0.74300664538E+02  0.59262515604E+02  0.20268385723E+03  0.25639344710E+03  0.12499687687E+03 0.  0.
          2    1    1    2  501    0  0.30907323841E+02 -0.19071122067E+02 -0.31606987332E+03  0.31814954845E+03  0.00000000000E+00 0. -1.
          1    1    1    2  502    0  0.43393340697E+02 -0.40191393536E+02  0.25004035222E+04  0.25011029775E+04  0.00000000000E+00 0. -1.
         22    1    3    3    0    0 -0.92365232497E+02  0.28979062051E+02  0.19854740762E+03  0.22088955450E+03  0.00000000000E+00 0.  1.
         22    1    3    3    0    0  0.18064567959E+02  0.30283453553E+02  0.41364496054E+01  0.35503892603E+02  0.00000000000E+00 0.  1.
</event>
<event>
 7    1  0.5553952E-006  0.7235238E+02  0.7818608E-02  0.1426753E+00
          2   -1    0    0  502    0  0.00000000000E+00  0.00000000000E+00  0.12927659063E+04  0.12927659063E+04  0.00000000000E+00 0. -1.
          1   -1    0    0  501    0 -0.00000000000E+00 -0.00000000000E+00 -0.58237045209E+03  0.58237045209E+03  0.00000000000E+00 0. -1.
         25    2    1    2    0    0 -0.51587985621E+02 -0.82272902689E+02  0.11517800206E+03  0.19577557905E+03  0.12502781457E+03 0.  0.
          2    1    1    2  501    0 -0.59610337685E+01  0.39283770867E+02 -0.54020703258E+03  0.54166630560E+03  0.00000000000E+00 0. -1.
          1    1    1    2  502    0  0.57549019389E+02  0.42989131822E+02  0.11354244847E+04  0.11376944737E+04  0.00000000000E+00 0. -1.
         22    1    3    3    0    0 -0.38278579167E+02 -0.63389515749E+02  0.14213828789E+03  0.16027093690E+03  0.00000000000E+00 0. -1.
         22    1    3    3    0    0 -0.13309406454E+02 -0.18883386940E+02 -0.26960285826E+02  0.35504642151E+02  0.00000000000E+00 0. -1.
</event>
<event>
 7    1  0.5553952E-006  0.1019872E+03  0.7818608E-02  0.1448639E+00
          2   -1    0    0  502    0  0.00000000000E+00  0.00000000000E+00  0.11642233706E+03  0.11642233706E+03  0.00000000000E+00 0. -1.
          1   -1    0    0  501    0 -0.00000000000E+00 -0.00000000000E+00 -0.51580910745E+03  0.51580910745E+03  0.00000000000E+00 0. -1.
         25    2    1    2    0    0 -0.57780488438E+02  0.89131470598E+02 -0.16640581047E+03  0.23366413711E+03  0.12500012527E+03 0.  0.
          2    1    1    2  501    0  0.23039246167E+02  0.64386968657E+01 -0.28385588783E+03  0.28486212232E+03  0.00000000000E+00 0. -1.
          1    1    1    2  502    0  0.34741242271E+02 -0.95570167464E+02  0.50874927913E+02  0.11370518508E+03  0.00000000000E+00 0. -1.
         22    1    3    3    0    0 -0.39770144898E+02  0.11658595441E+03 -0.15690562347E+03  0.19948264052E+03  0.00000000000E+00 0. -1.
         22    1    3    3    0    0 -0.18010343540E+02 -0.27454483815E+02 -0.95001869998E+01  0.34181496588E+02  0.00000000000E+00 0. -1.
</event>
<event>
 7    1  0.6290379E-006  0.7351212E+02  0.7818608E-02  0.1480891E+00
          2   -1    0    0  502    0  0.00000000000E+00  0.00000000000E+00  0.10553526297E+04  0.10553526297E+04  0.00000000000E+00 0. -1.
          1   -1    0    0  501    0 -0.00000000000E+00 -0.00000000000E+00 -0.12953534227E+04  0.12953534227E+04  0.00000000000E+00 0. -1.
         25    2    1    2    0    0  0.42377639052E+02 -0.29470082200E+02 -0.23471456985E+03  0.27088999163E+03  0.12500443284E+03 0.  0.
          2    1    1    2  501    0  0.26170042203E+02  0.25820266578E+01 -0.10410781539E+04  0.10414102268E+04  0.00000000000E+00 0. -1.
          1    1    1    2  502    0 -0.68547681255E+02  0.26888055542E+02  0.10357919308E+04  0.10384058339E+04  0.00000000000E+00 0. -1.
         22    1    3    3    0    0  0.10594381263E+01 -0.74218012429E+02 -0.12346074686E+03  0.14405551636E+03  0.00000000000E+00 0.  1.
         22    1    3    3    0    0  0.41318200926E+02  0.44747930229E+02 -0.11125382299E+03  0.12683447528E+03  0.00000000000E+00 0.  1.
</event>
<event>
 7    1  0.5553952E-006  0.3045365E+02  0.7818608E-02  0.1600741E+00
          2   -1    0    0  502    0  0.00000000000E+00  0.00000000000E+00  0.33972478582E+03  0.33972478582E+03  0.00000000000E+00 0. -1.
          1   -1    0    0  501    0 -0.00000000000E+00 -0.00000000000E+00 -0.24414110158E+04  0.24414110158E+04  0.00000000000E+00 0. -1.
         25    2    1    2    0    0 -0.23258537871E+02 -0.48932520204E+02 -0.28760106630E+03  0.31823584469E+03  0.12499731354E+03 0.  0.
          2    1    1    2  501    0  0.22110812732E+00  0.29084030708E+02 -0.21376808207E+04  0.21378786731E+04  0.00000000000E+00 0. -1.
          1    1    1    2  502    0  0.23037429744E+02  0.19848489497E+02  0.32359565702E+03  0.32502128383E+03  0.00000000000E+00 0. -1.
         22    1    3    3    0    0  0.33111586439E+02  0.87020366205E+01 -0.18298751270E+03  0.18616265040E+03  0.00000000000E+00 0. -1.
         22    1    3    3    0    0 -0.56370124310E+02 -0.57634556825E+02 -0.10461355359E+03  0.13207319429E+03  0.00000000000E+00 0. -1.
</event>
<event>
 7    1  0.5553952E-006  0.1008928E+03  0.7818608E-02  0.1361311E+00
          2   -1    0    0  502    0  0.00000000000E+00  0.00000000000E+00  0.15499682775E+04  0.15499682775E+04  0.00000000000E+00 0. -1.
          1   -1    0    0  501    0 -0.00000000000E+00 -0.00000000000E+00 -0.10881266730E+03  0.10881266730E+03  0.00000000000E+00 0. -1.
         25    2    1    2    0    0  0.22748307464E+02  0.10777477155E+03  0.49131734384E+03  0.51879721863E+03  0.12499973930E+03 0.  0.
          2    1    1    2  501    0  0.39060208325E+02 -0.28022420835E+02 -0.86384734489E+02  0.98859892255E+02  0.00000000000E+00 0. -1.
          1    1    1    2  502    0 -0.61808515790E+02 -0.79752350714E+02  0.10362230008E+04  0.10411238339E+04  0.00000000000E+00 0. -1.
         22    1    3    3    0    0  0.28221409453E+02  0.21984214717E+02  0.22717222945E+02  0.42377185685E+02  0.00000000000E+00 0.  1.
         22    1    3    3    0    0 -0.54731019890E+01  0.85790556832E+02  0.46860012090E+03  0.47642003295E+03  0.00000000000E+00 0.  1.
</event>
<event>
 7    1  0.5553952E-006  0.7368443E+02  0.7818608E-02  0.1381235E+00
          2   -1    0    0  502    0  0.00000000000E+00  0.00000000000E+00  0.10200644264E+04  0.10200644264E+04  0.00000000000E+00 0. -1.
          1   -1    0    0  501    0 -0.00000000000E+00 -0.00000000000E+00 -0.27641192339E+03  0.27641192339E+03  0.00000000000E+00 0. -1.
         25    2    1    2    0    0 -0.84852855733E+02  0.71130298703E+02  0.44985617169E+03  0.47984875015E+03  0.12499888519E+03 0.  0.
          2    1    1    2  501    0  0.71419380716E+02 -0.16938341222E+02 -0.25481835160E+03  0.26517923685E+03  0.00000000000E+00 0. -1.
          1    1    1    2  502    0  0.13433475017E+02 -0.54191957481E+02  0.54861468290E+03  0.55144836277E+03  0.00000000000E+00 0. -1.
         22    1    3    3    0    0 -0.62242686850E+02 -0.91540692745E+01  0.31547717669E+03  0.32168897721E+03  0.00000000000E+00 0. -1.
         22    1    3    3    0    0 -0.22610168883E+02  0.80284367978E+02  0.13437899500E+03  0.15815977294E+03  0.00000000000E+00 0. -1.
</event>
<event>
 7    1  0.5844557E-006  0.5709558E+02  0.7818608E-02  0.1451811E+00
          2   -1    0    0  502    0  0.00000000000E+00  0.00000000000E+00  0.12620679455E+04  0.12620679455E+04  0.00000000000E+00 0. -1.
          1   -1    0    0  501    0 -0.00000000000E+00 -0.00000000000E+00 -0.67338493201E+03  0.67338493201E+03  0.00000000000E+00 0. -1.
         25    2    1    2    0    0 -0.88324687314E+02  0.26891930642E+02 -0.12748831309E+03  0.20100092640E+03  0.12499470436E+03 0.  0.
          2    1    1    2  501    0  0.55767134306E+02 -0.76576684615E+00 -0.50725590459E+03  0.51031275941E+03  0.00000000000E+00 0. -1.
          1    1    1    2  502    0  0.32557553008E+02 -0.26126163796E+02  0.12234272312E+04  0.12241391917E+04  0.00000000000E+00 0. -1.
         22    1    3    3    0    0 -0.63709876809E+02 -0.40185524396E+02 -0.98242994653E+02  0.12379624700E+03  0.00000000000E+00 0.  1.
         22    1    3    3    0    0 -0.24614810505E+02  0.67077455039E+02 -0.29245318438E+02  0.77204679400E+02  0.00000000000E+00 0.  1.
</event>
<event>
 7    1  0.5553952E-006  0.8864158E+02  0.7818608E-02  0.1310493E+00
          2   -1    0    0  502    0  0.00000000000E+00  0.00000000000E+00  0.24580054575E+03  0.24580054575E+03  0.00000000000E+00 0. -1.
          1   -1    0    0  501    0 -0.00000000000E+00 -0.00000000000E+00 -0.32351699068E+03  0.32351699068E+03  0.00000000000E+00 0. -1.
         25    2    1    2    0    0  0.52961192105E+02 -0.28421771964E+02 -0.46986180195E+02  0.14645466023E+03  0.12501432471E+03 0.  0.
          2    1    1    2  501    0  0.27586076790E+02  0.80639028672E+02 -0.20605208428E+03  0.22298229977E+03  0.00000000000E+00 0. -1.
          1    1    1    2  502    0 -0.80547268896E+02 -0.52217256708E+02  0.17532181954E+03  0.19988057643E+03  0.00000000000E+00 0. -1.
         22    1    3    3    0    0  0.31692150919E+02  0.11819303847E+02  0.37491966886E+02  0.50494910182E+02  0.00000000000E+00 0. -1.
         22    1    3    3    0    0  0.21269041186E+02 -0.40241075810E+02 -0.84478147081E+02  0.95959750049E+02  0.00000000000E+00 0. -1.
</event>
<event>
 7    1  0.5553952E-006  0.1468537E+03  0.7818608E-02  0.1266674E+00
          2   -1    0    0  502    0  0.00000000000E+00  0.00000000000E+00  0.88186518088E+03  0.88186518088E+03  0.00000000000E+00 0. -1.
          1   -1    0    0  501    0 -0.00000000000E+00 -0.00000000000E+00 -0.57676454966E+03  0.57676454966E+03  0.00000000000E+00 0. -1.
         25    2    1    2    0    0  0.10396214681E+03  0.82989329385E+02  0.43109949947E+02  0.18756544908E+03  0.12500789233E+03 0.  0.
          2    1    1    2  501    0 -0.14863736093E+03 -0.19508966846E+02 -0.49136249313E+03  0.51372245864E+03  0.00000000000E+00 0. -1.
          1    1    1    2  502    0  0.44675214122E+02 -0.63480362540E+02  0.75335317441E+03  0.75734182281E+03  0.00000000000E+00 0. -1.
         22    1    3    3    0    0  0.40103180166E+02  0.89703666840E+02  0.67137566756E+02  0.11900615856E+03  0.00000000000E+00 0.  1.
         22    1    3    3    0    0  0.63858966645E+02 -0.67143374553E+01 -0.24027616809E+02  0.68559290530E+02  0.00000000000E+00 0.  1.
</event>
<event>
 7    1  0.5553952E-006  0.9641333E+02  0.7818608E-02  0.1373490E+00
          2   -1    0    0  502    0  0.00000000000E+00  0.00000000000E+00  0.66822429778E+03  0.66822429778E+03  0.00000000000E+00 0. -1.
          1   -1    0    0  501    0 -0.00000000000E+00 -0.00000000000E+00 -0.21092083997E+04  0.21092083997E+04  0.00000000000E+00 0. -1.
         25    2    1    2    0    0 -0.53361002228E+02 -0.11702644298E+03  0.26425020094E+02  0.18128856131E+03  0.12499870344E+03 0.  0.
          2    1    1    2  501    0  0.13498647778E+02  0.95164839597E+02 -0.20297219091E+04  0.20319964538E+04  0.00000000000E+00 0. -1.
          1    1    1    2  502    0  0.39862354450E+02  0.21861603381E+02  0.56231278706E+03  0.56414768234E+03  0.00000000000E+00 0. -1.
         22    1    3    3    0    0 -0.28533507595E+02 -0.94854037987E+02  0.73705128872E+02  0.12346617189E+03  0.00000000000E+00 0. -1.
         22    1    3    3    0    0 -0.24827494633E+02 -0.22172404991E+02 -0.47280108778E+02  0.57822389426E+02  0.00000000000E+00 0. -1.
</event>
<event>
 7    1  0.5553952E-006  0.4284602E+02  0.7818608E-02  0.1517486E+00
          2   -1    0    0  502    0  0.00000000000E+00  0.00000000000E+00  0.12876839266E+04  0.12876839266E+04  0.00000000000E+00 0. -1.
          1   -1    0    0  501    0 -0.00000000000E+00 -0.00000000000E+00 -0.39318723439E+02  0.39318723439E+02  0.00000000000E+00 0. -1.
         25    2    1    2    0    0  0.66378630167E+02 -0.37095961039E+02  0.35704483754E+03  0.38585936461E+03  0.12499680147E+03 0.  0.
          2    1    1    2  501    0 -0.32915353964E+02  0.12121562390E+02 -0.11838046310E+02  0.37020158586E+02  0.00000000000E+00 0. -1.
          1    1    1    2  502    0 -0.33463276203E+02  0.24974398649E+02  0.90315841198E+03  0.90412312689E+03  0.00000000000E+00 0. -1.
         22    1    3    3    0    0  0.10384800294E+03 -0.25672535262E+02  0.26923076432E+03  0.28970448951E+03  0.00000000000E+00 0. -1.
         22    1    3    3    0    0 -0.37469372771E+02 -0.11423425776E+02  0.87814073214E+02  0.96154875106E+02  0.00000000000E+00 0. -1.
</event>
<event>
 7    1  0.5553952E-006  0.6300012E+02  0.7818608E-02  0.1452239E+00
          2   -1    0    0  502    0  0.00000000000E+00  0.00000000000E+00  0.94015726634E+03  0.94015726634E+03  0.00000000000E+00 0. -1.
          1   -1    0    0  501    0 -0.00000000000E+00 -0.00000000000E+00 -0.86274758818E+03  0.86274758818E+03  0.00000000000E+00 0. -1.
         25    2    1    2    0    0  0.29062433672E+02 -0.37204141036E+02 -0.35379926675E+02  0.13817391025E+03  0.12494605677E+03 0.  0.
          2    1    1    2  501    0 -0.61187723731E+02  0.17449393296E+02 -0.77426502430E+03  0.77687498783E+03  0.00000000000E+00 0. -1.
          1    1    1    2  502    0  0.32125290059E+02  0.19754747740E+02  0.88705462914E+03  0.88785595644E+03  0.00000000000E+00 0. -1.
         22    1    3    3    0    0 -0.17699022350E+02 -0.67457842994E+02 -0.43042943244E+02  0.81954322257E+02  0.00000000000E+00 0. -1.
         22    1    3    3    0    0  0.46761456023E+02  0.30253701958E+02  0.76630165692E+01  0.56219587996E+02  0.00000000000E+00 0. -1.
</event>
<event>
 7    1  0.5553952E-006  0.6208702E+02  0.7818608E-02  0.1480417E+00
          2   -1    0    0  502    0  0.00000000000E+00  0.00000000000E+00  0.16832624902E+04  0.16832624902E+04  0.00000000000E+00 0. -1.
          1   -1    0    0  501    0 -0.00000000000E+00 -0.00000000000E+00 -0.19606038051E+02  0.19606038051E+02  0.00000000000E+00 0. -1.
         25    2    1    2    0    0 -0.67619277660E+02  0.84221753661E+01  0.30346295908E+03  0.33519900777E+03  0.12500123010E+03 0.  0.
          2    1    1    2  501    0  0.92814909727E+01 -0.29830092698E+02  0.78752972047E+02  0.84723143894E+02  0.00000000000E+00 0. -1.
          1    1    1    2  502    0  0.58337786688E+02  0.21407917332E+02  0.12814405210E+04  0.12829463766E+04  0.00000000000E+00 0. -1.
         22    1    3    3    0    0 -0.45552818970E+02 -0.43066931150E+02  0.65234711050E+02  0.90473130820E+02  0.00000000000E+00 0.  1.
         22    1    3    3    0    0 -0.22066458691E+02  0.51489106516E+02  0.23822824803E+03  0.24472587695E+03  0.00000000000E+00 0.  1.
</event>
<event>
 7    1  0.5553952E-006  0.1212445E+03  0.7818608E-02  0.1315773E+00
          2   -1    0    0  502    0  0.00000000000E+00  0.00000000000E+00  0.62120211877E+03  0.62120211877E+03  0.00000000000E+00 0. -1.
          1   -1    0    0  501    0 -0.00000000000E+00 -0.00000000000E+00 -0.11825418081E+04  0.11825418081E+04  0.00000000000E+00 0. -1.
         25    2    1    2    0    0  0.69363715169E+02  0.78423526130E+02 -0.43446946406E+03  0.46405301009E+03  0.12497962449E+03 0.  0.
          2    1    1    2  501    0  0.45459102200E+02 -0.38246407645E+02 -0.72595410823E+03  0.72838086529E+03  0.00000000000E+00 0. -1.
          1    1    1    2  502    0 -0.11482281737E+03 -0.40177118485E+02  0.59908388296E+03  0.61131005150E+03  0.00000000000E+00 0. -1.
         22    1    3    3    0    0  0.64587132379E+01  0.84062273513E+02 -0.34084674008E+03  0.35111918351E+03  0.00000000000E+00 0.  1.
         22    1    3    3    0    0  0.62905001931E+02 -0.56387473830E+01 -0.93622723975E+02  0.11293382657E+03  0.00000000000E+00 0.  1.
</event>
<event>
 7    1  0.5553952E-006  0.3731225E+02  0.7818608E-02  0.1627334E+00
          2   -1    0    0  502    0  0.00000000000E+00  0.00000000000E+00  0.33838069203E+03  0.33838069203E+03  0.00000000000E+00 0. -1.
          1   -1    0    0  501    0 -0.00000000000E+00 -0.00000000000E+00 -0.95439693683E+02  0.95439693683E+02  0.00000000000E+00 0. -1.
         25    2    1    2    0    0  0.15763152818E+02 -0.94859531429E+01  0.55162382197E+02  0.13786239312E+03  0.12499876292E+03 0.  0.
          2    1    1    2  501    0 -0.32796722552E+02  0.20503994235E+02 -0.46680618063E+02  0.60622758866E+02  0.00000000000E+00 0. -1.
          1    1    1    2  502    0  0.17033569735E+02 -0.11018041092E+02  0.23445923421E+03  0.23533523373E+03  0.00000000000E+00 0. -1.
         22    1    3    3    0    0  0.55654080358E+02 -0.45254934138E+02  0.22797519116E+02  0.75266942293E+02  0.00000000000E+00 0.  1.
         22    1    3    3    0    0 -0.39890927541E+02  0.35768980995E+02  0.32364863081E+02  0.62595450823E+02  0.00000000000E+00 0.  1.
</event>
<event>
 7    1  0.5553952E-006  0.5929841E+02  0.7818608E-02  0.1456635E+00
          2   -1    0    0  502    0  0.00000000000E+00  0.00000000000E+00  0.13706763820E+04  0.13706763820E+04  0.00000000000E+00 0. -1.
          1   -1    0    0  501    0 -0.00000000000E+00 -0.00000000000E+00 -0.18429175184E+04  0.18429175184E+04  0.00000000000E+00 0. -1.
         25    2    1    2    0    0 -0.51389236206E+02  0.59259582788E+02  0.72875136800E+02  0.16458491227E+03  0.12499942414E+03 0.  0.
          2    1    1    2  501    0  0.12614828270E+02 -0.57900670080E+02 -0.17962733169E+04  0.17972505253E+04  0.00000000000E+00 0. -1.
          1    1    1    2  502    0  0.38774407936E+02 -0.13589127086E+01  0.12511570437E+04  0.12517584629E+04  0.00000000000E+00 0. -1.
         22    1    3    3    0    0 -0.58595900791E+02 -0.21831127251E+02  0.49883516824E+02  0.79990267891E+02  0.00000000000E+00 0.  1.
         22    1    3    3    0    0  0.72066645852E+01  0.81090710039E+02  0.22991619976E+02  0.84594644382E+02  0.00000000000E+00 0.  1.
</event>
<event>
 7    1  0.5553952E-006  0.1734977E+03  0.7818608E-02  0.1235618E+00
          2   -1    0    0  502    0  0.00000000000E+00  0.00000000000E+00  0.12084521320E+04  0.12084521320E+04  0.00000000000E+00 0. -1.
          1   -1    0    0  501    0 -0.00000000000E+00 -0.00000000000E+00 -0.27677208390E+03  0.27677208390E+03  0.00000000000E+00 0. -1.
         25    2    1    2    0    0 -0.59408578393E+02  0.78537784809E+02  0.13912455709E+02  0.15973863452E+03  0.12500124841E+03 0.  0.
          2    1    1    2  501    0 -0.82809856708E+02  0.34095728257E+02 -0.18624992121E+03  0.20666161763E+03  0.00000000000E+00 0. -1.
          1    1    1    2  502    0  0.14221843510E+03 -0.11263351307E+03  0.11040175135E+04  0.11188239637E+04  0.00000000000E+00 0. -1.
         22    1    3    3    0    0 -0.69684030820E+02  0.52675090977E+02 -0.42269102856E+02  0.97042291899E+02  0.00000000000E+00 0.  1.
         22    1    3    3    0    0  0.10275452427E+02  0.25862693832E+02  0.56181558565E+02  0.62696342618E+02  0.00000000000E+00 0.  1.
</event>
<event>
 7    1  0.5553952E-006  0.8346214E+02  0.7818608E-02  0.1348995E+00
          2   -1    0    0  502    0  0.00000000000E+00  0.00000000000E+00  0.19097900953E+04  0.19097900953E+04  0.00000000000E+00 0. -1.
          1   -1    0    0  501    0 -0.00000000000E+00 -0.00000000000E+00 -0.34271924684E+03  0.34271924684E+03  0.00000000000E+00 0. -1.
         25    2    1    2    0    0  0.69058417464E+02 -0.89355188974E+02  0.47729753625E+02  0.17509161846E+03  0.12500212260E+03 0.  0.
          2    1    1    2  501    0 -0.64200348255E+02  0.61886399321E+01 -0.27433147721E+03  0.28181153874E+03  0.00000000000E+00 0. -1.
          1    1    1    2  502    0 -0.48580692084E+01  0.83166549041E+02  0.17936725720E+04  0.17956061849E+04  0.00000000000E+00 0. -1.
         22    1    3    3    0    0  0.57794215907E+02 -0.32079751881E+02 -0.34255132048E+02  0.74449284379E+02  0.00000000000E+00 0.  1.
         22    1    3    3    0    0  0.11264201557E+02 -0.57275437093E+02  0.81984885673E+02  0.10064233408E+03  0.00000000000E+00 0.  1.
</event>
<event>
 7    1  0.5553952E-006  0.1132403E+03  0.7818608E-02  0.1291750E+00
          2   -1    0    0  502    0  0.00000000000E+00  0.00000000000E+00  0.16086103584E+04  0.16086103584E+04  0.00000000000E+00 0. -1.
          1   -1    0    0  501    0 -0.00000000000E+00 -0.00000000000E+00 -0.10440395996E+04  0.10440395996E+04  0.00000000000E+00 0. -1.
         25    2    1    2    0    0  0.24643839457E+02 -0.31205118355E+02  0.24808254478E+03  0.28062542957E+03  0.12499841785E+03 0.  0.
          2    1    1    2  501    0 -0.10054845213E+03  0.54063909391E+02 -0.10234228976E+04  0.10297705205E+04  0.00000000000E+00 0. -1.
          1    1    1    2  502    0  0.75904612672E+02 -0.22858791035E+02  0.13399111116E+04  0.13422540079E+04  0.00000000000E+00 0. -1.
         22    1    3    3    0    0 -0.28965369538E+01 -0.75091338430E+02  0.11069357512E+03  0.13379150424E+03  0.00000000000E+00 0. -1.
         22    1    3    3    0    0  0.27540376411E+02  0.43886220075E+02  0.13738896966E+03  0.14683392533E+03  0.00000000000E+00 0. -1.
</event>
<event>
 7    1  0.5553952E-006  0.6323471E+02  0.7818608E-02  0.1490665E+00
          2   -1    0    0  502    0  0.00000000000E+00  0.00000000000E+00  0.27057500558E+04  0.27057500558E+04  0.00000000000E+00 0. -1.
          1   -1    0    0  501    0 -0.00000000000E+00 -0.00000000000E+00 -0.11489712159E+02  0.11489712159E+02  0.00000000000E+00 0. -1.
         25    2    1    2    0    0 -0.45127257938E+02 -0.60100232266E+02  0.60457134696E+03  0.62191637695E+03  0.12499983615E+03 0.  0.
          2    1    1    2  501    0  0.16871351504E+02  0.56030089166E+02  0.31404690917E+03  0.31945183448E+03  0.00000000000E+00 0. -1.
          1    1    1    2  502    0  0.28255906433E+02  0.40701431007E+01  0.17756420876E+04  0.17758715566E+04  0.00000000000E+00 0. -1.
         22    1    3    3    0    0 -0.12780126169E+02 -0.95038536676E+02  0.45316597671E+03  0.46320088248E+03  0.00000000000E+00 0. -1.
         22    1    3    3    0    0 -0.32347131769E+02  0.34938304410E+02  0.15140537024E+03  0.15871549448E+03  0.00000000000E+00 0. -1.
</event>
<event>
 7    1  0.5553952E-006  0.1206177E+03  0.7818608E-02  0.1359102E+00
          2   -1    0    0  502    0  0.00000000000E+00  0.00000000000E+00  0.15636296036E+04  0.15636296036E+04  0.00000000000E+00 0. -1.
          1   -1    0    0  501    0 -0.00000000000E+00 -0.00000000000E+00 -0.38124911831E+02  0.38124911831E+02  0.00000000000E+00 0. -1.
         25    2    1    2    0    0 -0.70256604194E+02  0.51067762273E+02  0.99389696890E+03  0.10054854251E+04  0.12500339384E+03 0.  0.
          2    1    1    2  501    0  0.89338570332E+02 -0.87316168002E+02  0.92964799434E+02  0.15571752399E+03  0.00000000000E+00 0. -1.
          1    1    1    2  502    0 -0.19081966138E+02  0.36248405729E+02  0.43864292345E+03  0.44055156639E+03  0.00000000000E+00 0. -1.
         22    1    3    3    0    0 -0.96288996504E+02  0.65741205614E+02  0.88177098649E+03  0.88944564173E+03  0.00000000000E+00 0. -1.
         22    1    3    3    0    0  0.26032392310E+02 -0.14673443341E+02  0.11212598240E+03  0.11603978334E+03  0.00000000000E+00 0. -1.
</event>
<event>
 7    1  0.5553952E-006  0.1894418E+03  0.7818608E-02  0.1363573E+00
          2   -1    0    0  502    0  0.00000000000E+00  0.00000000000E+00  0.25949877724E+04  0.25949877724E+04  0.00000000000E+00 0. -1.
          1   -1    0    0  501    0 -0.00000000000E+00 -0.00000000000E+00 -0.43017690170E+02  0.43017690170E+02  0.00000000000E+00 0. -1.
         25    2    1    2    0    0  0.16273743594E+03  0.71331525147E+02  0.10865714305E+04  0.11080768787E+04  0.12500094389E+03 0.  0.
          2    1    1    2  501    0 -0.18389553415E+03 -0.57786967523E+02  0.25693960658E+03  0.32120844093E+03  0.00000000000E+00 0. -1.
          1    1    1    2  502    0  0.21158098214E+02 -0.13544557624E+02  0.12084590452E+04  0.12087201430E+04  0.00000000000E+00 0. -1.
         22    1    3    3    0    0  0.71986268217E+02  0.92510254061E+02  0.73857100410E+03  0.74781501591E+03  0.00000000000E+00 0.  1.
         22    1    3    3    0    0  0.90751167723E+02 -0.21178728914E+02  0.34800042638E+03  0.36026186277E+03  0.00000000000E+00 0.  1.
</event>
<event>
 7    1  0.5553952E-006  0.7200590E+02  0.7818608E-02  0.1377369E+00
          2   -1    0    0  502    0  0.00000000000E+00  0.00000000000E+00  0.11730529485E+04  0.11730529485E+04  0.00000000000E+00 0. -1.
          1   -1    0    0  501    0 -0.00000000000E+00 -0.00000000000E+00 -0.79045945539E+02  0.79045945539E+02  0.00000000000E+00 0. -1.
         25    2    1    2    0    0 -0.67170699246E+02 -0.58195439252E+02  0.25903778969E+03  0.30103887714E+03  0.12500086831E+03 0.  0.
          2    1    1    2  501    0 -0.50949037298E+01  0.58745049097E+02 -0.41188739465E+02  0.71926706418E+02  0.00000000000E+00 0. -1.
          1    1    1    2  502    0  0.72265602976E+02 -0.54960984487E+00  0.87615795277E+03  0.87913331051E+03  0.00000000000E+00 0. -1.
         22    1    3    3    0    0 -0.89401429788E+02 -0.77926081578E+01  0.10888780657E+03  0.14110242666E+03  0.00000000000E+00 0.  1.
         22    1    3    3    0    0  0.22230730542E+02 -0.50402831095E+02  0.15014998312E+03  0.15993645048E+03  0.00000000000E+00 0.  1.
</event>
<event>
 7    1  0.5553952E-006  0.5960952E+02  0.7818608E-02  0.1522778E+00
          2   -1    0    0  502    0  0.00000000000E+00  0.00000000000E+00  0.12538997973E+04  0.12538997973E+04  0.00000000000E+00 0. -1.
          1   -1    0    0  501    0 -0.00000000000E+00 -0.00000000000E+00 -0.34453469263E+02  0.34453469263E+02  0.00000000000E+00 0. -1.
         25    2    1    2    0    0  0.50956611618E+01  0.57918586688E+02  0.15766149332E+03  0.20943035664E+03  0.12499359728E+03 0.  0.
          2    1    1    2  501    0  0.19197921743E+02 -0.59350024371E+02  0.10719701040E+03  0.12402493552E+03  0.00000000000E+00 0. -1.
          1    1    1    2  502    0 -0.24293582905E+02  0.14314376837E+01  0.95458782436E+03  0.95489797445E+03  0.00000000000E+00 0. -1.
         22    1    3    3    0    0  0.38567153064E+02  0.85790748554E+02  0.10195213619E+03  0.13871451224E+03  0.00000000000E+00 0.  1.
         22    1    3    3    0    0 -0.33471491902E+02 -0.27872161866E+02  0.55709357133E+02  0.70715844401E+02  0.00000000000E+00 0.  1.
</event>
<event>
 7    1  0.5553952E-006  0.1726645E+03  0.7818608E-02  0.1192464E+00
          2   -1    0    0  502    0  0.00000000000E+00  0.00000000000E+00  0.20350938623E+03  0.20350938623E+03  0.00000000000E+00 0. -1.
          1   -1    0    0  501    0 -0.00000000000E+00 -0.00000000000E+00 -0.25270233060E+04  0.25270233060E+04  0.00000000000E+00 0. -1.
         25    2    1    2    0    0 -0.29538480677E+02 -0.59559169789E+02 -0.13846865633E+03  0.19804260084E+03  0.12500994527E+03 0.  0.
          2    1    1    2  501    0 -0.39904509063E+02  0.18367979649E+03 -0.23252155211E+04  0.23328004324E+04  0.00000000000E+00 0. -1.
          1    1    1    2  502    0  0.69442989740E+02 -0.12412062670E+03  0.14017025767E+03  0.19968965905E+03  0.00000000000E+00 0. -1.
         22    1    3    3    0    0  0.23972405604E+02 -0.78649048155E+02 -0.99849741642E+02  0.12934573790E+03  0.00000000000E+00 0. -1.
         22    1    3    3    0    0 -0.53510886281E+02  0.19089878367E+02 -0.38618914689E+02  0.68696862944E+02  0.00000000000E+00 0. -1.
</event>
<event>
 7    1  0.5553952E-006  0.1888380E+03  0.7818608E-02  0.1212376E+00
          2   -1    0    0  502    0  0.00000000000E+00  0.00000000000E+00  0.67639336729E+02  0.67639336729E+02  0.00000000000E+00 0. -1.
          1   -1    0    0  501    0 -0.00000000000E+00 -0.00000000000E+00 -0.16368384616E+04  0.16368384616E+04  0.00000000000E+00 0. -1.
         25    2    1    2    0    0 -0.95187140727E+02 -0.13042112400E+03 -0.79123640529E+03  0.81716009501E+03  0.12500124187E+03 0.  0.
          2    1    1    2  501    0  0.58604395587E+02  0.22868107537E+03 -0.73845696030E+03  0.77527297878E+03  0.00000000000E+00 0. -1.
          1    1    1    2  502    0  0.36582745140E+02 -0.98259951372E+02 -0.39505759312E+02  0.11204472457E+03  0.00000000000E+00 0. -1.
         22    1    3    3    0    0 -0.12625270096E+02 -0.98484032056E+02 -0.25468265743E+03  0.27335280867E+03  0.00000000000E+00 0.  1.
         22    1    3    3    0    0 -0.82561870631E+02 -0.31937091939E+02 -0.53655374786E+03  0.54380728633E+03  0.00000000000E+00 0.  1.
</event>
<event>
 7    1  0.5553952E-006  0.7156640E+02  0.7818608E-02  0.1517711E+00
          2   -1    0    0  502    0  0.00000000000E+00  0.00000000000E+00  0.17807594069E+03  0.17807594069E+03  0.00000000000E+00 0. -1.
          1   -1    0    0  501    0 -0.00000000000E+00 -0.00000000000E+00 -0.91974745940E+03  0.91974745940E+03  0.00000000000E+00 0. -1.
         25    2    1    2    0    0  0.32838772010E+02  0.82924915161E+02 -0.28331347038E+03  0.32225141591E+03  0.12499810420E+03 0.  0.
          2    1    1    2  501    0 -0.15699994675E+02 -0.13898725238E+02 -0.60880234817E+03  0.60916333075E+03  0.00000000000E+00 0. -1.
          1    1    1    2  502    0 -0.17138777335E+02 -0.69026189923E+02  0.15044429984E+03  0.16640865343E+03  0.00000000000E+00 0. -1.
         22    1    3    3    0    0  0.56959934305E+02 -0.33742793902E+01 -0.15961581605E+03  0.16950819629E+03  0.00000000000E+00 0.  1.
         22    1    3    3    0    0 -0.24121162295E+02  0.86299194552E+02 -0.12369765433E+03  0.15274321961E+03  0.00000000000E+00 0.  1.
</event>
<event>
 7    1  0.5553952E-006  0.1030329E+03  0.7818608E-02  0.1277529E+00
          2   -1    0    0  502    0  0.00000000000E+00  0.00000000000E+00  0.17409945407E+04  0.17409945407E+04  0.00000000000E+00 0. -1.
          1   -1    0    0  501    0 -0.00000000000E+00 -0.00000000000E+00 -0.72020931876E+02  0.72020931876E+02  0.00000000000E+00 0. -1.
         25    2    1    2    0    0 -0.47273257845E-01 -0.24204880081E+02  0.72422757886E+03  0.73533442101E+03  0.12500098519E+03 0.  0.
          2    1    1    2  501    0 -0.95688481417E+02  0.51860569002E+02 -0.17545538379E+02  0.11024359396E+03  0.00000000000E+00 0. -1.
          1    1    1    2  502    0  0.95735754675E+02 -0.27655688922E+02  0.96229156838E+03  0.96743745763E+03  0.00000000000E+00 0. -1.
         22    1    3    3    0    0  0.48595565877E+02  0.19713977960E+02  0.19008487582E+03  0.19718628239E+03  0.00000000000E+00 0. -1.
         22    1    3    3    0    0 -0.48642839135E+02 -0.43918858040E+02  0.53414270304E+03  0.53814813862E+03  0.00000000000E+00 0. -1.
</event>
<event>
 7    1  0.5553952E-006  0.6963807E+02  0.7818608E-02  0.1440145E+00
          2   -1    0    0  502    0  0.00000000000E+00  0.00000000000E+00  0.31900460670E+03  0.31900460670E+03  0.00000000000E+00 0. -1.
          1   -1    0    0  501    0 -0.00000000000E+00 -0.00000000000E+00 -0.14662736091E+04  0.14662736091E+04  0.00000000000E+00 0. -1.
         25    2    1    2    0    0  0.80511288805E+02 -0.54607453204E+02 -0.36758176444E+02  0.16260310848E+03  0.12499826311E+03 0.  0.
          2    1    1    2  501    0 -0.15099725988E+02  0.34124373951E+02 -0.13617461481E+04  0.13622573349E+04  0.00000000000E+00 0. -1.
          1    1    1    2  502    0 -0.65411562817E+02  0.20483079253E+02  0.25123532216E+03  0.26041777241E+03  0.00000000000E+00 0. -1.
         22    1    3    3    0    0  0.69159170714E+02 -0.26405438507E+02  0.37047535288E+02  0.82781386479E+02  0.00000000000E+00 0.  1.
         22    1    3    3    0    0  0.11352118091E+02 -0.28202014698E+02 -0.73805711732E+02  0.79821721996E+02  0.00000000000E+00 0.  1.
</event>
<event>
 7    1  0.5553952E-006  0.1594049E+03  0.7818608E-02  0.1350722E+00
          2   -1    0    0  502    0  0.00000000000E+00  0.00000000000E+00  0.60681428003E+03  0.60681428003E+03  0.00000000000E+00 0. -1.
          1   -1    0    0  501    0 -0.00000000000E+00 -0.00000000000E+00 -0.21262267168E+04  0.21262267168E+04  0.00000000000E+00 0. -1.
         25    2    1    2    0    0  0.83976747033E+02  0.12649217715E+03  0.32071249344E+03  0.37620438121E+03  0.12498347121E+03 0.  0.
          2    1    1    2  501    0  0.32822524055E+02 -0.54762229717E+01 -0.20709608782E+04  0.20712282023E+04  0.00000000000E+00 0. -1.
          1    1    1    2  502    0 -0.11679927109E+03 -0.12101595418E+03  0.23083594796E+03  0.28560841333E+03  0.00000000000E+00 0. -1.
         22    1    3    3    0    0  0.10579352456E+03  0.73797290298E+02  0.27264176975E+03  0.30161539169E+03  0.00000000000E+00 0. -1.
         22    1    3    3    0    0 -0.21816777522E+02  0.52694886856E+02  0.48070723686E+02  0.74588989522E+02  0.00000000000E+00 0. -1.
</event>
<event>
 7    1  0.5553952E-006  0.2059908E+03  0.7818608E-02  0.1272681E+00
          2   -1    0    0  502    0  0.00000000000E+00  0.00000000000E+00  0.66159810186E+03  0.66159810186E+03  0.00000000000E+00 0. -1.
          1   -1    0    0  501    0 -0.00000000000E+00 -0.00000000000E+00 -0.16438518094E+04  0.16438518094E+04  0.00000000000E+00 0. -1.
         25    2    1    2    0    0 -0.15147065890E+02 -0.21835791746E+03 -0.10151974701E+03  0.27173650004E+03  0.12499941079E+03 0.  0.
          2    1    1    2  501    0  0.49700533940E+02  0.16009636727E+02 -0.14384611060E+04  0.14394084914E+04  0.00000000000E+00 0. -1.
          1    1    1    2  502    0 -0.34553468050E+02  0.20234828074E+03  0.55772714552E+03  0.59430491982E+03  0.00000000000E+00 0. -1.
         22    1    3    3    0    0 -0.43386730251E+02 -0.16070999106E+03 -0.11968407718E+03  0.20502289608E+03  0.00000000000E+00 0. -1.
         22    1    3    3    0    0  0.28239664362E+02 -0.57647926407E+02  0.18164330173E+02  0.66713603957E+02  0.00000000000E+00 0. -1.
</event>
<event>
 7    1  0.5553952E-006  0.9024537E+02  0.7818608E-02  0.1326100E+00
          2   -1    0    0  502    0  0.00000000000E+00  0.00000000000E+00  0.25760847831E+04  0.25760847831E+04  0.00000000000E+00 0. -1.
          1   -1    0    0  501    0 -0.00000000000E+00 -0.00000000000E+00 -0.28668859537E+03  0.28668859537E+03  0.00000000000E+00 0. -1.
         25    2    1    2    0    0  0.71923328572E+02  0.96713591960E+01  0.36870016445E+03  0.39601898807E+03  0.12499890906E+03 0.  0.
          2    1    1    2  501    0 -0.47016488706E+02 -0.78067841821E+02 -0.26480172292E+03  0.28004480106E+03  0.00000000000E+00 0. -1.
          1    1    1    2  502    0 -0.24906839867E+02  0.68396482625E+02  0.21854977462E+04  0.21867095894E+04  0.00000000000E+00 0. -1.
         22    1    3    3    0    0  0.10440574711E+03 -0.11824590420E+02  0.28321747334E+03  0.30208031742E+03  0.00000000000E+00 0. -1.
         22    1    3    3    0    0 -0.32482418539E+02  0.21495949616E+02  0.85482691112E+02  0.93938670652E+02  0.00000000000E+00 0. -1.
</event>
<event>
 7    1  0.5553952E-006  0.2458021E+02  0.7818608E-02  0.1677903E+00
          2   -1    0    0  502    0  0.00000000000E+00  0.00000000000E+00  0.13304566294E+03  0.13304566294E+03  0.00000000000E+00 0. -1.
          1   -1    0    0  501    0 -0.00000000000E+00 -0.00000000000E+00 -0.72005425237E+03  0.72005425237E+03  0.00000000000E+00 0. -1.
         25    2    1    2    0    0  0.35253567183E+01 -0.21722350515E+01 -0.21057686883E+03  0.24491770797E+03  0.12499967699E+03 0.  0.
          2    1    1    2  501    0  0.17455285899E+02  0.15229690220E+02 -0.49071306132E+03  0.49125954344E+03  0.00000000000E+00 0. -1.
          1    1    1    2  502    0 -0.20980642617E+02 -0.13057455168E+02  0.11428134071E+03  0.11692266391E+03  0.00000000000E+00 0. -1.
         22    1    3    3    0    0 -0.18133560852E+02 -0.56283664482E+02 -0.63786817696E+02  0.86979509245E+02  0.00000000000E+00 0. -1.
         22    1    3    3    0    0  0.21658917570E+02  0.54111429431E+02 -0.14679005113E+03  0.15793819873E+03  0.00000000000E+00 0. -1.
</event>
<event>
 7    1  0.5553952E-006  0.5081557E+02  0.7818608E-02  0.1505539E+00
          2   -1    0    0  502    0  0.00000000000E+00  0.00000000000E+00  0.14580764899E+02  0.14580764899E+02  0.00000000000E+00 0. -1.
          1   -1    0    0  501    0 -0.00000000000E+00 -0.00000000000E+00 -0.23642521086E+04  0.23642521086E+04  0.00000000000E+00 0. -1.
         25    2    1    2    0    0 -0.15757656016E+02  0.55240247747E+02 -0.15285716104E+04  0.15347494230E+04  0.12499933911E+03 0.  0.
          2    1    1    2  501    0  0.38916660520E+02 -0.33064010100E+02 -0.80773117432E+03  0.80934379914E+03  0.00000000000E+00 0. -1.
          1    1    1    2  502    0 -0.23159004504E+02 -0.22176237647E+02 -0.13368559038E+02  0.34739651359E+02  0.00000000000E+00 0. -1.
         22    1    3    3    0    0  0.47660597215E+02  0.18754972564E+02 -0.33042412291E+03  0.33437012804E+03  0.00000000000E+00 0.  1.
         22    1    3    3    0    0 -0.63418253231E+02  0.36485275183E+02 -0.11981474875E+04  0.12003792950E+04  0.00000000000E+00 0.  1.
</event>
<event>
 7    1  0.5553952E-006  0.3342511E+03  0.7818608E-02  0.1148306E+00
          2   -1    0    0  502    0  0.00000000000E+00  0.00000000000E+00  0.24608739300E+04  0.24608739300E+04  0.00000000000E+00 0. -1.
          1   -1    0    0  501    0 -0.00000000000E+00 -0.00000000000E+00 -0.13092502313E+03  0.13092502313E+03  0.00000000000E+00 0. -1.
         25    2    1    2    0    0  0.22207613436E+03 -0.14720477391E+03  0.50951561248E+03  0.58840289152E+03  0.12499899393E+03 0.  0.
          2    1    1    2  501    0 -0.30734597761E+03  0.23407022301E+03  0.33024370105E+03  0.50824336822E+03  0.00000000000E+00 0. -1.
          1    1    1    2  502    0  0.85269843252E+02 -0.86865449105E+02  0.14901895934E+04  0.14951526934E+04  0.00000000000E+00 0. -1.
         22    1    3    3    0    0  0.23042300176E+03 -0.11071216753E+03  0.46084328844E+03  0.52699950690E+03  0.00000000000E+00 0.  1.
         22    1    3    3    0    0 -0.83468673981E+01 -0.36492606375E+02  0.48672324039E+02  0.61403384620E+02  0.00000000000E+00 0.  1.
</event>
<event>
 7    1  0.5553952E-006  0.9302801E+02  0.7818608E-02  0.1411921E+00
          2   -1    0    0  502    0  0.00000000000E+00  0.00000000000E+00  0.75700861889E+03  0.75700861889E+03  0.00000000000E+00 0. -1.
          1   -1    0    0  501    0 -0.00000000000E+00 -0.00000000000E+00 -0.58196911927E+03  0.58196911927E+03  0.00000000000E+00 0. -1.
         25    2    1    2    0    0 -0.11027950776E+03  0.52824825272E+02  0.38785059242E+03  0.42544752754E+03  0.12500193861E+03 0.  0.
          2    1    1    2  501    0  0.89254136666E+02 -0.25294997677E+02 -0.55847868773E+03  0.56613124138E+03  0.00000000000E+00 0. -1.
          1    1    1    2  502    0  0.21025371099E+02 -0.27529827594E+02  0.34566759494E+03  0.34739896924E+03  0.00000000000E+00 0. -1.
         22    1    3    3    0    0 -0.10491169834E+03 -0.78447262168E+01  0.17630105049E+03  0.20530480896E+03  0.00000000000E+00 0.  1.
         22    1    3    3    0    0 -0.53678094245E+01  0.60669551489E+02  0.21154954192E+03  0.22014271858E+03  0.00000000000E+00 0.  1.
</event>
<event>
 7    1  0.5553952E-006  0.1258267E+03  0.7818608E-02  0.1285999E+00
          2   -1    0    0  502    0  0.00000000000E+00  0.00000000000E+00  0.32867500511E+03  0.32867500511E+03  0.00000000000E+00 0. -1.
          1   -1    0    0  501    0 -0.00000000000E+00 -0.00000000000E+00 -0.92127620959E+03  0.92127620959E+03  0.00000000000E+00 0. -1.
         25    2    1    2    0    0  0.12521422868E+03  0.14034384135E+03 -0.38524301662E+03  0.44655759755E+03  0.12500603668E+03 0.  0.
          2    1    1    2  501    0 -0.72644746175E+02 -0.86435534816E+02 -0.49414831134E+03  0.50688353142E+03  0.00000000000E+00 0. -1.
          1    1    1    2  502    0 -0.52569482501E+02 -0.53908306536E+02  0.28679012348E+03  0.29651008572E+03  0.00000000000E+00 0. -1.
         22    1    3    3    0    0  0.11586773849E+03  0.59829217346E+02 -0.30853062179E+03  0.33495673251E+03  0.00000000000E+00 0.  1.
         22    1    3    3    0    0  0.93464901901E+01  0.80514624006E+02 -0.76712394833E+02  0.11160086504E+03  0.00000000000E+00 0.  1.
</event>
<event>
 7    1  0.5553952E-006  0.1161766E+03  0.7818608E-02  0.1439117E+00
          2   -1    0    0  502    0  0.00000000000E+00  0.00000000000E+00  0.12405482416E+04  0.12405482416E+04  0.00000000000E+00 0. -1.
          1   -1    0    0  501    0 -0.00000000000E+00 -0.00000000000E+00 -0.36957398351E+03  0.36957398351E+03  0.00000000000E+00 0. -1.
         25    2    1    2    0    0  0.80932456185E+02 -0.50510354024E+02  0.21430281541E+02  0.15870032088E+03  0.12500070620E+03 0.  0.
          2    1    1    2  501    0  0.14620490852E+02 -0.17155275927E+02 -0.29753260706E+03  0.29838517810E+03  0.00000000000E+00 0. -1.
          1    1    1    2  502    0 -0.95552947037E+02  0.67665629951E+02  0.11470765836E+04  0.11530367261E+04  0.00000000000E+00 0. -1.
         22    1    3    3    0    0  0.71954709054E+02  0.28708409725E+02  0.12572914625E+02  0.78483954578E+02  0.00000000000E+00 0. -1.
         22    1    3    3    0    0  0.89777471310E+01 -0.79218763748E+02  0.88573669157E+01  0.80216366298E+02  0.00000000000E+00 0. -1.
</event>
<event>
 7    1  0.5553952E-006  0.1108531E+03  0.7818608E-02  0.1318510E+00
          2   -1    0    0  502    0  0.00000000000E+00  0.00000000000E+00  0.51575427392E+03  0.51575427392E+03  0.00000000000E+00 0. -1.
          1   -1    0    0  501    0 -0.00000000000E+00 -0.00000000000E+00 -0.27738414383E+03  0.27738414383E+03  0.00000000000E+00 0. -1.
         25    2    1    2    0    0  0.50269343302E+02 -0.12674648697E+03  0.11236010018E+03  0.21643126926E+03  0.12500409340E+03 0.  0.
          2    1    1    2  501    0 -0.60637252227E+02  0.18514449153E+02 -0.21219003593E+03  0.22145941510E+03  0.00000000000E+00 0. -1.
          1    1    1    2  502    0  0.10367908925E+02  0.10823203782E+03  0.33820006584E+03  0.35524773339E+03  0.00000000000E+00 0. -1.
         22    1    3    3    0    0 -0.19128175809E+02 -0.44144727765E+02  0.95909249349E+02  0.10729971207E+03  0.00000000000E+00 0. -1.
         22    1    3    3    0    0  0.69397519110E+02 -0.82601759208E+02  0.16450850833E+02  0.10913155720E+03  0.00000000000E+00 0. -1.
</event>
<event>
 7    1  0.5553952E-006  0.5711310E+02  0.7818608E-02  0.1444597E+00
          2   -1    0    0  502    0  0.00000000000E+00  0.00000000000E+00  0.16659485480E+04  0.16659485480E+04  0.00000000000E+00 0. -1.
          1   -1    0    0  501    0 -0.00000000000E+00 -0.00000000000E+00 -0.48489998912E+03  0.48489998912E+03  0.00000000000E+00 0. -1.
         25    2    1    2    0    0  0.35468115399E+02  0.13550711226E+02  0.32004667397E+03  0.34568343813E+03  0.12500222754E+03 0.  0.
          2    1    1    2  501    0 -0.18566919407E+02 -0.54191836959E+02 -0.46997869615E+03  0.47345692574E+03  0.00000000000E+00 0. -1.
          1    1    1    2  502    0 -0.16901195992E+02  0.40641125733E+02  0.13309805811E+04  0.13317081733E+04  0.00000000000E+00 0. -1.
         22    1    3    3    0    0  0.12156716187E+02  0.43640656226E+02  0.32809615072E+02  0.55935350767E+02  0.00000000000E+00 0. -1.
         22    1    3    3    0    0  0.23311399212E+02 -0.30089945000E+02  0.28723705890E+03  0.28974808736E+03  0.00000000000E+00 0. -1.
</event>
<event>
 7    1  0.5553952E-006  0.5604598E+02  0.7818608E-02  0.1527762E+00
          2   -1    0    0  502    0  0.00000000000E+00  0.00000000000E+00  0.59738569873E+03  0.59738569873E+03  0.00000000000E+00 0. -1.
          1   -1    0    0  501    0 -0.00000000000E+00 -0.00000000000E+00 -0.81361748670E+03  0.81361748670E+03  0.00000000000E+00 0. -1.
         25    2    1    2    0    0 -0.32691497637E+01 -0.38211424097E+02 -0.22663632757E+02  0.13269634500E+03  0.12499551774E+03 0.  0.
          2    1    1    2  501    0  0.25036280982E+02  0.50589651470E+02 -0.73456513421E+03  0.73673065946E+03  0.00000000000E+00 0. -1.
          1    1    1    2  502    0 -0.21767131218E+02 -0.12378227373E+02  0.54099697899E+03  0.54157618097E+03  0.00000000000E+00 0. -1.
         22    1    3    3    0    0 -0.36758081522E+02  0.34104740032E+02 -0.11766585424E+01  0.50156498832E+02  0.00000000000E+00 0.  1.
         22    1    3    3    0    0  0.33488931758E+02 -0.72316164129E+02 -0.21486974215E+02  0.82539846168E+02  0.00000000000E+00 0.  1.
</event>
<event>
 7    1  0.5553952E-006  0.7347350E+02  0.7818608E-02  0.1364625E+00
          2   -1    0    0  502    0  0.00000000000E+00  0.00000000000E+00  0.76913029500E+03  0.76913029500E+03  0.00000000000E+00 0. -1.
          1   -1    0    0  501    0 -0.00000000000E+00 -0.00000000000E+00 -0.81722275340E+03  0.81722275340E+03  0.00000000000E+00 0. -1.
         25    2    1    2    0    0  0.12696301426E+03 -0.75750136486E+01 -0.42023457676E+03  0.45650613046E+03  0.12499503919E+03 0.  0.
          2    1    1    2  501    0 -0.64808365804E+02 -0.85314310545E+01 -0.37464489240E+03  0.38030475279E+03  0.00000000000E+00 0. -1.
          1    1    1    2  502    0 -0.62154648458E+02  0.16106444703E+02  0.74678701076E+03  0.74954216514E+03  0.00000000000E+00 0. -1.
         22    1    3    3    0    0  0.11897179673E+03 -0.27779475508E+02 -0.41701331170E+03  0.43454124063E+03  0.00000000000E+00 0. -1.
         22    1    3    3    0    0  0.79912175298E+01  0.20204461859E+02 -0.32212650633E+01  0.21964889830E+02  0.00000000000E+00 0. -1.
</event>
<event>
 7    1  0.5553952E-006  0.4895989E+02  0.7818608E-02  0.1461579E+00
          2   -1    0    0  502    0  0.00000000000E+00  0.00000000000E+00  0.19590394044E+04  0.19590394044E+04  0.00000000000E+00 0. -1.
          1   -1    0    0  501    0 -0.00000000000E+00 -0.00000000000E+00 -0.28428345256E+02  0.28428345256E+02  0.00000000000E+00 0. -1.
         25    2    1    2    0    0 -0.47279547323E+01 -0.15200041105E+02  0.73573711972E+03  0.74644949362E+03  0.12499736954E+03 0.  0.
          2    1    1    2  501    0 -0.44300676673E+02  0.20845163588E+02  0.40009841157E+01  0.49123097140E+02  0.00000000000E+00 0. -1.
          1    1    1    2  502    0  0.49028631406E+02 -0.56451224835E+01  0.11908729553E+04  0.11918951589E+04  0.00000000000E+00 0. -1.
         22    1    3    3    0    0  0.18756687019E+02 -0.64892131373E+02  0.49046627662E+03  0.49509592052E+03  0.00000000000E+00 0. -1.
         22    1    3    3    0    0 -0.23484641751E+02  0.49692090268E+02  0.24527084310E+03  0.25135357310E+03  0.00000000000E+00 0. -1.
</event>
<event>
 7    1  0.5553952E-006  0.7127111E+02  0.7818608E-02  0.1501687E+00
          2   -1    0    0  502    0  0.00000000000E+00  0.00000000000E+00  0.24022861990E+02  0.24022861990E+02  0.00000000000E+00 0. -1.
          1   -1    0    0  501    0 -0.00000000000E+00 -0.00000000000E+00 -0.17982780164E+04  0.17982780164E+04  0.00000000000E+00 0. -1.
         25    2    1    2    0    0 -0.22445647035E+02 -0.59726935838E+02 -0.51935748882E+03  0.53798462905E+03  0.12499658382E+03 0.  0.
          2    1    1    2  501    0  0.19373802626E+02 -0.13250437586E+02 -0.11780874210E+04  0.11783212168E+04  0.00000000000E+00 0. -1.
          1    1    1    2  502    0  0.30718444085E+01  0.72977373424E+02 -0.76810244596E+02  0.10599503260E+03  0.00000000000E+00 0. -1.
         22    1    3    3    0    0  0.21866892865E+02 -0.33407992931E+02 -0.44898806241E+03  0.45075995295E+03  0.00000000000E+00 0.  1.
         22    1    3    3    0    0 -0.44312539900E+02 -0.26318942908E+02 -0.70369426413E+02  0.87224676106E+02  0.00000000000E+00 0.  1.
</event>
<event>
 7    1  0.5553952E-006  0.4583736E+02  0.7818608E-02  0.1469192E+00
          2   -1    0    0  502    0  0.00000000000E+00  0.00000000000E+00  0.52601224545E+02  0.52601224545E+02  0.00000000000E+00 0. -1.
          1   -1    0    0  501    0 -0.00000000000E+00 -0.00000000000E+00 -0.30359519131E+03  0.30359519131E+03  0.00000000000E+00 0. -1.
         25    2    1    2    0    0 -0.10523479789E+02  0.20193015166E+01 -0.55322479399E+02  0.13711704820E+03  0.12500274787E+03 0.  0.
          2    1    1    2  501    0  0.34784097442E+02  0.36867125346E+02 -0.12454819983E+03  0.13446699390E+03  0.00000000000E+00 0. -1.
          1    1    1    2  502    0 -0.24260617653E+02 -0.38886426862E+02 -0.71123287532E+02  0.84612373754E+02  0.00000000000E+00 0. -1.
         22    1    3    3    0    0  0.34803822989E+02  0.41183031128E+02  0.23400912161E+01  0.53970586197E+02  0.00000000000E+00 0.  1.
         22    1    3    3    0    0 -0.45327302778E+02 -0.39163729612E+02 -0.57662570615E+02  0.83146462006E+02  0.00000000000E+00 0.  1.
</event>
<event>
 7    1  0.5553952E-006  0.1994236E+03  0.7818608E-02  0.1303025E+00
          2   -1    0    0  502    0  0.00000000000E+00  0.00000000000E+00  0.12381641375E+03  0.12381641375E+03  0.00000000000E+00 0. -1.
          1   -1    0    0  501    0 -0.00000000000E+00 -0.00000000000E+00 -0.21599964902E+04  0.21599964902E+04  0.00000000000E+00 0. -1.
         25    2    1    2    0    0  0.16850501747E+03 -0.11529742594E+03 -0.46123130769E+03  0.51965989427E+03  0.12499859673E+03 0.  0.
          2    1    1    2  501    0  0.14883217073E+02  0.37722620236E+02 -0.15642176763E+04  0.15647432522E+04  0.00000000000E+00 0. -1.
          1    1    1    2  502    0 -0.18338823454E+03  0.77574805708E+02 -0.10731092438E+02  0.19940975752E+03  0.00000000000E+00 0. -1.
         22    1    3    3    0    0  0.62308818645E+02  0.19127324506E+02 -0.16581831307E+03  0.17816833718E+03  0.00000000000E+00 0.  1.
         22    1    3    3    0    0  0.10619619882E+03 -0.13442475045E+03 -0.29541299462E+03  0.34149155710E+03  0.00000000000E+00 0.  1.
</event>
<event>
 7    1  0.5553952E-006  0.2071999E+03  0.7818608E-02  0.1264930E+00
          2   -1    0    0  502    0  0.00000000000E+00  0.00000000000E+00  0.14318614504E+04  0.14318614504E+04  0.00000000000E+00 0. -1.
          1   -1    0    0  501    0 -0.00000000000E+00 -0.00000000000E+00 -0.43137690249E+03  0.43137690249E+03  0.00000000000E+00 0. -1.
         25    2    1    2    0    0  0.26057805452E+02 -0.21616090628E+03 -0.47560977480E+02  0.25552121900E+03  0.12499800059E+03 0.  0.
          2    1    1    2  501    0  0.28405995216E+02  0.20331159498E+03 -0.24149788194E+03  0.31696014292E+03  0.00000000000E+00 0. -1.
          1    1    1    2  502    0 -0.54463800668E+02  0.12849311298E+02  0.12895434073E+04  0.12907569910E+04  0.00000000000E+00 0. -1.
         22    1    3    3    0    0 -0.43446269784E+02 -0.10049268412E+03  0.75832563971E+01  0.10974453835E+03  0.00000000000E+00 0. -1.
         22    1    3    3    0    0  0.69504075237E+02 -0.11566822216E+03 -0.55144233878E+02  0.14577668065E+03  0.00000000000E+00 0. -1.
</event>
<event>
 7    1  0.5553952E-006  0.2458213E+03  0.7818608E-02  0.1130993E+00
          2   -1    0    0  502    0  0.00000000000E+00  0.00000000000E+00  0.21856119902E+04  0.21856119902E+04  0.00000000000E+00 0. -1.
          1   -1    0    0  501    0 -0.00000000000E+00 -0.00000000000E+00 -0.12155068868E+04  0.12155068868E+04  0.00000000000E+00 0. -1.
         25    2    1    2    0    0  0.24396032527E+02  0.15923995582E+03 -0.65366056661E+02  0.21412055506E+03  0.12498944277E+03 0.  0.
          2    1    1    2  501    0 -0.20284419817E+03  0.21431224324E+02 -0.10583539911E+04  0.10778303375E+04  0.00000000000E+00 0. -1.
          1    1    1    2  502    0  0.17844816564E+03 -0.18067118014E+03  0.20938251511E+04  0.21091679844E+04  0.00000000000E+00 0. -1.
         22    1    3    3    0    0 -0.15745116944E+02  0.14651218203E+03 -0.82243749752E+02  0.16875355571E+03  0.00000000000E+00 0.  1.
         22    1    3    3    0    0  0.40141149471E+02  0.12727773790E+02  0.16877693091E+02  0.45366999356E+02  0.00000000000E+00 0.  1.
</event>
<event>
 7    1  0.5553952E-006  0.4103116E+02  0.7818608E-02  0.1557690E+00
          2   -1    0    0  502    0  0.00000000000E+00  0.00000000000E+00  0.17272367641E+03  0.17272367641E+03  0.00000000000E+00 0. -1.
          1   -1    0    0  501    0 -0.00000000000E+00 -0.00000000000E+00 -0.57124686762E+03  0.57124686762E+03  0.00000000000E+00 0. -1.
         25    2    1    2    0    0  0.41618704861E+02  0.34825156869E+02 -0.35946893248E+02  0.14089349948E+03  0.12495555576E+03 0.  0.
          2    1    1    2  501    0 -0.40384589762E+02 -0.66830995502E+01 -0.48029437667E+03  0.48203554555E+03  0.00000000000E+00 0. -1.
          1    1    1    2  502    0 -0.12341150994E+01 -0.28142057318E+02  0.11771807871E+03  0.12104149902E+03  0.00000000000E+00 0. -1.
         22    1    3    3    0    0 -0.56509711172E+00 -0.43047466687E+02 -0.29308950910E+02  0.52080882542E+02  0.00000000000E+00 0.  1.
         22    1    3    3    0    0  0.42183801973E+02  0.77872623555E+02 -0.66379423376E+01  0.88812616934E+02  0.00000000000E+00 0.  1.
</event>
<event>
 7    1  0.5553952E-006  0.1144618E+03  0.7818608E-02  0.1343783E+00
          2   -1    0    0  502    0  0.00000000000E+00  0.00000000000E+00  0.18598262551E+03  0.18598262551E+03  0.00000000000E+00 0. -1.
          1   -1    0    0  501    0 -0.00000000000E+00 -0.00000000000E+00 -0.36999818343E+03  0.36999818343E+03  0.00000000000E+00 0. -1.
         25    2    1    2    0    0  0.10928091327E+03 -0.82882555796E+02  0.62035058426E+02  0.19567001703E+03  0.12500628396E+03 0.  0.
          2    1    1    2  501    0 -0.15309575056E+02  0.46736874731E+02 -0.25456122100E+03  0.25926845891E+03  0.00000000000E+00 0. -1.
          1    1    1    2  502    0 -0.93971338211E+02  0.36145681064E+02  0.85106046625E+01  0.10104233299E+03  0.00000000000E+00 0. -1.
         22    1    3    3    0    0 -0.11459145029E+02  0.12430666854E+02  0.35841360165E+02  0.39628734293E+02  0.00000000000E+00 0. -1.
         22    1    3    3    0    0  0.12074005830E+03 -0.95313222649E+02  0.26193698261E+02  0.15604128274E+03  0.00000000000E+00 0. -1.
</event>
<event>
 7    1  0.5553952E-006  0.6291814E+02  0.7818608E-02  0.1458597E+00
          2   -1    0    0  502    0  0.00000000000E+00  0.00000000000E+00  0.29738764195E+03  0.29738764195E+03  0.00000000000E+00 0. -1.
          1   -1    0    0  501    0 -0.00000000000E+00 -0.00000000000E+00 -0.79597426178E+03  0.79597426178E+03  0.00000000000E+00 0. -1.
         25    2    1    2    0    0 -0.20228093642E+01  0.43595028328E+02 -0.17408163440E+03  0.21871016162E+03  0.12500040444E+03 0.  0.
          2    1    1    2  501    0 -0.31535112274E+02 -0.56757611979E+02 -0.59662845916E+03  0.60015115438E+03  0.00000000000E+00 0. -1.
          1    1    1    2  502    0  0.33557921639E+02  0.13162583651E+02  0.27212347373E+03  0.27450058773E+03  0.00000000000E+00 0. -1.
         22    1    3    3    0    0  0.46245284469E+02  0.54813535038E+02 -0.57118512577E+02  0.91682465270E+02  0.00000000000E+00 0. -1.
         22    1    3    3    0    0 -0.48268093833E+02 -0.11218506710E+02 -0.11696312182E+03  0.12702769635E+03  0.00000000000E+00 0. -1.
</event>
<event>
 7    1  0.5553952E-006  0.6076596E+02  0.7818608E-02  0.1549021E+00
          2   -1    0    0  502    0  0.00000000000E+00  0.00000000000E+00  0.21188953559E+04  0.21188953559E+04  0.00000000000E+00 0. -1.
          1   -1    0    0  501    0 -0.00000000000E+00 -0.00000000000E+00 -0.97526735763E+03  0.97526735763E+03  0.00000000000E+00 0. -1.
         25    2    1    2    0    0  0.22413700246E+02 -0.58599704973E+02  0.80087760156E+03  0.81299830414E+03  0.12500004184E+03 0.  0.
          2    1    1    2  501    0 -0.24208199415E+01  0.60719276922E+02 -0.96817734764E+03  0.97008250549E+03  0.00000000000E+00 0. -1.
          1    1    1    2  502    0 -0.19992880304E+02 -0.21195719493E+01  0.13109277443E+04  0.13110819039E+04  0.00000000000E+00 0. -1.
         22    1    3    3    0    0  0.48900197468E+02  0.61040868753E+01  0.13975004827E+03  0.14818422717E+03  0.00000000000E+00 0.  1.
         22    1    3    3    0    0 -0.26486497222E+02 -0.64703791848E+02  0.66112755329E+03  0.66481407697E+03  0.00000000000E+00 0.  1.
</event>
<event>
 7    1  0.5553952E-006  0.3688164E+02  0.7818608E-02  0.1550552E+00
          2   -1    0    0  502    0  0.00000000000E+00  0.00000000000E+00  0.23251921578E+04  0.23251921578E+04  0.00000000000E+00 0. -1.
          1   -1    0    0  501    0 -0.00000000000E+00 -0.00000000000E+00 -0.98340966999E+03  0.98340966999E+03  0.00000000000E+00 0. -1.
         25    2    1    2    0    0 -0.64168645849E+02 -0.26479468924E+02  0.47237695525E+02  0.15058322025E+03  0.12500051583E+03 0.  0.
          2    1    1    2  501    0  0.31161788377E+02  0.10237982903E+02 -0.93129620497E+03  0.93187364741E+03  0.00000000000E+00 0. -1.
          1    1    1    2  502    0  0.33006857472E+02  0.16241486020E+02  0.22258409973E+04  0.22261449602E+04  0.00000000000E+00 0. -1.
         22    1    3    3    0    0 -0.23140665775E+02  0.47357252643E+02 -0.21177108517E+01  0.52751156288E+02  0.00000000000E+00 0.  1.
         22    1    3    3    0    0 -0.41027980073E+02 -0.73836721567E+02  0.49355406377E+02  0.97832063963E+02  0.00000000000E+00 0.  1.
</event>
<event>
 7    1  0.5553952E-006  0.1335899E+03  0.7818608E-02  0.1240994E+00
          2   -1    0    0  502    0  0.00000000000E+00  0.00000000000E+00  0.13628566441E+04  0.13628566441E+04  0.00000000000E+00 0. -1.
          1   -1    0    0  501    0 -0.00000000000E+00 -0.00000000000E+00 -0.79520823045E+02  0.79520823045E+02  0.00000000000E+00 0. -1.
         25    2    1    2    0    0  0.49522221723E+02  0.43772828939E+02  0.24352725820E+03  0.28160206894E+03  0.12500275495E+03 0.  0.
          2    1    1    2  501    0 -0.11192334442E+02  0.10954104009E+03  0.11031070010E+01  0.11011686818E+03  0.00000000000E+00 0. -1.
          1    1    1    2  502    0 -0.38329887281E+02 -0.15331386903E+03  0.10387054559E+04  0.10506585300E+04  0.00000000000E+00 0. -1.
         22    1    3    3    0    0  0.45571203079E+02  0.54217843891E+02  0.25555583867E+03  0.26518879280E+03  0.00000000000E+00 0.  1.
         22    1    3    3    0    0  0.39510186437E+01 -0.10445014952E+02 -0.12028580467E+02  0.16413276143E+02  0.00000000000E+00 0.  1.
</event>
<event>
 7    1  0.5553952E-006  0.3987791E+02  0.7818608E-02  0.1545361E+00
          2   -1    0    0  502    0  0.00000000000E+00  0.00000000000E+00  0.14469972601E+04  0.14469972601E+04  0.00000000000E+00 0. -1.
          1   -1    0    0  501    0 -0.00000000000E+00 -0.00000000000E+00 -0.67963456360E+03  0.67963456360E+03  0.00000000000E+00 0. -1.
         25    2    1    2    0    0 -0.61499744293E+02  0.30341057245E+02 -0.22528433964E+03  0.26659813581E+03  0.12497493360E+03 0.  0.
          2    1    1    2  501    0  0.30934781250E+02 -0.23292179371E+02 -0.43265605456E+03  0.43438548302E+03  0.00000000000E+00 0. -1.
          1    1    1    2  502    0  0.30564963043E+02 -0.70488778741E+01  0.14253030907E+04  0.14256482048E+04  0.00000000000E+00 0. -1.
         22    1    3    3    0    0 -0.88461198530E+02  0.22855275017E+02 -0.89277616386E+02  0.12774286684E+03  0.00000000000E+00 0. -1.
         22    1    3    3    0    0  0.26961454238E+02  0.74857822282E+01 -0.13600672326E+03  0.13885526897E+03  0.00000000000E+00 0. -1.
</event>
<event>
 7    1  0.5553952E-006  0.1656640E+03  0.7818608E-02  0.1205917E+00
          2   -1    0    0  502    0  0.00000000000E+00  0.00000000000E+00  0.64411854503E+03  0.64411854503E+03  0.00000000000E+00 0. -1.
          1   -1    0    0  501    0 -0.00000000000E+00 -0.00000000000E+00 -0.22366709724E+04  0.22366709724E+04  0.00000000000E+00 0. -1.
         25    2    1    2    0    0  0.32108185057E+02 -0.70457556894E+02  0.60896437501E+02  0.15914931996E+03  0.12499970829E+03 0.  0.
          2    1    1    2  501    0  0.62152362013E+02  0.15714393774E+03 -0.21765456679E+04  0.21830960074E+04  0.00000000000E+00 0. -1.
          1    1    1    2  502    0 -0.94260547070E+02 -0.86686380844E+02  0.52309680299E+03  0.53854419007E+03  0.00000000000E+00 0. -1.
         22    1    3    3    0    0  0.51509015391E+02  0.19449244869E+02  0.22310745806E+02  0.59407248471E+02  0.00000000000E+00 0. -1.
         22    1    3    3    0    0 -0.19400830334E+02 -0.89906801763E+02  0.38585691695E+02  0.99742071487E+02  0.00000000000E+00 0. -1.
</event>
<event>
 7    1  0.5553952E-006  0.9305681E+02  0.7818608E-02  0.1391364E+00
          2   -1    0    0  502    0  0.00000000000E+00  0.00000000000E+00  0.17869377594E+04  0.17869377594E+04  0.00000000000E+00 0. -1.
          1   -1    0    0  501    0 -0.00000000000E+00 -0.00000000000E+00 -0.34981207531E+03  0.34981207531E+03  0.00000000000E+00 0. -1.
         25    2    1    2    0    0  0.93912303485E+02  0.58944029036E+02  0.35237672708E+02  0.17076403181E+03  0.12499896670E+03 0.  0.
          2    1    1    2  501    0 -0.28828105602E+01 -0.40633334139E+02 -0.27929025120E+03  0.28224532388E+03  0.00000000000E+00 0. -1.
          1    1    1    2  502    0 -0.91029492925E+02 -0.18310694897E+02  0.16811782626E+04  0.16837404790E+04  0.00000000000E+00 0. -1.
         22    1    3    3    0    0 -0.50603781743E+01  0.53378398078E+02 -0.20068549710E+02  0.57250392978E+02  0.00000000000E+00 0.  1.
         22    1    3    3    0    0  0.98972681659E+02  0.55656309576E+01  0.55306222418E+02  0.11351363883E+03  0.00000000000E+00 0.  1.
</event>
<event>
 7    1  0.5553952E-006  0.8214896E+02  0.7818608E-02  0.1362002E+00
          2   -1    0    0  502    0  0.00000000000E+00  0.00000000000E+00  0.19009147663E+04  0.19009147663E+04  0.00000000000E+00 0. -1.
          1   -1    0    0  501    0 -0.00000000000E+00 -0.00000000000E+00 -0.65055984963E+03  0.65055984963E+03  0.00000000000E+00 0. -1.
         25    2    1    2    0    0 -0.13726299952E+02  0.36388604308E+02  0.21150389157E+03  0.24874272234E+03  0.12500601558E+03 0.  0.
          2    1    1    2  501    0 -0.27672926134E+02 -0.78003267389E+02 -0.62871177789E+03  0.63413626313E+03  0.00000000000E+00 0. -1.
          1    1    1    2  502    0  0.41399226086E+02  0.41614663081E+02  0.16675628030E+04  0.16685956305E+04  0.00000000000E+00 0. -1.
         22    1    3    3    0    0  0.28428743172E+02  0.70430366703E+02  0.13660525020E+03  0.15629979006E+03  0.00000000000E+00 0.  1.
         22    1    3    3    0    0 -0.42155043123E+02 -0.34041762396E+02  0.74898641374E+02  0.92442932274E+02  0.00000000000E+00 0.  1.
</event>
<event>
 7    1  0.5553952E-006  0.9269030E+02  0.7818608E-02  0.1342675E+00
          2   -1    0    0  502    0  0.00000000000E+00  0.00000000000E+00  0.12586037992E+04  0.12586037992E+04  0.00000000000E+00 0. -1.
          1   -1    0    0  501    0 -0.00000000000E+00 -0.00000000000E+00 -0.66176306387E+02  0.66176306387E+02  0.00000000000E+00 0. -1.
         25    2    1    2    0    0 -0.79015345295E+02  0.69008570603E+02  0.33403335691E+03  0.37176318981E+03  0.12499591259E+03 0.  0.
          2    1    1    2  501    0  0.92875622198E+02 -0.92807262369E+01  0.90919837624E+00  0.93342593278E+02  0.00000000000E+00 0. -1.
          1    1    1    2  502    0 -0.13860276903E+02 -0.59727844366E+02  0.85748493748E+03  0.85967432245E+03  0.00000000000E+00 0. -1.
         22    1    3    3    0    0  0.32580979441E+02  0.15046745779E+01  0.73286720112E+02  0.80216753934E+02  0.00000000000E+00 0. -1.
         22    1    3    3    0    0 -0.11159632474E+03  0.67503896025E+02  0.26074663679E+03  0.29154643588E+03  0.00000000000E+00 0. -1.
</event>
<event>
 7    1  0.5553952E-006  0.1158883E+03  0.7818608E-02  0.1251863E+00
          2   -1    0    0  502    0  0.00000000000E+00  0.00000000000E+00  0.27562112110E+04  0.27562112110E+04  0.00000000000E+00 0. -1.
          1   -1    0    0  501    0 -0.00000000000E+00 -0.00000000000E+00 -0.85309051364E+03  0.85309051364E+03  0.00000000000E+00 0. -1.
         25    2    1    2    0    0  0.17878872045E+03  0.55256969155E+02 -0.51164994472E+03  0.55895381527E+03  0.12499984988E+03 0.  0.
          2    1    1    2  501    0 -0.10786008675E+03  0.36281439717E+02 -0.30632980569E+03  0.32678447184E+03  0.00000000000E+00 0. -1.
          1    1    1    2  502    0 -0.70928633694E+02 -0.91538408873E+02  0.27211004478E+04  0.27235634376E+04  0.00000000000E+00 0. -1.
         22    1    3    3    0    0  0.57927505436E+02 -0.26845760512E+01 -0.31922907907E+03  0.32445339844E+03  0.00000000000E+00 0. -1.
         22    1    3    3    0    0  0.12086121501E+03  0.57941545206E+02 -0.19242086565E+03  0.23450041683E+03  0.00000000000E+00 0. -1.
</event>
<event>
 7    1  0.5553952E-006  0.2055264E+03  0.7818608E-02  0.1302675E+00
          2   -1    0    0  502    0  0.00000000000E+00  0.00000000000E+00  0.23081967077E+04  0.23081967077E+04  0.00000000000E+00 0. -1.
          1   -1    0    0  501    0 -0.00000000000E+00 -0.00000000000E+00 -0.92124953192E+02  0.92124953192E+02  0.00000000000E+00 0. -1.
         25    2    1    2    0    0 -0.14046623868E+03 -0.15636344472E+03  0.31382564845E+03  0.39785914741E+03  0.12500028998E+03 0.  0.
          2    1    1    2  501    0 -0.23003660086E+02  0.32079439922E+02 -0.35966060626E+02  0.53402400321E+02  0.00000000000E+00 0. -1.
          1    1    1    2  502    0  0.16346989877E+03  0.12428400480E+03  0.19382121667E+04  0.19490601132E+04  0.00000000000E+00 0. -1.
         22    1    3    3    0    0 -0.89060240011E+02 -0.16921244002E+03  0.25419790879E+03  0.31808985058E+03  0.00000000000E+00 0. -1.
         22    1    3    3    0    0 -0.51405998671E+02  0.12848995294E+02  0.59627739665E+02  0.79769296831E+02  0.00000000000E+00 0. -1.
</event>
<event>
 7    1  0.5553952E-006  0.7136434E+02  0.7818608E-02  0.1378549E+00
          2   -1    0    0  502    0  0.00000000000E+00  0.00000000000E+00  0.17282132523E+03  0.17282132523E+03  0.00000000000E+00 0. -1.
          1   -1    0    0  501    0 -0.00000000000E+00 -0.00000000000E+00 -0.99094423147E+03  0.99094423147E+03  0.00000000000E+00 0. -1.
         25    2    1    2    0    0  0.96800430016E+02 -0.56393391169E+02  0.76329815375E+01  0.16803167052E+03  0.12500336824E+03 0.  0.
          2    1    1    2  501    0 -0.37979711923E+02  0.59884777011E+02 -0.89896472172E+03  0.90175729326E+03  0.00000000000E+00 0. -1.
          1    1    1    2  502    0 -0.58820718094E+02 -0.34913858412E+01  0.73208833940E+02  0.93976592932E+02  0.00000000000E+00 0. -1.
         22    1    3    3    0    0  0.80018693420E+02 -0.45066753437E+02 -0.51665299601E+02  0.10537222948E+03  0.00000000000E+00 0.  1.
         22    1    3    3    0    0  0.16781736596E+02 -0.11326637732E+02  0.59298281138E+02  0.62659441040E+02  0.00000000000E+00 0.  1.
</event>
<event>
 7    1  0.5553952E-006  0.7211297E+02  0.7818608E-02  0.1363388E+00
          2   -1    0    0  502    0  0.00000000000E+00  0.00000000000E+00  0.16630444978E+04  0.16630444978E+04  0.00000000000E+00 0. -1.
          1   -1    0    0  501    0 -0.00000000000E+00 -0.00000000000E+00 -0.30916000746E+03  0.30916000746E+03  0.00000000000E+00 0. -1.
         25    2    1    2    0    0 -0.24679566190E+02  0.31879460715E+02  0.18042642210E+03  0.22317034746E+03  0.12500371670E+03 0.  0.
          2    1    1    2  501    0  0.55488150266E+02  0.35917320598E+02 -0.28302888658E+03  0.29064469611E+03  0.00000000000E+00 0. -1.
          1    1    1    2  502    0 -0.30808584077E+02 -0.67796781314E+02  0.14564869548E+04  0.14583894616E+04  0.00000000000E+00 0. -1.
         22    1    3    3    0    0  0.50267100394E+02  0.75996139616E+01  0.88882539521E+02  0.10239453768E+03  0.00000000000E+00 0. -1.
         22    1    3    3    0    0 -0.74946666584E+02  0.24279846754E+02  0.91543882582E+02  0.12077580978E+03  0.00000000000E+00 0. -1.
</event>
<event>
 7    1  0.5553952E-006  0.9929021E+02  0.7818608E-02  0.1359418E+00
          2   -1    0    0  502    0  0.00000000000E+00  0.00000000000E+00  0.11061303578E+04  0.11061303578E+04  0.00000000000E+00 0. -1.
          1   -1    0    0  501    0 -0.00000000000E+00 -0.00000000000E+00 -0.44139136910E+03  0.44139136910E+03  0.00000000000E+00 0. -1.
         25    2    1    2    0    0 -0.46170829469E+02  0.92706420320E+02  0.31328859890E+03  0.35284686488E+03  0.12499975197E+03 0.  0.
          2    1    1    2  501    0  0.81130921898E+02 -0.57477842964E+02 -0.41493638525E+03  0.42668270732E+03  0.00000000000E+00 0. -1.
          1    1    1    2  502    0 -0.34960092429E+02 -0.35228577356E+02  0.76638677509E+03  0.76799215475E+03  0.00000000000E+00 0. -1.
         22    1    3    3    0    0  0.10714298733E+02  0.20624654865E+00 -0.82127711361E+01  0.13501420100E+02  0.00000000000E+00 0.  1.
         22    1    3    3    0    0 -0.56885128202E+02  0.92500173771E+02  0.32150137003E+03  0.33934544478E+03  0.00000000000E+00 0.  1.
</event>
<event>
 7    1  0.5553952E-006  0.1163523E+03  0.7818608E-02  0.1413996E+00
          2   -1    0    0  502    0  0.00000000000E+00  0.00000000000E+00  0.17534769003E+04  0.17534769003E+04  0.00000000000E+00 0. -1.
          1   -1    0    0  501    0 -0.00000000000E+00 -0.00000000000E+00 -0.28657061695E+03  0.28657061695E+03  0.00000000000E+00 0. -1.
         25    2    1    2    0    0 -0.12121977955E+03 -0.59167111323E+02 -0.18461845255E+03  0.26058393026E+03  0.12500011868E+03 0.  0.
          2    1    1    2  501    0  0.10051771125E+02  0.25332020902E+02 -0.59003117368E+02  0.64993209222E+02  0.00000000000E+00 0. -1.
          1    1    1    2  502    0  0.11116800843E+03  0.33835090421E+02  0.17105278532E+04  0.17144703777E+04  0.00000000000E+00 0. -1.
         22    1    3    3    0    0 -0.28732145243E+02 -0.63778764126E+02 -0.21793490591E+02  0.73268159223E+02  0.00000000000E+00 0. -1.
         22    1    3    3    0    0 -0.92487634310E+02  0.46116528031E+01 -0.16282496196E+03  0.18731577103E+03  0.00000000000E+00 0. -1.
</event>
<event>
 7    1  0.5553952E-006  0.5069985E+02  0.7818608E-02  0.1485699E+00
          2   -1    0    0  502    0  0.00000000000E+00  0.00000000000E+00  0.13786180896E+04  0.13786180896E+04  0.00000000000E+00 0. -1.
          1   -1    0    0  501    0 -0.00000000000E+00 -0.00000000000E+00 -0.15037474672E+03  0.15037474672E+03  0.00000000000E+00 0. -1.
         25    2    1    2    0    0 -0.13168893000E+02  0.61154514828E+02  0.11245489571E+03  0.17939947243E+03  0.12499909084E+03 0.  0.
          2    1    1    2  501    0 -0.20577422653E+02 -0.46322590933E+02 -0.11111825335E+03  0.12213303804E+03  0.00000000000E+00 0. -1.
          1    1    1    2  502    0  0.33746315653E+02 -0.14831923895E+02  0.12269067005E+04  0.12274603258E+04  0.00000000000E+00 0. -1.
         22    1    3    3    0    0 -0.20090222869E+02 -0.28545444946E+02 -0.60583982177E+00  0.34911696091E+02  0.00000000000E+00 0.  1.
         22    1    3    3    0    0  0.69213298686E+01  0.89699959774E+02  0.11306073553E+03  0.14448777634E+03  0.00000000000E+00 0.  1.
</event>
<event>
 7    1  0.5553952E-006  0.1562101E+03  0.7818608E-02  0.1368323E+00
          2   -1    0    0  502    0  0.00000000000E+00  0.00000000000E+00  0.25857789526E+04  0.25857789526E+04  0.00000000000E+00 0. -1.
          1   -1    0    0  501    0 -0.00000000000E+00 -0.00000000000E+00 -0.18634164395E+03  0.18634164395E+03  0.00000000000E+00 0. -1.
         25    2    1    2    0    0 -0.10982889061E+03  0.66325828423E+02  0.12684130770E+04  0.12809985931E+04  0.12499664290E+03 0.  0.
          2    1    1    2  501    0  0.13768031004E+03 -0.75375405003E+02 -0.14563982909E+03  0.21412211299E+03  0.00000000000E+00 0. -1.
          1    1    1    2  502    0 -0.27851419427E+02  0.90495765796E+01  0.12766640608E+04  0.12769998905E+04  0.00000000000E+00 0. -1.
         22    1    3    3    0    0 -0.91177079492E+01  0.31580391660E+02  0.64612286144E+02  0.72492766924E+02  0.00000000000E+00 0. -1.
         22    1    3    3    0    0 -0.10071118266E+03  0.34745436764E+02  0.12038007909E+04  0.12085058261E+04  0.00000000000E+00 0. -1.
</event>
<event>
 7    1  0.5553952E-006  0.6887282E+02  0.7818608E-02  0.1399096E+00
          2   -1    0    0  502    0  0.00000000000E+00  0.00000000000E+00  0.66903296246E+03  0.66903296246E+03  0.00000000000E+00 0. -1.
          1   -1    0    0  501    0 -0.00000000000E+00 -0.00000000000E+00 -0.16136981496E+03  0.16136981496E+03  0.00000000000E+00 0. -1.
         25    2    1    2    0    0 -0.13054066725E+02  0.70990668057E+02  0.26907743486E+03  0.30534791473E+03  0.12499839786E+03 0.  0.
          2    1    1    2  501    0  0.50674634263E+02 -0.10486494508E+02 -0.13508236474E+03  0.14465521211E+03  0.00000000000E+00 0. -1.
          1    1    1    2  502    0 -0.37620567537E+02 -0.60504173549E+02  0.37366807737E+03  0.38039965059E+03  0.00000000000E+00 0. -1.
         22    1    3    3    0    0 -0.42874444139E+02  0.95788541568E+02  0.18345990081E+03  0.21135561942E+03  0.00000000000E+00 0.  1.
         22    1    3    3    0    0  0.29820377414E+02 -0.24797873511E+02  0.85617534055E+02  0.93992295309E+02  0.00000000000E+00 0.  1.
</event>
<event>
 7    1  0.5553952E-006  0.1009721E+03  0.7818608E-02  0.1344381E+00
          2   -1    0    0  502    0  0.00000000000E+00  0.00000000000E+00  0.57517801650E+03  0.57517801650E+03  0.00000000000E+00 0. -1.
          1   -1    0    0  501    0 -0.00000000000E+00 -0.00000000000E+00 -0.21289915057E+03  0.21289915057E+03  0.00000000000E+00 0. -1.
         25    2    1    2    0    0 -0.50476712919E+02  0.21123895577E+02  0.80880486812E+02  0.15862214814E+03  0.12500086089E+03 0.  0.
          2    1    1    2  501    0 -0.55236797684E+02  0.50185177639E+01 -0.16285951494E+03  0.17204508405E+03  0.00000000000E+00 0. -1.
          1    1    1    2  502    0  0.10571351060E+03 -0.26142413341E+02  0.44425789405E+03  0.45740993488E+03  0.00000000000E+00 0. -1.
         22    1    3    3    0    0  0.21319120256E+02  0.50404281066E+02  0.14662982134E+02  0.56657739836E+02  0.00000000000E+00 0. -1.
         22    1    3    3    0    0 -0.71795833175E+02 -0.29280385489E+02  0.66217504678E+02  0.10196440831E+03  0.00000000000E+00 0. -1.
</event>
<event>
 7    1  0.5553952E-006  0.7439166E+02  0.7818608E-02  0.1499145E+00
          2   -1    0    0  502    0  0.00000000000E+00  0.00000000000E+00  0.14653072526E+04  0.14653072526E+04  0.00000000000E+00 0. -1.
          1   -1    0    0  501    0 -0.00000000000E+00 -0.00000000000E+00 -0.22022875410E+02  0.22022875410E+02  0.00000000000E+00 0. -1.
         25    2    1    2    0    0  0.27989949926E+01  0.69103040690E+02  0.24927660215E+03  0.28731055447E+03  0.12500186288E+03 0.  0.
          2    1    1    2  501    0 -0.16026354365E+02 -0.87775896755E+02  0.72757389765E+03  0.73302471215E+03  0.00000000000E+00 0. -1.
          1    1    1    2  502    0  0.13227359372E+02  0.18672856065E+02  0.46643387737E+03  0.46699486137E+03  0.00000000000E+00 0. -1.
         22    1    3    3    0    0 -0.39560354989E+01  0.58152661736E+02  0.26248067492E+03  0.26887448185E+03  0.00000000000E+00 0. -1.
         22    1    3    3    0    0  0.67550304915E+01  0.10950378954E+02 -0.13204072763E+02  0.18436072622E+02  0.00000000000E+00 0. -1.
</event>
<event>
 7    1  0.5553952E-006  0.8500241E+02  0.7818608E-02  0.1382525E+00
          2   -1    0    0  502    0  0.00000000000E+00  0.00000000000E+00  0.17525261535E+03  0.17525261535E+03  0.00000000000E+00 0. -1.
          1   -1    0    0  501    0 -0.00000000000E+00 -0.00000000000E+00 -0.23198326053E+03  0.23198326053E+03  0.00000000000E+00 0. -1.
         25    2    1    2    0    0  0.99090036347E+02  0.81629810845E+02  0.33108223553E+02  0.18221888909E+03  0.12500123100E+03 0.  0.
          2    1    1    2  501    0 -0.63531695763E+02 -0.49545925479E+02 -0.13627394529E+03  0.15830875927E+03  0.00000000000E+00 0. -1.
          1    1    1    2  502    0 -0.35558340583E+02 -0.32083885365E+02  0.46435076554E+02  0.66708227527E+02  0.00000000000E+00 0. -1.
         22    1    3    3    0    0  0.86782586119E+02  0.20536099851E+02  0.66753628893E+02  0.11139567146E+03  0.00000000000E+00 0. -1.
         22    1    3    3    0    0  0.12307450227E+02  0.61093710993E+02 -0.33645405340E+02  0.70823217624E+02  0.00000000000E+00 0. -1.
</event>
<event>
 7    1  0.5553952E-006  0.1320071E+03  0.7818608E-02  0.1242161E+00
          2   -1    0    0  502    0  0.00000000000E+00  0.00000000000E+00  0.29540491328E+03  0.29540491328E+03  0.00000000000E+00 0. -1.
          1   -1    0    0  501    0 -0.00000000000E+00 -0.00000000000E+00 -0.20277623515E+04  0.20277623515E+04  0.00000000000E+00 0. -1.
         25    2    1    2    0    0 -0.12125756557E+03 -0.20220387821E+03 -0.77011886308E+02  0.27775120668E+03  0.12500038643E+03 0.  0.
          2    1    1    2  501    0  0.84525898017E+02  0.98388625894E+02 -0.18323588449E+04  0.18369441705E+04  0.00000000000E+00 0. -1.
          1    1    1    2  502    0  0.36731667548E+02  0.10381525232E+03  0.17701329299E+03  0.20847188758E+03  0.00000000000E+00 0. -1.
         22    1    3    3    0    0  0.85798719705E+01 -0.73329266686E+02  0.11168425367E+02  0.74669466858E+02  0.00000000000E+00 0. -1.
         22    1    3    3    0    0 -0.12983743754E+03 -0.12887461152E+03 -0.88180311675E+02  0.20308173982E+03  0.00000000000E+00 0. -1.
</event>
<event>
 7    1  0.5553952E-006  0.8236155E+02  0.7818608E-02  0.1404882E+00
          2   -1    0    0  502    0  0.00000000000E+00  0.00000000000E+00  0.18460016468E+03  0.18460016468E+03  0.00000000000E+00 0. -1.
          1   -1    0    0  501    0 -0.00000000000E+00 -0.00000000000E+00 -0.72010815965E+03  0.72010815965E+03  0.00000000000E+00 0. -1.
         25    2    1    2    0    0 -0.33795671971E+02  0.37884290422E+02 -0.13218430487E+03  0.18887692371E+03  0.12499773979E+03 0.  0.
          2    1    1    2  501    0  0.74791942853E+02 -0.43212558028E+02 -0.55343304601E+03  0.56013328441E+03  0.00000000000E+00 0. -1.
          1    1    1    2  502    0 -0.40996270882E+02  0.53282676055E+01  0.15010935591E+03  0.15569811621E+03  0.00000000000E+00 0. -1.
         22    1    3    3    0    0 -0.72659215051E+02 -0.54099516457E+01 -0.95415705292E+02  0.12005326287E+03  0.00000000000E+00 0.  1.
         22    1    3    3    0    0  0.38863543080E+02  0.43294242068E+02 -0.36768599575E+02  0.68823660842E+02  0.00000000000E+00 0.  1.
</event>
<event>
 7    1  0.5553952E-006  0.5692037E+02  0.7818608E-02  0.1421970E+00
          2   -1    0    0  502    0  0.00000000000E+00  0.00000000000E+00  0.16536648158E+03  0.16536648158E+03  0.00000000000E+00 0. -1.
          1   -1    0    0  501    0 -0.00000000000E+00 -0.00000000000E+00 -0.67248733197E+03  0.67248733197E+03  0.00000000000E+00 0. -1.
         25    2    1    2    0    0 -0.19311868493E+02  0.83245770042E+02 -0.26149872254E+03  0.30217378897E+03  0.12499844140E+03 0.  0.
          2    1    1    2  501    0 -0.23929607781E+02 -0.46601443354E+02 -0.38326245476E+03  0.38682609772E+03  0.00000000000E+00 0. -1.
          1    1    1    2  502    0  0.43241476275E+02 -0.36644326687E+02  0.13764032692E+03  0.14885392686E+03  0.00000000000E+00 0. -1.
         22    1    3    3    0    0  0.53379122291E+02  0.29417388039E+02 -0.10298742988E+03  0.11967089926E+03  0.00000000000E+00 0.  1.
         22    1    3    3    0    0 -0.72690990784E+02  0.53828382003E+02 -0.15851129266E+03  0.18250288971E+03  0.00000000000E+00 0.  1.
</event>
<event>
 7    1  0.5553952E-006  0.9450730E+02  0.7818608E-02  0.1327337E+00
          2   -1    0    0  502    0  0.00000000000E+00  0.00000000000E+00  0.68599576796E+03  0.68599576796E+03  0.00000000000E+00 0. -1.
          1   -1    0    0  501    0 -0.00000000000E+00 -0.00000000000E+00 -0.66510325802E+03  0.66510325802E+03  0.00000000000E+00 0. -1.
         25    2    1    2    0    0 -0.13269104434E+03  0.68113706845E+02 -0.29340761004E+03  0.35207875860E+03  0.12500014528E+03 0.  0.
          2    1    1    2  501    0  0.65279059914E+02 -0.54608520516E+02 -0.33522830783E+03  0.34586336109E+03  0.00000000000E+00 0. -1.
          1    1    1    2  502    0  0.67411984427E+02 -0.13505186329E+02  0.64952842781E+03  0.65315690629E+03  0.00000000000E+00 0. -1.
         22    1    3    3    0    0 -0.27379152218E+02 -0.31851871735E+02 -0.11263473979E+03  0.12021124871E+03  0.00000000000E+00 0.  1.
         22    1    3    3    0    0 -0.10531189212E+03  0.99965578581E+02 -0.18077287025E+03  0.23186750989E+03  0.00000000000E+00 0.  1.
</event>
<event>
 7    1  0.5553952E-006  0.5597996E+02  0.7818608E-02  0.1460445E+00
          2   -1    0    0  502    0  0.00000000000E+00  0.00000000000E+00  0.56463730565E+03  0.56463730565E+03  0.00000000000E+00 0. -1.
          1   -1    0    0  501    0 -0.00000000000E+00 -0.00000000000E+00 -0.16587550343E+04  0.16587550343E+04  0.00000000000E+00 0. -1.
         25    2    1    2    0    0  0.27199609128E+01 -0.47936971834E+02 -0.38530040005E+03  0.40791278882E+03  0.12502437184E+03 0.  0.
          2    1    1    2  501    0  0.37014216307E+02  0.43562939240E+02 -0.12607779948E+04  0.12620732681E+04  0.00000000000E+00 0. -1.
          1    1    1    2  502    0 -0.39734177219E+02  0.43740325940E+01  0.55196066622E+03  0.55340628299E+03  0.00000000000E+00 0. -1.
         22    1    3    3    0    0  0.39634647382E+02 -0.74364517268E+02 -0.19794530526E+03  0.21513560974E+03  0.00000000000E+00 0.  1.
         22    1    3    3    0    0 -0.36914686469E+02  0.26427545434E+02 -0.18735509478E+03  0.19277717909E+03  0.00000000000E+00 0.  1.
</event>
<event>
 7    1  0.5553952E-006  0.7726553E+02  0.7818608E-02  0.1382211E+00
          2   -1    0    0  502    0  0.00000000000E+00  0.00000000000E+00  0.33303804095E+03  0.33303804095E+03  0.00000000000E+00 0. -1.
          1   -1    0    0  501    0 -0.00000000000E+00 -0.00000000000E+00 -0.17564157397E+04  0.17564157397E+04  0.00000000000E+00 0. -1.
         25    2    1    2    0    0  0.25361568579E+02 -0.36923117849E+02 -0.21688591112E+02  0.13453848342E+03  0.12499473086E+03 0.  0.
          2    1    1    2  501    0 -0.30242926242E+02 -0.43309224084E+02 -0.16720368492E+04  0.16728710496E+04  0.00000000000E+00 0. -1.
          1    1    1    2  502    0  0.48813576628E+01  0.80232341933E+02  0.27034774149E+03  0.28204424772E+03  0.00000000000E+00 0. -1.
         22    1    3    3    0    0  0.51971856212E+02  0.30477914863E+02 -0.11953724209E+02  0.61423681548E+02  0.00000000000E+00 0. -1.
         22    1    3    3    0    0 -0.26610287632E+02 -0.67401032711E+02 -0.97348669031E+01  0.73114801867E+02  0.00000000000E+00 0. -1.
</event>
<event>
 7    1  0.5553952E-006  0.7186701E+02  0.7818608E-02  0.1356993E+00
          2   -1    0    0  502    0  0.00000000000E+00  0.00000000000E+00  0.71344062541E+02  0.71344062541E+02  0.00000000000E+00 0. -1.
          1   -1    0    0  501    0 -0.00000000000E+00 -0.00000000000E+00 -0.92575294022E+03  0.92575294022E+03  0.00000000000E+00 0. -1.
         25    2    1    2    0    0 -0.14952375816E+02 -0.23749610220E+02 -0.42641692127E+01  0.12818538123E+03  0.12500276515E+03 0.  0.
          2    1    1    2  501    0  0.67249600820E+02 -0.25544076147E+02 -0.68551487630E+03  0.68927908300E+03  0.00000000000E+00 0. -1.
          1    1    1    2  502    0 -0.52297225005E+02  0.49293686367E+02 -0.16462983217E+03  0.17963253853E+03  0.00000000000E+00 0. -1.
         22    1    3    3    0    0 -0.18647030171E+02 -0.21547684397E+02 -0.63077233742E+02  0.69215257376E+02  0.00000000000E+00 0. -1.
         22    1    3    3    0    0  0.36946543555E+01 -0.22019258232E+01  0.58813064529E+02  0.58970123855E+02  0.00000000000E+00 0. -1.
</event>
<event>
 7    1  0.5553952E-006  0.7954379E+02  0.7818608E-02  0.1352153E+00
          2   -1    0    0  502    0  0.00000000000E+00  0.00000000000E+00  0.80515420309E+03  0.80515420309E+03  0.00000000000E+00 0. -1.
          1   -1    0    0  501    0 -0.00000000000E+00 -0.00000000000E+00 -0.12920365111E+03  0.12920365111E+03  0.00000000000E+00 0. -1.
         25    2    1    2    0    0 -0.26015979519E+02 -0.10608157248E+02 -0.18154122139E+02  0.12939742924E+03  0.12499903341E+03 0.  0.
          2    1    1    2  501    0 -0.47434711010E+02  0.45714669495E+02 -0.32744182560E+02  0.73566733699E+02  0.00000000000E+00 0. -1.
          1    1    1    2  502    0  0.73450690530E+02 -0.35106512247E+02  0.72684885668E+03  0.73139369125E+03  0.00000000000E+00 0. -1.
         22    1    3    3    0    0 -0.13178518600E+02 -0.68019790008E+02 -0.10298776440E+02  0.70045913381E+02  0.00000000000E+00 0. -1.
         22    1    3    3    0    0 -0.12837460919E+02  0.57411632760E+02 -0.78553456993E+01  0.59351515862E+02  0.00000000000E+00 0. -1.
</event>
<event>
 7    1  0.5553952E-006  0.9672607E+02  0.7818608E-02  0.1323163E+00
          2   -1    0    0  502    0  0.00000000000E+00  0.00000000000E+00  0.36882016779E+02  0.36882016779E+02  0.00000000000E+00 0. -1.
          1   -1    0    0  501    0 -0.00000000000E+00 -0.00000000000E+00 -0.82970175633E+03  0.82970175633E+03  0.00000000000E+00 0. -1.
         25    2    1    2    0    0 -0.33081690076E+02  0.84930917528E+02 -0.27653506377E+03  0.31686741572E+03  0.12500263469E+03 0.  0.
          2    1    1    2  501    0  0.64445025104E+02  0.26565988411E+02 -0.14691576187E+03  0.16261351139E+03  0.00000000000E+00 0. -1.
          1    1    1    2  502    0 -0.31363335028E+02 -0.11149690594E+03 -0.36936891391E+03  0.38710284600E+03  0.00000000000E+00 0. -1.
         22    1    3    3    0    0 -0.19000772363E+02  0.90146844199E+01  0.76510038310E+01  0.22379270435E+02  0.00000000000E+00 0.  1.
         22    1    3    3    0    0 -0.14080917713E+02  0.75916233108E+02 -0.28418606760E+03  0.29448814528E+03  0.00000000000E+00 0.  1.
</event>
<event>
 7    1  0.5553952E-006  0.2717860E+03  0.7818608E-02  0.1286533E+00
          2   -1    0    0  502    0  0.00000000000E+00  0.00000000000E+00  0.93316706774E+02  0.93316706774E+02  0.00000000000E+00 0. -1.
          1   -1    0    0  501    0 -0.00000000000E+00 -0.00000000000E+00 -0.14774366595E+04  0.14774366595E+04  0.00000000000E+00 0. -1.
         25    2    1    2    0    0 -0.91373327533E+02 -0.23909166449E+03 -0.86667172786E+03  0.91228230371E+03  0.12500083508E+03 0.  0.
          2    1    1    2  501    0  0.19747327013E+02 -0.28514387049E+02 -0.31113051275E+03  0.31305785912E+03  0.00000000000E+00 0. -1.
          1    1    1    2  502    0  0.71626000520E+02  0.26760605154E+03 -0.20631771207E+03  0.34541320340E+03  0.00000000000E+00 0. -1.
         22    1    3    3    0    0 -0.75662755416E+02 -0.20931331930E+03 -0.84097295443E+03  0.86992667983E+03  0.00000000000E+00 0. -1.
         22    1    3    3    0    0 -0.15710572117E+02 -0.29778345188E+02 -0.25698773434E+02  0.42355623882E+02  0.00000000000E+00 0. -1.
</event>
<event>
 7    1  0.5553952E-006  0.7933252E+02  0.7818608E-02  0.1440056E+00
          2   -1    0    0  502    0  0.00000000000E+00  0.00000000000E+00  0.61335505287E+03  0.61335505287E+03  0.00000000000E+00 0. -1.
          1   -1    0    0  501    0 -0.00000000000E+00 -0.00000000000E+00 -0.33798922230E+03  0.33798922230E+03  0.00000000000E+00 0. -1.
         25    2    1    2    0    0  0.61534712107E+02  0.51537353235E+02  0.32534969339E+03  0.35765723785E+03  0.12499462878E+03 0.  0.
          2    1    1    2  501    0 -0.35273539470E+02 -0.71151412159E+02 -0.31591484781E+03  0.32574366780E+03  0.00000000000E+00 0. -1.
          1    1    1    2  502    0 -0.26261172637E+02  0.19614058924E+02  0.26593098499E+03  0.26794336953E+03  0.00000000000E+00 0. -1.
         22    1    3    3    0    0 -0.20490587529E+02  0.43723272440E+02  0.21256529652E+03  0.21798071936E+03  0.00000000000E+00 0.  1.
         22    1    3    3    0    0  0.82025299635E+02  0.78140807946E+01  0.11278439687E+03  0.13967651849E+03  0.00000000000E+00 0.  1.
</event>
<event>
 7    1  0.5553952E-006  0.9321745E+02  0.7818608E-02  0.1419978E+00
          2   -1    0    0  502    0  0.00000000000E+00  0.00000000000E+00  0.11922138349E+03  0.11922138349E+03  0.00000000000E+00 0. -1.
          1   -1    0    0  501    0 -0.00000000000E+00 -0.00000000000E+00 -0.36589113992E+03  0.36589113992E+03  0.00000000000E+00 0. -1.
         25    2    1    2    0    0  0.78043849880E+02 -0.28618901666E+01 -0.17070660938E+03  0.22553066233E+03  0.12499720096E+03 0.  0.
          2    1    1    2  501    0  0.13811442057E+02  0.29398625796E+02 -0.14051429562E+03  0.14421963252E+03  0.00000000000E+00 0. -1.
          1    1    1    2  502    0 -0.91855291937E+02 -0.26536735630E+02  0.64551148573E+02  0.11536222855E+03  0.00000000000E+00 0. -1.
         22    1    3    3    0    0  0.98838060451E+02  0.30115887477E+02 -0.14772875276E+03  0.18027676851E+03  0.00000000000E+00 0. -1.
         22    1    3    3    0    0 -0.20794210571E+02 -0.32977777643E+02 -0.22977856624E+02  0.45253893828E+02  0.00000000000E+00 0. -1.
</event>
<event>
 7    1  0.7527505E-006  0.1240355E+03  0.7818608E-02  0.1266764E+00
          2   -1    0    0  502    0  0.00000000000E+00  0.00000000000E+00  0.12884933405E+04  0.12884933405E+04  0.00000000000E+00 0. -1.
          1   -1    0    0  501    0 -0.00000000000E+00 -0.00000000000E+00 -0.19098132924E+04  0.19098132924E+04  0.00000000000E+00 0. -1.
         25    2    1    2    0    0  0.58840467431E+02 -0.18332033439E+02 -0.17472274211E+03  0.22350383946E+03  0.12501066188E+03 0.  0.
          2    1    1    2  501    0 -0.12311505076E+03 -0.47246230053E+02 -0.17064853345E+04  0.17115728787E+04  0.00000000000E+00 0. -1.
          1    1    1    2  502    0  0.64274583328E+02  0.65578263492E+02  0.12598881248E+04  0.12632299148E+04  0.00000000000E+00 0. -1.
         22    1    3    3    0    0 -0.17928400299E+02 -0.47660215056E+02 -0.10096187183E+03  0.11307618317E+03  0.00000000000E+00 0.  1.
         22    1    3    3    0    0  0.76768867729E+02  0.29328181617E+02 -0.73760870279E+02  0.11042765629E+03  0.00000000000E+00 0.  1.
</event>
<event>
 7    1  0.5553952E-006  0.9444362E+02  0.7818608E-02  0.1399880E+00
          2   -1    0    0  502    0  0.00000000000E+00  0.00000000000E+00  0.31417108892E+03  0.31417108892E+03  0.00000000000E+00 0. -1.
          1   -1    0    0  501    0 -0.00000000000E+00 -0.00000000000E+00 -0.13540264372E+04  0.13540264372E+04  0.00000000000E+00 0. -1.
         25    2    1    2    0    0  0.10449359600E+03 -0.27209023370E+02  0.23792742146E+03  0.28964615311E+03  0.12500477419E+03 0.  0.
          2    1    1    2  501    0 -0.93987741385E+02 -0.87932343850E+01 -0.13192598561E+04  0.13226328230E+04  0.00000000000E+00 0. -1.
          1    1    1    2  502    0 -0.10505854618E+02  0.36002257755E+02  0.41477086353E+02  0.55918550026E+02  0.00000000000E+00 0. -1.
         22    1    3    3    0    0  0.11022670337E+03 -0.18848256135E+01  0.23947828174E+03  0.26363483481E+03  0.00000000000E+00 0.  1.
         22    1    3    3    0    0 -0.57331073691E+01 -0.25324197757E+02 -0.15508602737E+01  0.26011318300E+02  0.00000000000E+00 0.  1.
</event>
<event>
 7    1  0.5553952E-006  0.5718478E+02  0.7818608E-02  0.1518246E+00
          2   -1    0    0  502    0  0.00000000000E+00  0.00000000000E+00  0.13314130510E+03  0.13314130510E+03  0.00000000000E+00 0. -1.
          1   -1    0    0  501    0 -0.00000000000E+00 -0.00000000000E+00 -0.42659468123E+03  0.42659468123E+03  0.00000000000E+00 0. -1.
         25    2    1    2    0    0 -0.38867962078E+02  0.30548960612E+02 -0.14204534817E+03  0.19556603797E+03  0.12500094721E+03 0.  0.
          2    1    1    2  501    0 -0.17786578056E+02 -0.19165802284E+02 -0.24920668055E+03  0.25057465947E+03  0.00000000000E+00 0. -1.
          1    1    1    2  502    0  0.56654540134E+02 -0.11383158328E+02  0.97798652588E+02  0.11359528890E+03  0.00000000000E+00 0. -1.
         22    1    3    3    0    0 -0.61054601538E+02 -0.22892032934E+02 -0.11384597345E+03  0.13119685671E+03  0.00000000000E+00 0. -1.
         22    1    3    3    0    0  0.22186639460E+02  0.53440993546E+02 -0.28199374720E+02  0.64369181262E+02  0.00000000000E+00 0. -1.
</event>
<event>
 7    1  0.5553952E-006  0.3362284E+02  0.7818608E-02  0.1586663E+00
          2   -1    0    0  502    0  0.00000000000E+00  0.00000000000E+00  0.10753510798E+04  0.10753510798E+04  0.00000000000E+00 0. -1.
          1   -1    0    0  501    0 -0.00000000000E+00 -0.00000000000E+00 -0.20976769359E+02  0.20976769359E+02  0.00000000000E+00 0. -1.
         25    2    1    2    0    0 -0.15430481750E+02  0.12298652463E+02  0.27706961637E+03  0.30460001396E+03  0.12499695822E+03 0.  0.
          2    1    1    2  501    0  0.36384801626E+02  0.73007798651E+01  0.42738633140E+02  0.56601642544E+02  0.00000000000E+00 0. -1.
          1    1    1    2  502    0 -0.20954319876E+02 -0.19599432328E+02  0.73456606092E+03  0.73512619265E+03  0.00000000000E+00 0. -1.
         22    1    3    3    0    0  0.39680070315E+02  0.94926172340E+01  0.22520293753E+03  0.22886891627E+03  0.00000000000E+00 0. -1.
         22    1    3    3    0    0 -0.55110552065E+02  0.28060352293E+01  0.51866678848E+02  0.75731097690E+02  0.00000000000E+00 0. -1.
</event>
<event>
 7    1  0.5553952E-006  0.1885848E+03  0.7818608E-02  0.1371075E+00
          2   -1    0    0  502    0  0.00000000000E+00  0.00000000000E+00  0.38183441135E+02  0.38183441135E+02  0.00000000000E+00 0. -1.
          1   -1    0    0  501    0 -0.00000000000E+00 -0.00000000000E+00 -0.21291058947E+04  0.21291058947E+04  0.00000000000E+00 0. -1.
         25    2    1    2    0    0  0.12147653194E+03  0.13700485633E+03 -0.74618369642E+03  0.77842305892E+03  0.12500188555E+03 0.  0.
          2    1    1    2  501    0 -0.11721475652E+02  0.20610784721E+02 -0.94584000397E+03  0.94613715208E+03  0.00000000000E+00 0. -1.
          1    1    1    2  502    0 -0.10975505629E+03 -0.15761564105E+03 -0.39889875315E+03  0.44272912481E+03  0.00000000000E+00 0. -1.
         22    1    3    3    0    0  0.27890218059E+02  0.61780437849E+02 -0.49940239736E+03  0.50398158821E+03  0.00000000000E+00 0.  1.
         22    1    3    3    0    0  0.93586313884E+02  0.75224418482E+02 -0.24678129905E+03  0.27444147071E+03  0.00000000000E+00 0.  1.
</event>
<event>
 7    1  0.5553952E-006  0.3877792E+02  0.7818608E-02  0.1586590E+00
          2   -1    0    0  502    0  0.00000000000E+00  0.00000000000E+00  0.16812896592E+04  0.16812896592E+04  0.00000000000E+00 0. -1.
          1   -1    0    0  501    0 -0.00000000000E+00 -0.00000000000E+00 -0.87009333802E+03  0.87009333802E+03  0.00000000000E+00 0. -1.
         25    2    1    2    0    0 -0.53671948902E+02 -0.44789255877E+01  0.75986671308E+02  0.15588289827E+03  0.12499905953E+03 0.  0.
          2    1    1    2  501    0  0.36349981344E+02 -0.13392711424E+02 -0.82959427675E+03  0.83049825399E+03  0.00000000000E+00 0. -1.
          1    1    1    2  502    0  0.17321967558E+02  0.17871637011E+02  0.15648039267E+04  0.15650018450E+04  0.00000000000E+00 0. -1.
         22    1    3    3    0    0 -0.56137722039E+01  0.20235740921E+02 -0.30172075988E+02  0.36760764661E+02  0.00000000000E+00 0. -1.
         22    1    3    3    0    0 -0.48058176698E+02 -0.24714666509E+02  0.10615874730E+03  0.11912213361E+03  0.00000000000E+00 0. -1.
</event>
<event>
 7    1  0.5553952E-006  0.5837667E+02  0.7818608E-02  0.1493177E+00
          2   -1    0    0  502    0  0.00000000000E+00  0.00000000000E+00  0.17454624909E+04  0.17454624909E+04  0.00000000000E+00 0. -1.
          1   -1    0    0  501    0 -0.00000000000E+00 -0.00000000000E+00 -0.18091275532E+03  0.18091275532E+03  0.00000000000E+00 0. -1.
         25    2    1    2    0    0 -0.28810284396E+02  0.67972942306E+02  0.49928987816E+03  0.51996661132E+03  0.12499816433E+03 0.  0.
          2    1    1    2  501    0  0.28604488452E+02 -0.10257441037E+02 -0.16854099711E+03  0.17125857515E+03  0.00000000000E+00 0. -1.
          1    1    1    2  502    0  0.20579594435E+00 -0.57715501269E+02  0.12338008545E+04  0.12351500597E+04  0.00000000000E+00 0. -1.
         22    1    3    3    0    0 -0.26203854129E+02  0.10382052754E+03  0.40904661142E+03  0.42282913124E+03  0.00000000000E+00 0.  1.
         22    1    3    3    0    0 -0.26064302670E+01 -0.35847585230E+02  0.90243266736E+02  0.97137480083E+02  0.00000000000E+00 0.  1.
</event>
<event>
 7    1  0.5553952E-006  0.7524009E+02  0.7818608E-02  0.1429100E+00
          2   -1    0    0  502    0  0.00000000000E+00  0.00000000000E+00  0.17023735361E+03  0.17023735361E+03  0.00000000000E+00 0. -1.
          1   -1    0    0  501    0 -0.00000000000E+00 -0.00000000000E+00 -0.37755510572E+03  0.37755510572E+03  0.00000000000E+00 0. -1.
         25    2    1    2    0    0  0.71032974197E+02  0.71819570423E+02 -0.18339520830E+03  0.24384866198E+03  0.12499853359E+03 0.  0.
          2    1    1    2  501    0 -0.35537011048E+02 -0.59623127101E+02 -0.15380781992E+03  0.16874430926E+03  0.00000000000E+00 0. -1.
          1    1    1    2  502    0 -0.35495963149E+02 -0.12196443322E+02  0.12988527611E+03  0.13519948809E+03  0.00000000000E+00 0. -1.
         22    1    3    3    0    0  0.24236012652E+02 -0.19011488904E+01  0.13963906244E+02  0.28035501671E+02  0.00000000000E+00 0.  1.
         22    1    3    3    0    0  0.46796961545E+02  0.73720719314E+02 -0.19735911455E+03  0.21581316030E+03  0.00000000000E+00 0.  1.
</event>
<event>
 7    1  0.5553952E-006  0.9854763E+02  0.7818608E-02  0.1294715E+00
          2   -1    0    0  502    0  0.00000000000E+00  0.00000000000E+00  0.43945837665E+03  0.43945837665E+03  0.00000000000E+00 0. -1.
          1   -1    0    0  501    0 -0.00000000000E+00 -0.00000000000E+00 -0.48170414434E+03  0.48170414434E+03  0.00000000000E+00 0. -1.
         25    2    1    2    0    0  0.21385110507E+02  0.28767063598E+02  0.29265474279E+02  0.13328725397E+03  0.12499662870E+03 0.  0.
          2    1    1    2  501    0 -0.87309110938E+02  0.45702903573E+02 -0.41693246317E+03  0.42842072206E+03  0.00000000000E+00 0. -1.
          1    1    1    2  502    0  0.65924000431E+02 -0.74469967171E+02  0.34542122120E+03  0.35945454496E+03  0.00000000000E+00 0. -1.
         22    1    3    3    0    0  0.22906925280E+02  0.77511296670E+02  0.12910621337E+02  0.81849938794E+02  0.00000000000E+00 0.  1.
         22    1    3    3    0    0 -0.15218147732E+01 -0.48744233072E+02  0.16354852942E+02  0.51437315178E+02  0.00000000000E+00 0.  1.
</event>
<event>
 7    1  0.5553952E-006  0.8849429E+02  0.7818608E-02  0.1368577E+00
          2   -1    0    0  502    0  0.00000000000E+00  0.00000000000E+00  0.27327199357E+03  0.27327199357E+03  0.00000000000E+00 0. -1.
          1   -1    0    0  501    0 -0.00000000000E+00 -0.00000000000E+00 -0.68814593080E+03  0.68814593080E+03  0.00000000000E+00 0. -1.
         25    2    1    2    0    0 -0.40021851856E+02  0.13098882149E+03 -0.95620889093E+02  0.20863293698E+03  0.12499811191E+03 0.  0.
          2    1    1    2  501    0  0.10120938304E+02 -0.50581960063E+02 -0.52622053854E+03  0.52874287065E+03  0.00000000000E+00 0. -1.
          1    1    1    2  502    0  0.29900913552E+02 -0.80406861423E+02  0.20696749040E+03  0.22404211675E+03  0.00000000000E+00 0. -1.
         22    1    3    3    0    0  0.25531436479E+02 -0.11632785297E+02 -0.96744558526E+01  0.29677786954E+02  0.00000000000E+00 0.  1.
         22    1    3    3    0    0 -0.65553288335E+02  0.14262160678E+03 -0.85946433240E+02  0.17895515002E+03  0.00000000000E+00 0.  1.
</event>
<event>
 7    1  0.5553952E-006  0.9422827E+02  0.7818608E-02  0.1383655E+00
          2   -1    0    0  502    0  0.00000000000E+00  0.00000000000E+00  0.86373228864E+03  0.86373228864E+03  0.00000000000E+00 0. -1.
          1   -1    0    0  501    0 -0.00000000000E+00 -0.00000000000E+00 -0.11700056650E+03  0.11700056650E+03  0.00000000000E+00 0. -1.
         25    2    1    2    0    0 -0.33614719245E+02 -0.81790156472E+02  0.46087722590E+03  0.48564472672E+03  0.12499361657E+03 0.  0.
          2    1    1    2  501    0 -0.40432777141E+02  0.14066036775E+02 -0.93420899766E+02  0.10276248037E+03  0.00000000000E+00 0. -1.
          1    1    1    2  502    0  0.74047496386E+02  0.67724119697E+02  0.37927539601E+03  0.39232564806E+03  0.00000000000E+00 0. -1.
         22    1    3    3    0    0  0.34525991191E+02 -0.40265628872E+02  0.31439626306E+03  0.31883910545E+03  0.00000000000E+00 0.  1.
         22    1    3    3    0    0 -0.68140710435E+02 -0.41524527600E+02  0.14648096285E+03  0.16680562127E+03  0.00000000000E+00 0.  1.
</event>
<event>
 7    1  0.5553952E-006  0.2934733E+03  0.7818608E-02  0.1205520E+00
          2   -1    0    0  502    0  0.00000000000E+00  0.00000000000E+00  0.11915737819E+04  0.11915737819E+04  0.00000000000E+00 0. -1.
          1   -1    0    0  501    0 -0.00000000000E+00 -0.00000000000E+00 -0.18681605543E+04  0.18681605543E+04  0.00000000000E+00 0. -1.
         25    2    1    2    0    0 -0.12959623792E+03  0.18916953147E+03  0.40703207054E+01  0.26121056459E+03  0.12503637478E+03 0.  0.
          2    1    1    2  501    0  0.18550817992E+03 -0.23547783433E+03 -0.17254069766E+04  0.17512545019E+04  0.00000000000E+00 0. -1.
          1    1    1    2  502    0 -0.55911942000E+02  0.46308302857E+02  0.10447498835E+04  0.10472692697E+04  0.00000000000E+00 0. -1.
         22    1    3    3    0    0  0.12659107365E+02  0.71143605631E+02 -0.19565820206E+02  0.74863121374E+02  0.00000000000E+00 0. -1.
         22    1    3    3    0    0 -0.14225534529E+03  0.11802592584E+03  0.23636140911E+02  0.18634744321E+03  0.00000000000E+00 0. -1.
</event>
<event>
 7    1  0.5553952E-006  0.5746694E+02  0.7818608E-02  0.1551548E+00
          2   -1    0    0  502    0  0.00000000000E+00  0.00000000000E+00  0.60193190268E+03  0.60193190268E+03  0.00000000000E+00 0. -1.
          1   -1    0    0  501    0 -0.00000000000E+00 -0.00000000000E+00 -0.37765644006E+02  0.37765644006E+02  0.00000000000E+00 0. -1.
         25    2    1    2    0    0 -0.13859366332E+02  0.37384374839E+02  0.18671103082E+03  0.22820023169E+03  0.12499865279E+03 0.  0.
          2    1    1    2  501    0  0.18327930043E+01  0.20836444302E+02 -0.73167671779E+01  0.22159684639E+02  0.00000000000E+00 0. -1.
          1    1    1    2  502    0  0.12026573328E+02 -0.58220819141E+02  0.38477199504E+03  0.38933763036E+03  0.00000000000E+00 0. -1.
         22    1    3    3    0    0 -0.43785684157E+02 -0.46578083372E+01  0.11446577634E+02  0.45496213635E+02  0.00000000000E+00 0. -1.
         22    1    3    3    0    0  0.29926317824E+02  0.42042183176E+02  0.17526445318E+03  0.18270401806E+03  0.00000000000E+00 0. -1.
</event>
<event>
 7    1  0.5553952E-006  0.1303703E+03  0.7818608E-02  0.1266058E+00
          2   -1    0    0  502    0  0.00000000000E+00  0.00000000000E+00  0.11998239808E+04  0.11998239808E+04  0.00000000000E+00 0. -1.
          1   -1    0    0  501    0 -0.00000000000E+00 -0.00000000000E+00 -0.43431616832E+03  0.43431616832E+03  0.00000000000E+00 0. -1.
         25    2    1    2    0    0  0.14239693749E+03  0.10088078152E+02  0.34156459722E+03  0.39073042002E+03  0.12500091968E+03 0.  0.
          2    1    1    2  501    0 -0.30948820497E+02 -0.82340872382E+02 -0.39962917397E+03  0.40919594994E+03  0.00000000000E+00 0. -1.
          1    1    1    2  502    0 -0.11144811700E+03  0.72252794230E+02  0.82357238919E+03  0.83421377913E+03  0.00000000000E+00 0. -1.
         22    1    3    3    0    0 -0.12282550596E+02  0.33998313533E+01  0.11860145802E+03  0.11928422254E+03  0.00000000000E+00 0. -1.
         22    1    3    3    0    0  0.15467948809E+03  0.66882467992E+01  0.22296313920E+03  0.27144619748E+03  0.00000000000E+00 0. -1.
</event>
<event>
 7    1  0.5553952E-006  0.1081353E+03  0.7818608E-02  0.1300275E+00
          2   -1    0    0  502    0  0.00000000000E+00  0.00000000000E+00  0.25479087143E+04  0.25479087143E+04  0.00000000000E+00 0. -1.
          1   -1    0    0  501    0 -0.00000000000E+00 -0.00000000000E+00 -0.10976364467E+03  0.10976364467E+03  0.00000000000E+00 0. -1.
         25    2    1    2    0    0  0.12800817880E+03 -0.62061994866E+02  0.36763880168E+03  0.41354678131E+03  0.12499946713E+03 0.  0.
          2    1    1    2  501    0 -0.10628196189E+03 -0.11498919897E+02 -0.52941287748E+02  0.11929317051E+03  0.00000000000E+00 0. -1.
          1    1    1    2  502    0 -0.21726216904E+02  0.73560914763E+02  0.21234475557E+04  0.21248324071E+04  0.00000000000E+00 0. -1.
         22    1    3    3    0    0  0.96632248432E+02 -0.97626367803E+01  0.32481430916E+03  0.33902424094E+03  0.00000000000E+00 0. -1.
         22    1    3    3    0    0  0.31375930366E+02 -0.52299358086E+02  0.42824492523E+02  0.74522540365E+02  0.00000000000E+00 0. -1.
</event>
<event>
 7    1  0.5553952E-006  0.5612068E+02  0.7818608E-02  0.1451084E+00
          2   -1    0    0  502    0  0.00000000000E+00  0.00000000000E+00  0.45419619942E+04  0.45419619942E+04  0.00000000000E+00 0. -1.
          1   -1    0    0  501    0 -0.00000000000E+00 -0.00000000000E+00 -0.21236640401E+02  0.21236640401E+02  0.00000000000E+00 0. -1.
         25    2    1    2    0    0 -0.18544004648E+02 -0.98771068252E+01  0.65895761412E+03  0.67103760697E+03  0.12499958165E+03 0.  0.
          2    1    1    2  501    0 -0.38254292854E+02  0.18964003002E+02  0.15439438491E+02  0.45402649620E+02  0.00000000000E+00 0. -1.
          1    1    1    2  502    0  0.56798297502E+02 -0.90868961766E+01  0.38463283012E+04  0.38467583780E+04  0.00000000000E+00 0. -1.
         22    1    3    3    0    0  0.13031681938E+01  0.27950680001E+02  0.58470183167E+03  0.58537096846E+03  0.00000000000E+00 0.  1.
         22    1    3    3    0    0 -0.19847172842E+02 -0.37827786826E+02  0.74255782451E+02  0.85666638509E+02  0.00000000000E+00 0.  1.
</event>
<event>
 7    1  0.5553952E-006  0.2299448E+03  0.7818608E-02  0.1253530E+00
          2   -1    0    0  502    0  0.00000000000E+00  0.00000000000E+00  0.28746801301E+04  0.28746801301E+04  0.00000000000E+00 0. -1.
          1   -1    0    0  501    0 -0.00000000000E+00 -0.00000000000E+00 -0.75390452766E+02  0.75390452766E+02  0.00000000000E+00 0. -1.
         25    2    1    2    0    0  0.57825433398E+02  0.23548231871E+03  0.17947750546E+04  0.18153891301E+04  0.12499797564E+03 0.  0.
          2    1    1    2  501    0 -0.17689159379E+01 -0.22918160515E+03  0.14049778783E+03  0.26882515802E+03  0.00000000000E+00 0. -1.
          1    1    1    2  502    0 -0.56056517460E+02 -0.63007135631E+01  0.86401683493E+03  0.86585629476E+03  0.00000000000E+00 0. -1.
         22    1    3    3    0    0 -0.34209515541E+02  0.11637450119E+03  0.72519322189E+03  0.73526765504E+03  0.00000000000E+00 0. -1.
         22    1    3    3    0    0  0.92034948938E+02  0.11910781752E+03  0.10695818327E+04  0.10801214751E+04  0.00000000000E+00 0. -1.
</event>
<event>
 7    1  0.5553952E-006  0.1862634E+03  0.7818608E-02  0.1274254E+00
          2   -1    0    0  502    0  0.00000000000E+00  0.00000000000E+00  0.28865984949E+03  0.28865984949E+03  0.00000000000E+00 0. -1.
          1   -1    0    0  501    0 -0.00000000000E+00 -0.00000000000E+00 -0.79738704559E+03  0.79738704559E+03  0.00000000000E+00 0. -1.
         25    2    1    2    0    0  0.21339438259E+03 -0.31337994415E+01 -0.35013773947E+03  0.42868207991E+03  0.12499962327E+03 0.  0.
          2    1    1    2  501    0 -0.17118626199E+03 -0.34993388291E+02 -0.38559850844E+03  0.42333849722E+03  0.00000000000E+00 0. -1.
          1    1    1    2  502    0 -0.42208120604E+02  0.38127187733E+02  0.22700905181E+03  0.23402631795E+03  0.00000000000E+00 0. -1.
         22    1    3    3    0    0  0.33434061061E+02  0.26675377557E+02 -0.15824510000E+03  0.16392353058E+03  0.00000000000E+00 0. -1.
         22    1    3    3    0    0  0.17996032153E+03 -0.29809176998E+02 -0.19189263947E+03  0.26475854933E+03  0.00000000000E+00 0. -1.
</event>
<event>
 7    1  0.5553952E-006  0.1150697E+03  0.7818608E-02  0.1267217E+00
          2   -1    0    0  502    0  0.00000000000E+00  0.00000000000E+00  0.10978254726E+04  0.10978254726E+04  0.00000000000E+00 0. -1.
          1   -1    0    0  501    0 -0.00000000000E+00 -0.00000000000E+00 -0.47022295456E+03  0.47022295456E+03  0.00000000000E+00 0. -1.
         25    2    1    2    0    0 -0.18002540750E+03  0.92620040726E+02  0.25746762432E+02  0.23931944682E+03  0.12499313007E+03 0.  0.
          2    1    1    2  501    0  0.97169611225E+02 -0.16405498359E+02 -0.35338982540E+03  0.36687251522E+03  0.00000000000E+00 0. -1.
          1    1    1    2  502    0  0.82855796272E+02 -0.76214542367E+02  0.95524558106E+03  0.96185646517E+03  0.00000000000E+00 0. -1.
         22    1    3    3    0    0 -0.11065644436E+03  0.56417640581E+02  0.76665066555E+02  0.14596345871E+03  0.00000000000E+00 0.  1.
         22    1    3    3    0    0 -0.69368963134E+02  0.36202400145E+02 -0.50918304123E+02  0.93355988117E+02  0.00000000000E+00 0.  1.
</event>
<event>
 7    1  0.5553952E-006  0.2913700E+02  0.7818608E-02  0.1622135E+00
          2   -1    0    0  502    0  0.00000000000E+00  0.00000000000E+00  0.18483778303E+04  0.18483778303E+04  0.00000000000E+00 0. -1.
          1   -1    0    0  501    0 -0.00000000000E+00 -0.00000000000E+00 -0.63193396376E+03  0.63193396376E+03  0.00000000000E+00 0. -1.
         25    2    1    2    0    0 -0.45075357977E+02  0.12759043133E+02  0.10869802607E+03  0.17214816998E+03  0.12500060191E+03 0.  0.
          2    1    1    2  501    0  0.25349770174E+02  0.86278641769E+01 -0.59978623592E+03  0.60038369372E+03  0.00000000000E+00 0. -1.
          1    1    1    2  502    0  0.19725587803E+02 -0.21386907310E+02  0.17075320764E+04  0.17077799304E+04  0.00000000000E+00 0. -1.
         22    1    3    3    0    0 -0.80593814256E+01 -0.55367398567E+02  0.44724876628E+02  0.71629721781E+02  0.00000000000E+00 0.  1.
         22    1    3    3    0    0 -0.37015976551E+02  0.68126441700E+02  0.63973149445E+02  0.10051844820E+03  0.00000000000E+00 0.  1.
</event>
<event>
 7    1  0.5553952E-006  0.6507168E+02  0.7818608E-02  0.1478552E+00
          2   -1    0    0  502    0  0.00000000000E+00  0.00000000000E+00  0.27444857709E+03  0.27444857709E+03  0.00000000000E+00 0. -1.
          1   -1    0    0  501    0 -0.00000000000E+00 -0.00000000000E+00 -0.15715398994E+04  0.15715398994E+04  0.00000000000E+00 0. -1.
         25    2    1    2    0    0 -0.72307776583E+02 -0.16400986695E+02 -0.89777806040E+02  0.17082865249E+03  0.12499986855E+03 0.  0.
          2    1    1    2  501    0  0.52123406281E+02  0.38869356110E+02 -0.14395248306E+04  0.14409925101E+04  0.00000000000E+00 0. -1.
          1    1    1    2  502    0  0.20184370302E+02 -0.22468369415E+02  0.23221131428E+03  0.23416731392E+03  0.00000000000E+00 0. -1.
         22    1    3    3    0    0 -0.10654440037E+03 -0.23562292920E+02 -0.77165860572E+02  0.13364677675E+03  0.00000000000E+00 0. -1.
         22    1    3    3    0    0  0.34236623788E+02  0.71613062249E+01 -0.12611945468E+02  0.37181875743E+02  0.00000000000E+00 0. -1.
</event>
<event>
 7    1  0.5553952E-006  0.8659206E+02  0.7818608E-02  0.1351883E+00
          2   -1    0    0  502    0  0.00000000000E+00  0.00000000000E+00  0.10314996173E+04  0.10314996173E+04  0.00000000000E+00 0. -1.
          1   -1    0    0  501    0 -0.00000000000E+00 -0.00000000000E+00 -0.37073433876E+03  0.37073433876E+03  0.00000000000E+00 0. -1.
         25    2    1    2    0    0 -0.18979358533E+02  0.27521978912E+02  0.18548948793E+03  0.22616329327E+03  0.12500323882E+03 0.  0.
          2    1    1    2  501    0 -0.22965235392E+02  0.56138782436E+02 -0.34509206185E+03  0.35038192888E+03  0.00000000000E+00 0. -1.
          1    1    1    2  502    0  0.41944593925E+02 -0.83660761349E+02  0.82036785243E+03  0.82568873388E+03  0.00000000000E+00 0. -1.
         22    1    3    3    0    0 -0.25536733445E+02  0.61841017919E+02  0.43186377262E+02  0.79633532091E+02  0.00000000000E+00 0. -1.
         22    1    3    3    0    0  0.65573749120E+01 -0.34319039007E+02  0.14230311067E+03  0.14652976118E+03  0.00000000000E+00 0. -1.
</event>
<event>
 7    1  0.5553952E-006  0.1065959E+03  0.7818608E-02  0.1308323E+00
          2   -1    0    0  502    0  0.00000000000E+00  0.00000000000E+00  0.10355260180E+04  0.10355260180E+04  0.00000000000E+00 0. -1.
          1   -1    0    0  501    0 -0.00000000000E+00 -0.00000000000E+00 -0.19252849908E+03  0.19252849908E+03  0.00000000000E+00 0. -1.
         25    2    1    2    0    0 -0.17529542904E+02 -0.65198517285E+02  0.30606896945E+03  0.33742326834E+03  0.12497246268E+03 0.  0.
          2    1    1    2  501    0 -0.46225614144E+02  0.99258468027E+02 -0.15784684965E+03  0.19210590523E+03  0.00000000000E+00 0. -1.
          1    1    1    2  502    0  0.63755157049E+02 -0.34059950742E+02  0.69477539913E+03  0.69852534351E+03  0.00000000000E+00 0. -1.
         22    1    3    3    0    0  0.26634571899E+02 -0.23478510927E+02  0.12512181957E+02  0.37645658354E+02  0.00000000000E+00 0. -1.
         22    1    3    3    0    0 -0.44164114803E+02 -0.41720006358E+02  0.29355678749E+03  0.29977760999E+03  0.00000000000E+00 0. -1.
</event>
<event>
 7    1  0.5553952E-006  0.7979458E+02  0.7818608E-02  0.1454548E+00
          2   -1    0    0  502    0  0.00000000000E+00  0.00000000000E+00  0.59538499079E+03  0.59538499079E+03  0.00000000000E+00 0. -1.
          1   -1    0    0  501    0 -0.00000000000E+00 -0.00000000000E+00 -0.33590730309E+03  0.33590730309E+03  0.00000000000E+00 0. -1.
         25    2    1    2    0    0  0.48392090252E+02  0.79345294770E+02  0.24159618749E+02  0.15762613777E+03  0.12499936772E+03 0.  0.
          2    1    1    2  501    0 -0.29182148526E+02 -0.23378601172E+01 -0.26524214675E+03  0.26685288043E+03  0.00000000000E+00 0. -1.
          1    1    1    2  502    0 -0.19209941725E+02 -0.77007434653E+02  0.50056021570E+03  0.50681327567E+03  0.00000000000E+00 0. -1.
         22    1    3    3    0    0  0.54734646351E+02  0.82474405538E+02 -0.29668776418E+02  0.10333511201E+03  0.00000000000E+00 0.  1.
         22    1    3    3    0    0 -0.63425560992E+01 -0.31291107678E+01  0.53828395168E+02  0.54291025763E+02  0.00000000000E+00 0.  1.
</event>
<event>
 7    1  0.5553952E-006  0.7955709E+02  0.7818608E-02  0.1480079E+00
          2   -1    0    0  502    0  0.00000000000E+00  0.00000000000E+00  0.42181268593E+03  0.42181268593E+03  0.00000000000E+00 0. -1.
          1   -1    0    0  501    0 -0.00000000000E+00 -0.00000000000E+00 -0.32928508611E+03  0.32928508611E+03  0.00000000000E+00 0. -1.
         25    2    1    2    0    0  0.62041242376E+02 -0.70482359606E+02 -0.16769788174E+03  0.22926959815E+03  0.12500036131E+03 0.  0.
          2    1    1    2  501    0  0.24512739282E+01  0.24315433557E+02 -0.12558945827E+03  0.12794514872E+03  0.00000000000E+00 0. -1.
          1    1    1    2  502    0 -0.64492516304E+02  0.46166926049E+02  0.38581493983E+03  0.39388302517E+03  0.00000000000E+00 0. -1.
         22    1    3    3    0    0 -0.52594847954E+00 -0.14281357588E+02 -0.13999438315E+03  0.14072192832E+03  0.00000000000E+00 0.  1.
         22    1    3    3    0    0  0.62567190856E+02 -0.56201002018E+02 -0.27703498590E+02  0.88547669837E+02  0.00000000000E+00 0.  1.
</event>
<event>
 7    1  0.5553952E-006  0.1580838E+03  0.7818608E-02  0.1269921E+00
          2   -1    0    0  502    0  0.00000000000E+00  0.00000000000E+00  0.99364092777E+03  0.99364092777E+03  0.00000000000E+00 0. -1.
          1   -1    0    0  501    0 -0.00000000000E+00 -0.00000000000E+00 -0.13587413531E+03  0.13587413531E+03  0.00000000000E+00 0. -1.
         25    2    1    2    0    0 -0.29453949003E+02  0.12695827285E+03  0.36089539080E+03  0.40355482255E+03  0.12500029418E+03 0.  0.
          2    1    1    2  501    0 -0.31591627491E+02 -0.16095897558E+03 -0.52450679899E+02  0.17221177825E+03  0.00000000000E+00 0. -1.
          1    1    1    2  502    0  0.61045576494E+02  0.34000702731E+02  0.54932208156E+03  0.55374846228E+03  0.00000000000E+00 0. -1.
         22    1    3    3    0    0  0.21852929875E+02  0.61991159245E+02  0.28071294328E+03  0.28830575938E+03  0.00000000000E+00 0. -1.
         22    1    3    3    0    0 -0.51306878878E+02  0.64967113602E+02  0.80182447520E+02  0.11524906316E+03  0.00000000000E+00 0. -1.
</event>
<event>
 7    1  0.5553952E-006  0.9176175E+02  0.7818608E-02  0.1397473E+00
          2   -1    0    0  502    0  0.00000000000E+00  0.00000000000E+00  0.21971002768E+04  0.21971002768E+04  0.00000000000E+00 0. -1.
          1   -1    0    0  501    0 -0.00000000000E+00 -0.00000000000E+00 -0.94470637182E+03  0.94470637182E+03  0.00000000000E+00 0. -1.
         25    2    1    2    0    0 -0.49118985919E+02 -0.18838200445E+02  0.16819364918E+04  0.16873952964E+04  0.12499988573E+03 0.  0.
          2    1    1    2  501    0  0.87184148770E+02  0.28787329647E+02 -0.93897940296E+03  0.94345752704E+03  0.00000000000E+00 0. -1.
          1    1    1    2  502    0 -0.38065162851E+02 -0.99491292026E+01  0.50943681611E+03  0.51095382512E+03  0.00000000000E+00 0. -1.
         22    1    3    3    0    0 -0.42087595609E+02  0.34183785599E+00  0.16419815644E+04  0.16425209102E+04  0.00000000000E+00 0. -1.
         22    1    3    3    0    0 -0.70313903101E+01 -0.19180038301E+02  0.39954927425E+02  0.44874386285E+02  0.00000000000E+00 0. -1.
</event>
<event>
 7    1  0.5553952E-006  0.5307881E+02  0.7818608E-02  0.1446720E+00
          2   -1    0    0  502    0  0.00000000000E+00  0.00000000000E+00  0.31191843498E+03  0.31191843498E+03  0.00000000000E+00 0. -1.
          1   -1    0    0  501    0 -0.00000000000E+00 -0.00000000000E+00 -0.12138881165E+04  0.12138881165E+04  0.00000000000E+00 0. -1.
         25    2    1    2    0    0 -0.29534132501E+02 -0.54153143697E+02 -0.17231606461E+03  0.22163993409E+03  0.12500642505E+03 0.  0.
          2    1    1    2  501    0 -0.16952789841E+02  0.50616244562E+02 -0.10143120307E+04  0.10157156576E+04  0.00000000000E+00 0. -1.
          1    1    1    2  502    0  0.46486922342E+02  0.35368991356E+01  0.28465841388E+03  0.28845095978E+03  0.00000000000E+00 0. -1.
         22    1    3    3    0    0 -0.49193705349E+01 -0.27817017838E+02  0.14238686749E+02  0.31634267626E+02  0.00000000000E+00 0. -1.
         22    1    3    3    0    0 -0.24614761967E+02 -0.26336125859E+02 -0.18655475136E+03  0.19000566646E+03  0.00000000000E+00 0. -1.
</event>
<event>
 7    1  0.5553952E-006  0.1159362E+03  0.7818608E-02  0.1291172E+00
          2   -1    0    0  502    0  0.00000000000E+00  0.00000000000E+00  0.24969635065E+04  0.24969635065E+04  0.00000000000E+00 0. -1.
          1   -1    0    0  501    0 -0.00000000000E+00 -0.00000000000E+00 -0.26383936472E+03  0.26383936472E+03  0.00000000000E+00 0. -1.
         25    2    1    2    0    0  0.38883181805E+02 -0.11139339048E+02  0.43354994034E+03  0.45301976646E+03  0.12500148533E+03 0.  0.
          2    1    1    2  501    0 -0.11420054842E+03  0.30824588447E+02 -0.23955546320E+03  0.26716800044E+03  0.00000000000E+00 0. -1.
          1    1    1    2  502    0  0.75317366611E+02 -0.19685249399E+02  0.20391296646E+04  0.20406151043E+04  0.00000000000E+00 0. -1.
         22    1    3    3    0    0 -0.23106886154E+02 -0.14681064142E+02  0.33775116939E+03  0.33885884119E+03  0.00000000000E+00 0.  1.
         22    1    3    3    0    0  0.61990067959E+02  0.35417250940E+01  0.95798770950E+02  0.11416092527E+03  0.00000000000E+00 0.  1.
</event>
<event>
 7    1  0.5553952E-006  0.1531376E+03  0.7818608E-02  0.1311731E+00
          2   -1    0    0  502    0  0.00000000000E+00  0.00000000000E+00  0.27952708230E+04  0.27952708230E+04  0.00000000000E+00 0. -1.
          1   -1    0    0  501    0 -0.00000000000E+00 -0.00000000000E+00 -0.27665023893E+02  0.27665023893E+02  0.00000000000E+00 0. -1.
         25    2    1    2    0    0  0.68962030760E+02  0.88617941055E+02  0.19838251927E+04  0.19909283160E+04  0.12499705321E+03 0.  0.
          2    1    1    2  501    0 -0.83374055135E+02 -0.13522254962E+03  0.25132817036E+03  0.29732510861E+03  0.00000000000E+00 0. -1.
          1    1    1    2  502    0  0.14412024375E+02  0.46604608562E+02  0.53245243613E+03  0.53468242230E+03  0.00000000000E+00 0. -1.
         22    1    3    3    0    0  0.39148641253E+02  0.88745989396E+02  0.18898436726E+04  0.18923312537E+04  0.00000000000E+00 0. -1.
         22    1    3    3    0    0  0.29813389507E+02 -0.12804834062E+00  0.93981520054E+02  0.98597062339E+02  0.00000000000E+00 0. -1.
</event>
<event>
 7    1  0.5553952E-006  0.3722369E+02  0.7818608E-02  0.1571534E+00
          2   -1    0    0  502    0  0.00000000000E+00  0.00000000000E+00  0.11584051871E+04  0.11584051871E+04  0.00000000000E+00 0. -1.
          1   -1    0    0  501    0 -0.00000000000E+00 -0.00000000000E+00 -0.14981205798E+03  0.14981205798E+03  0.00000000000E+00 0. -1.
         25    2    1    2    0    0 -0.30635023450E+02  0.55932203335E+01 -0.28738613929E+02  0.13198810622E+03  0.12500065391E+03 0.  0.
          2    1    1    2  501    0  0.31372860596E+02  0.22854184091E+02 -0.63827163924E+02  0.74702590096E+02  0.00000000000E+00 0. -1.
          1    1    1    2  502    0 -0.73783714625E+00 -0.28447404424E+02  0.11011589070E+04  0.11015265488E+04  0.00000000000E+00 0. -1.
         22    1    3    3    0    0  0.36894137816E+02  0.38743941683E+02 -0.94652339900E+01  0.54331032355E+02  0.00000000000E+00 0. -1.
         22    1    3    3    0    0 -0.67529161266E+02 -0.33150721349E+02 -0.19273379939E+02  0.77657073867E+02  0.00000000000E+00 0. -1.
</event>
<event>
 7    1  0.5553952E-006  0.6721807E+02  0.7818608E-02  0.1372487E+00
          2   -1    0    0  502    0  0.00000000000E+00  0.00000000000E+00  0.22379058040E+04  0.22379058040E+04  0.00000000000E+00 0. -1.
          1   -1    0    0  501    0 -0.00000000000E+00 -0.00000000000E+00 -0.14440760566E+04  0.14440760566E+04  0.00000000000E+00 0. -1.
         25    2    1    2    0    0  0.11886784406E+03  0.57440490352E+02 -0.55478247553E+02  0.19008412833E+03  0.12500066244E+03 0.  0.
          2    1    1    2  501    0 -0.55971875739E+02 -0.34502065729E+02 -0.13199601359E+04  0.13215967629E+04  0.00000000000E+00 0. -1.
          1    1    1    2  502    0 -0.62895968320E+02 -0.22938424623E+02  0.21692681309E+04  0.21703009694E+04  0.00000000000E+00 0. -1.
         22    1    3    3    0    0  0.11749525139E+03  0.85401833140E+02 -0.66811097609E+02  0.15988223780E+03  0.00000000000E+00 0. -1.
         22    1    3    3    0    0  0.13725926744E+01 -0.27961342788E+02  0.11332850055E+02  0.30201890529E+02  0.00000000000E+00 0. -1.
</event>
<event>
 7    1  0.5553952E-006  0.7646328E+02  0.7818608E-02  0.1366533E+00
          2   -1    0    0  502    0  0.00000000000E+00  0.00000000000E+00  0.22981703070E+04  0.22981703070E+04  0.00000000000E+00 0. -1.
          1   -1    0    0  501    0 -0.00000000000E+00 -0.00000000000E+00 -0.91364237027E+02  0.91364237027E+02  0.00000000000E+00 0. -1.
         25    2    1    2    0    0 -0.35946537833E+02  0.91072351545E+02  0.98614018521E+03  0.99884113345E+03  0.12499927275E+03 0.  0.
          2    1    1    2  501    0 -0.29585933129E+02 -0.53028864665E+02 -0.72918253241E+02  0.94891830958E+02  0.00000000000E+00 0. -1.
          1    1    1    2  502    0  0.65532470962E+02 -0.38043486881E+02  0.12935841380E+04  0.12958015796E+04  0.00000000000E+00 0. -1.
         22    1    3    3    0    0 -0.38787377137E+02  0.91472835124E+02  0.38248381627E+03  0.39517794713E+03  0.00000000000E+00 0.  1.
         22    1    3    3    0    0  0.28408393040E+01 -0.40048357816E+00  0.60365636894E+03  0.60366318632E+03  0.00000000000E+00 0.  1.
</event>
<event>
 7    1  0.5553952E-006  0.1295287E+03  0.7818608E-02  0.1316730E+00
          2   -1    0    0  502    0  0.00000000000E+00  0.00000000000E+00  0.13581848053E+04  0.13581848053E+04  0.00000000000E+00 0. -1.
          1   -1    0    0  501    0 -0.00000000000E+00 -0.00000000000E+00 -0.26320373172E+04  0.26320373172E+04  0.00000000000E+00 0. -1.
         25    2    1    2    0    0 -0.71764360033E+02 -0.39507277510E+02 -0.39977150209E+02  0.15470816187E+03  0.12500197784E+03 0.  0.
          2    1    1    2  501    0 -0.54889320550E+02  0.51732470700E+01 -0.25310842568E+04  0.25316846397E+04  0.00000000000E+00 0. -1.
          1    1    1    2  502    0  0.12665368058E+03  0.34334030440E+02  0.12972088951E+04  0.13038293209E+04  0.00000000000E+00 0. -1.
         22    1    3    3    0    0 -0.10788066214E+03 -0.31370492170E+02 -0.27830473788E+02  0.11574489325E+03  0.00000000000E+00 0. -1.
         22    1    3    3    0    0  0.36116302108E+02 -0.81367853402E+01 -0.12146676421E+02  0.38963268622E+02  0.00000000000E+00 0. -1.
</event>
<event>
 7    1  0.5553952E-006  0.5279290E+02  0.7818608E-02  0.1477405E+00
          2   -1    0    0  502    0  0.00000000000E+00  0.00000000000E+00  0.12165583608E+04  0.12165583608E+04  0.00000000000E+00 0. -1.
          1   -1    0    0  501    0 -0.00000000000E+00 -0.00000000000E+00 -0.44965172079E+02  0.44965172079E+02  0.00000000000E+00 0. -1.
         25    2    1    2    0    0 -0.10440375342E+02 -0.64485602692E+02  0.28937036749E+03  0.32191170855E+03  0.12499817650E+03 0.  0.
          2    1    1    2  501    0 -0.26359236530E+02  0.26717513237E+02 -0.15307799911E+02  0.40533487417E+02  0.00000000000E+00 0. -1.
          1    1    1    2  502    0  0.36799611872E+02  0.37768089455E+02  0.89753062112E+03  0.89907833689E+03  0.00000000000E+00 0. -1.
         22    1    3    3    0    0  0.16036886283E+02 -0.55454928747E+02  0.38276211169E+02  0.69263981877E+02  0.00000000000E+00 0. -1.
         22    1    3    3    0    0 -0.26477261625E+02 -0.90306739452E+01  0.25109415632E+03  0.25264772667E+03  0.00000000000E+00 0. -1.
</event>
<event>
 7    1  0.5553952E-006  0.1372081E+03  0.7818608E-02  0.1254424E+00
          2   -1    0    0  502    0  0.00000000000E+00  0.00000000000E+00  0.39395975310E+03  0.39395975310E+03  0.00000000000E+00 0. -1.
          1   -1    0    0  501    0 -0.00000000000E+00 -0.00000000000E+00 -0.69295338420E+03  0.69295338420E+03  0.00000000000E+00 0. -1.
         25    2    1    2    0    0  0.22910973918E+02  0.17598990209E+03 -0.46140152546E+03  0.50991534353E+03  0.12499972606E+03 0.  0.
          2    1    1    2  501    0 -0.78587042000E+02 -0.51028116048E+02 -0.18294014203E+03  0.20554047621E+03  0.00000000000E+00 0. -1.
          1    1    1    2  502    0  0.55676068083E+02 -0.12496178604E+03  0.34534803639E+03  0.37145731755E+03  0.00000000000E+00 0. -1.
         22    1    3    3    0    0 -0.46205413063E+02  0.85183272604E+02 -0.27250949292E+03  0.28922751228E+03  0.00000000000E+00 0. -1.
         22    1    3    3    0    0  0.69116386981E+02  0.90806629481E+02 -0.18889203253E+03  0.22068783125E+03  0.00000000000E+00 0. -1.
</event>
<event>
 7    1  0.5553952E-006  0.9787789E+02  0.7818608E-02  0.1356195E+00
          2   -1    0    0  502    0  0.00000000000E+00  0.00000000000E+00  0.50382368400E+03  0.50382368400E+03  0.00000000000E+00 0. -1.
          1   -1    0    0  501    0 -0.00000000000E+00 -0.00000000000E+00 -0.34791673926E+03  0.34791673926E+03  0.00000000000E+00 0. -1.
         25    2    1    2    0    0 -0.11626186362E+03 -0.26984443075E+02 -0.64476984113E+02  0.18446671642E+03  0.12500282751E+03 0.  0.
          2    1    1    2  501    0  0.39670096990E+02 -0.33206923229E+02 -0.21499413902E+03  0.22113094799E+03  0.00000000000E+00 0. -1.
          1    1    1    2  502    0  0.76591766629E+02  0.60191366304E+02  0.43537806787E+03  0.44614275885E+03  0.00000000000E+00 0. -1.
         22    1    3    3    0    0 -0.54164332386E+02 -0.70703477254E+02 -0.72218818978E+01  0.89358335799E+02  0.00000000000E+00 0. -1.
         22    1    3    3    0    0 -0.62097531233E+02  0.43719034179E+02 -0.57255102215E+02  0.95108380622E+02  0.00000000000E+00 0. -1.
</event>
<event>
 7    1  0.5553952E-006  0.1167158E+03  0.7818608E-02  0.1304124E+00
          2   -1    0    0  502    0  0.00000000000E+00  0.00000000000E+00  0.46119404942E+03  0.46119404942E+03  0.00000000000E+00 0. -1.
          1   -1    0    0  501    0 -0.00000000000E+00 -0.00000000000E+00 -0.19656823577E+04  0.19656823577E+04  0.00000000000E+00 0. -1.
         25    2    1    2    0    0 -0.73262934565E+02 -0.23400048162E+02 -0.88909211417E+02  0.17159715740E+03  0.12500286684E+03 0.  0.
          2    1    1    2  501    0 -0.43017986494E+02  0.53429508971E+02 -0.18261838731E+04  0.18274716955E+04  0.00000000000E+00 0. -1.
          1    1    1    2  502    0  0.11628092106E+03 -0.30029460809E+02  0.41060477626E+03  0.42780755417E+03  0.00000000000E+00 0. -1.
         22    1    3    3    0    0 -0.66681731255E+02  0.31480638889E+02 -0.89951837292E+02  0.11631344265E+03  0.00000000000E+00 0. -1.
         22    1    3    3    0    0 -0.65812033108E+01 -0.54880687051E+02  0.10426258748E+01  0.55283714753E+02  0.00000000000E+00 0. -1.
</event>
<event>
 7    1  0.5553952E-006  0.1604007E+03  0.7818608E-02  0.1257329E+00
          2   -1    0    0  502    0  0.00000000000E+00  0.00000000000E+00  0.82999589020E+03  0.82999589020E+03  0.00000000000E+00 0. -1.
          1   -1    0    0  501    0 -0.00000000000E+00 -0.00000000000E+00 -0.24887188921E+03  0.24887188921E+03  0.00000000000E+00 0. -1.
         25    2    1    2    0    0  0.74646907011E+02  0.56858362157E+02  0.41284704983E+03  0.44144483413E+03  0.12500328376E+03 0.  0.
          2    1    1    2  501    0 -0.15216911399E+03 -0.64334204914E+02 -0.20090822239E+03  0.26011236610E+03  0.00000000000E+00 0. -1.
          1    1    1    2  502    0  0.77522206981E+02  0.74758427574E+01  0.36918517355E+03  0.37731057919E+03  0.00000000000E+00 0. -1.
         22    1    3    3    0    0  0.23130560948E+02  0.60065528774E+02  0.71444273507E+02  0.96162231742E+02  0.00000000000E+00 0.  1.
         22    1    3    3    0    0  0.51516346063E+02 -0.32071666176E+01  0.34140277632E+03  0.34528260238E+03  0.00000000000E+00 0.  1.
</event>
<event>
 7    1  0.5553952E-006  0.1444108E+03  0.7818608E-02  0.1257366E+00
          2   -1    0    0  502    0  0.00000000000E+00  0.00000000000E+00  0.72210535772E+03  0.72210535772E+03  0.00000000000E+00 0. -1.
          1   -1    0    0  501    0 -0.00000000000E+00 -0.00000000000E+00 -0.14062136792E+04  0.14062136792E+04  0.00000000000E+00 0. -1.
         25    2    1    2    0    0 -0.19820820940E+03  0.93883451860E+02 -0.34062065794E+02  0.25472568811E+03  0.12499742017E+03 0.  0.
          2    1    1    2  501    0  0.11200235091E+03 -0.87087263334E+02 -0.12547462027E+04  0.12627417595E+04  0.00000000000E+00 0. -1.
          1    1    1    2  502    0  0.86205858493E+02 -0.67961885266E+01  0.60469994702E+03  0.61085158929E+03  0.00000000000E+00 0. -1.
         22    1    3    3    0    0 -0.12328737750E+03  0.61372164365E+02  0.41112818520E+02  0.14372398498E+03  0.00000000000E+00 0. -1.
         22    1    3    3    0    0 -0.74920831898E+02  0.32511287495E+02 -0.75174884314E+02  0.11100170313E+03  0.00000000000E+00 0. -1.
</event>
<event>
 7    1  0.5553952E-006  0.1433295E+03  0.7818608E-02  0.1276502E+00
          2   -1    0    0  502    0  0.00000000000E+00  0.00000000000E+00  0.71792527460E+03  0.71792527460E+03  0.00000000000E+00 0. -1.
          1   -1    0    0  501    0 -0.00000000000E+00 -0.00000000000E+00 -0.23206189260E+03  0.23206189260E+03  0.00000000000E+00 0. -1.
         25    2    1    2    0    0  0.58619077169E+02 -0.14885521772E+03  0.10285089384E+03  0.22758903846E+03  0.12499756803E+03 0.  0.
          2    1    1    2  501    0  0.13423088472E+02  0.14228831182E+03 -0.13664346827E+03  0.19773108103E+03  0.00000000000E+00 0. -1.
          1    1    1    2  502    0 -0.72042165641E+02  0.65669058996E+01  0.51965595644E+03  0.52466704770E+03  0.00000000000E+00 0. -1.
         22    1    3    3    0    0  0.36746633224E+02  0.51700624356E+01  0.52070623011E+02  0.63940553482E+02  0.00000000000E+00 0.  1.
         22    1    3    3    0    0  0.21872443946E+02 -0.15402528015E+03  0.50780270827E+02  0.16364848498E+03  0.00000000000E+00 0.  1.
</event>
<event>
 7    1  0.5553952E-006  0.1006861E+03  0.7818608E-02  0.1427750E+00
          2   -1    0    0  502    0  0.00000000000E+00  0.00000000000E+00  0.97661297477E+03  0.97661297477E+03  0.00000000000E+00 0. -1.
          1   -1    0    0  501    0 -0.00000000000E+00 -0.00000000000E+00 -0.60716570036E+03  0.60716570036E+03  0.00000000000E+00 0. -1.
         25    2    1    2    0    0  0.47884823446E+02 -0.73315658879E+02  0.33002601840E+03  0.36360503014E+03  0.12499321169E+03 0.  0.
          2    1    1    2  501    0 -0.30938463814E+02  0.96026421345E+02 -0.58574284138E+03  0.59436767944E+03  0.00000000000E+00 0. -1.
          1    1    1    2  502    0 -0.16946359633E+02 -0.22710762465E+02  0.62516409739E+03  0.62580596554E+03  0.00000000000E+00 0. -1.
         22    1    3    3    0    0  0.93644854213E+01 -0.10334782507E+03  0.22447572605E+03  0.24730106777E+03  0.00000000000E+00 0.  1.
         22    1    3    3    0    0  0.38520338025E+02  0.30032166195E+02  0.10555029235E+03  0.11630396237E+03  0.00000000000E+00 0.  1.
</event>
<event>
 7    1  0.5553952E-006  0.1674103E+03  0.7818608E-02  0.1227827E+00
          2   -1    0    0  502    0  0.00000000000E+00  0.00000000000E+00  0.66384038520E+03  0.66384038520E+03  0.00000000000E+00 0. -1.
          1   -1    0    0  501    0 -0.00000000000E+00 -0.00000000000E+00 -0.92403589314E+03  0.92403589314E+03  0.00000000000E+00 0. -1.
         25    2    1    2    0    0  0.24552360415E+03  0.18811193214E+02 -0.23631670038E+03  0.36346327363E+03  0.12499706883E+03 0.  0.
          2    1    1    2  501    0 -0.91899126073E+02  0.40831949071E+02 -0.60863101510E+03  0.61688281706E+03  0.00000000000E+00 0. -1.
          1    1    1    2  502    0 -0.15362447807E+03 -0.59643142285E+02  0.58475220754E+03  0.60753018765E+03  0.00000000000E+00 0. -1.
         22    1    3    3    0    0  0.10514090914E+03  0.25546550616E+02 -0.27303223220E+02  0.11159167990E+03  0.00000000000E+00 0. -1.
         22    1    3    3    0    0  0.14038269500E+03 -0.67353574020E+01 -0.20901347716E+03  0.25187159374E+03  0.00000000000E+00 0. -1.
</event>
<event>
 7    1  0.5553952E-006  0.7753898E+02  0.7818608E-02  0.1379679E+00
          2   -1    0    0  502    0  0.00000000000E+00  0.00000000000E+00  0.34084995572E+04  0.34084995572E+04  0.00000000000E+00 0. -1.
          1   -1    0    0  501    0 -0.00000000000E+00 -0.00000000000E+00 -0.27602438884E+02  0.27602438884E+02  0.00000000000E+00 0. -1.
         25    2    1    2    0    0 -0.10565790632E+02  0.44315046635E+02  0.39859902207E+03  0.42021605814E+03  0.12499958332E+03 0.  0.
          2    1    1    2  501    0 -0.53661410332E+02  0.27944266106E+01  0.28144319519E+02  0.60658540208E+02  0.00000000000E+00 0. -1.
          1    1    1    2  502    0  0.64227200964E+02 -0.47109473246E+02  0.29541537767E+04  0.29552273978E+04  0.00000000000E+00 0. -1.
         22    1    3    3    0    0 -0.21982534425E+01 -0.39603055481E+02  0.20865702822E+03  0.21239347859E+03  0.00000000000E+00 0.  1.
         22    1    3    3    0    0 -0.83675371892E+01  0.83918102116E+02  0.18994199385E+03  0.20782257955E+03  0.00000000000E+00 0.  1.
</event>
<event>
 7    1  0.5553952E-006  0.1517376E+03  0.7818608E-02  0.1211405E+00
          2   -1    0    0  502    0  0.00000000000E+00  0.00000000000E+00  0.29499437911E+04  0.29499437911E+04  0.00000000000E+00 0. -1.
          1   -1    0    0  501    0 -0.00000000000E+00 -0.00000000000E+00 -0.24603122498E+03  0.24603122498E+03  0.00000000000E+00 0. -1.
         25    2    1    2    0    0  0.10793134574E+03  0.34093757267E+02  0.87656177614E+03  0.89263499409E+03  0.12500050236E+03 0.  0.
          2    1    1    2  501    0 -0.86603849254E+02  0.12459562549E+03 -0.21034494191E+03  0.25936324178E+03  0.00000000000E+00 0. -1.
          1    1    1    2  502    0 -0.21327496484E+02 -0.15868938276E+03  0.20376957319E+04  0.20439767802E+04  0.00000000000E+00 0. -1.
         22    1    3    3    0    0 -0.36894333855E+01  0.29677243702E+02  0.47840017759E+02  0.56418241834E+02  0.00000000000E+00 0.  1.
         22    1    3    3    0    0  0.11162077912E+03  0.44165135654E+01  0.82872175839E+03  0.83621675225E+03  0.00000000000E+00 0.  1.
</event>
<event>
 7    1  0.5553952E-006  0.8175552E+02  0.7818608E-02  0.1326381E+00
          2   -1    0    0  502    0  0.00000000000E+00  0.00000000000E+00  0.73499494216E+03  0.73499494216E+03  0.00000000000E+00 0. -1.
          1   -1    0    0  501    0 -0.00000000000E+00 -0.00000000000E+00 -0.58446324704E+03  0.58446324704E+03  0.00000000000E+00 0. -1.
         25    2    1    2    0    0  0.11201187405E+02 -0.22507622193E+02 -0.21383076423E+03  0.24895910120E+03  0.12499991473E+03 0.  0.
          2    1    1    2  501    0 -0.72857656497E+02  0.76196028403E+02 -0.34279069413E+03  0.35863565472E+03  0.00000000000E+00 0. -1.
          1    1    1    2  502    0  0.61656469092E+02 -0.53688406209E+02  0.70715315349E+03  0.71186343327E+03  0.00000000000E+00 0. -1.
         22    1    3    3    0    0  0.47637223610E+02  0.26963122083E+02 -0.15300856471E+03  0.16250518731E+03  0.00000000000E+00 0. -1.
         22    1    3    3    0    0 -0.36436036206E+02 -0.49470744276E+02 -0.60822199522E+02  0.86453913898E+02  0.00000000000E+00 0. -1.
</event>
<event>
 7    1  0.5553952E-006  0.3066872E+02  0.7818608E-02  0.1597765E+00
          2   -1    0    0  502    0  0.00000000000E+00  0.00000000000E+00  0.38689377348E+03  0.38689377348E+03  0.00000000000E+00 0. -1.
          1   -1    0    0  501    0 -0.00000000000E+00 -0.00000000000E+00 -0.88025395247E+02  0.88025395247E+02  0.00000000000E+00 0. -1.
         25    2    1    2    0    0 -0.18407022496E+01  0.34299917866E+01  0.47487216087E+02  0.13377152944E+03  0.12499853347E+03 0.  0.
          2    1    1    2  501    0 -0.41604171146E+01 -0.32214294497E+02 -0.38162797640E+02  0.50114558406E+02  0.00000000000E+00 0. -1.
          1    1    1    2  502    0  0.60011193643E+01  0.28784302711E+02  0.28954395979E+03  0.29103308088E+03  0.00000000000E+00 0. -1.
         22    1    3    3    0    0  0.21514833560E+02  0.25242458239E+02 -0.33235078251E+02  0.46953596107E+02  0.00000000000E+00 0.  1.
         22    1    3    3    0    0 -0.23355535810E+02 -0.21812466452E+02  0.80722294338E+02  0.86817933336E+02  0.00000000000E+00 0.  1.
</event>
<event>
 7    1  0.5553952E-006  0.4014597E+02  0.7818608E-02  0.1547348E+00
          2   -1    0    0  502    0  0.00000000000E+00  0.00000000000E+00  0.13060155223E+03  0.13060155223E+03  0.00000000000E+00 0. -1.
          1   -1    0    0  501    0 -0.00000000000E+00 -0.00000000000E+00 -0.71898081616E+03  0.71898081616E+03  0.00000000000E+00 0. -1.
         25    2    1    2    0    0  0.67776124398E+01  0.12294995370E+02 -0.39968535712E+03  0.41902235276E+03  0.12503697242E+03 0.  0.
          2    1    1    2  501    0 -0.27574422181E+02 -0.34960244480E+02 -0.30603337967E+03  0.30925555278E+03  0.00000000000E+00 0. -1.
          1    1    1    2  502    0  0.20796809741E+02  0.22665249110E+02  0.11733947287E+03  0.12130446285E+03  0.00000000000E+00 0. -1.
         22    1    3    3    0    0  0.31890982420E+02 -0.46471527594E+02 -0.12694054122E+03  0.13889038355E+03  0.00000000000E+00 0.  1.
         22    1    3    3    0    0 -0.25113369980E+02  0.58766522964E+02 -0.27274481590E+03  0.28013196921E+03  0.00000000000E+00 0.  1.
</event>
<event>
 7    1  0.5553952E-006  0.8662436E+02  0.7818608E-02  0.1344506E+00
          2   -1    0    0  502    0  0.00000000000E+00  0.00000000000E+00  0.83975804316E+02  0.83975804316E+02  0.00000000000E+00 0. -1.
          1   -1    0    0  501    0 -0.00000000000E+00 -0.00000000000E+00 -0.75349349934E+03  0.75349349934E+03  0.00000000000E+00 0. -1.
         25    2    1    2    0    0  0.59872224275E+02 -0.11511041497E+02 -0.40412163559E+03  0.42738242621E+03  0.12499701823E+03 0.  0.
          2    1    1    2  501    0 -0.88140790499E+02  0.69577054495E+02 -0.31124681775E+03  0.33088418974E+03  0.00000000000E+00 0. -1.
          1    1    1    2  502    0  0.28268566224E+02 -0.58066012998E+02  0.45850758314E+02  0.79202687706E+02  0.00000000000E+00 0. -1.
         22    1    3    3    0    0  0.12480274376E+02  0.36088302872E+02 -0.33729148241E+02  0.50948781082E+02  0.00000000000E+00 0.  1.
         22    1    3    3    0    0  0.47391949898E+02 -0.47599344370E+02 -0.37039248735E+03  0.37643364513E+03  0.00000000000E+00 0.  1.
</event>
<event>
 7    1  0.5553952E-006  0.9599388E+02  0.7818608E-02  0.1295865E+00
          2   -1    0    0  502    0  0.00000000000E+00  0.00000000000E+00  0.11674075586E+03  0.11674075586E+03  0.00000000000E+00 0. -1.
          1   -1    0    0  501    0 -0.00000000000E+00 -0.00000000000E+00 -0.20303673926E+04  0.20303673926E+04  0.00000000000E+00 0. -1.
         25    2    1    2    0    0  0.12833302815E+03 -0.22743370363E+02 -0.50994464062E+03  0.54097594297E+03  0.12499922948E+03 0.  0.
          2    1    1    2  501    0 -0.79765885238E+02 -0.53027004980E+02 -0.14830473870E+04  0.14861372789E+04  0.00000000000E+00 0. -1.
          1    1    1    2  502    0 -0.48567142912E+02  0.75770375343E+02  0.79365390834E+02  0.11999492661E+03  0.00000000000E+00 0. -1.
         22    1    3    3    0    0  0.14730714058E+03 -0.40899788835E+01 -0.47315949604E+03  0.49557646260E+03  0.00000000000E+00 0. -1.
         22    1    3    3    0    0 -0.18974112432E+02 -0.18653391480E+02 -0.36785144578E+02  0.45399480370E+02  0.00000000000E+00 0. -1.
</event>
<event>
 7    1  0.5553952E-006  0.9988820E+02  0.7818608E-02  0.1381189E+00
          2   -1    0    0  502    0  0.00000000000E+00  0.00000000000E+00  0.66083551953E+03  0.66083551953E+03  0.00000000000E+00 0. -1.
          1   -1    0    0  501    0 -0.00000000000E+00 -0.00000000000E+00 -0.74058348384E+02  0.74058348384E+02  0.00000000000E+00 0. -1.
         25    2    1    2    0    0  0.41445525109E+02 -0.85777118643E+02  0.35589908032E+03  0.38905598453E+03  0.12499983238E+03 0.  0.
          2    1    1    2  501    0  0.37934443208E+02  0.16078743849E+02 -0.38560644344E+02  0.56431119760E+02  0.00000000000E+00 0. -1.
          1    1    1    2  502    0 -0.79379968317E+02  0.69698374794E+02  0.26943873518E+03  0.28940676363E+03  0.00000000000E+00 0. -1.
         22    1    3    3    0    0 -0.25109340694E+00 -0.18794500851E+02  0.27643973860E+03  0.27707801318E+03  0.00000000000E+00 0. -1.
         22    1    3    3    0    0  0.41696618516E+02 -0.66982617791E+02  0.79459341711E+02  0.11197797135E+03  0.00000000000E+00 0. -1.
</event>
<event>
 7    1  0.5553952E-006  0.1155517E+03  0.7818608E-02  0.1315886E+00
          2   -1    0    0  502    0  0.00000000000E+00  0.00000000000E+00  0.38215081420E+04  0.38215081420E+04  0.00000000000E+00 0. -1.
          1   -1    0    0  501    0 -0.00000000000E+00 -0.00000000000E+00 -0.40035645614E+03  0.40035645614E+03  0.00000000000E+00 0. -1.
         25    2    1    2    0    0 -0.11706455725E+03 -0.11331744279E+03  0.12054138484E+04  0.12227806592E+04  0.12500016410E+03 0.  0.
          2    1    1    2  501    0  0.56083518842E+02  0.10070511804E+03 -0.38281110001E+03  0.39978896955E+03  0.00000000000E+00 0. -1.
          1    1    1    2  502    0  0.60981038403E+02  0.12612324752E+02  0.25985489375E+04  0.25992949694E+04  0.00000000000E+00 0. -1.
         22    1    3    3    0    0 -0.12707476689E+03 -0.12283128996E+03  0.11851683252E+04  0.11982735419E+04  0.00000000000E+00 0.  1.
         22    1    3    3    0    0  0.10010209646E+02  0.95138471705E+01  0.20245523214E+02  0.24507117238E+02  0.00000000000E+00 0.  1.
</event>
<event>
 7    1  0.5553952E-006  0.4916675E+02  0.7818608E-02  0.1490084E+00
          2   -1    0    0  502    0  0.00000000000E+00  0.00000000000E+00  0.87735281413E+03  0.87735281413E+03  0.00000000000E+00 0. -1.
          1   -1    0    0  501    0 -0.00000000000E+00 -0.00000000000E+00 -0.23075194835E+03  0.23075194835E+03  0.00000000000E+00 0. -1.
         25    2    1    2    0    0 -0.49347297816E+01 -0.45772243268E+02  0.15573322747E+03  0.20493316233E+03  0.12500125229E+03 0.  0.
          2    1    1    2  501    0 -0.31178818240E+02  0.38369098468E+02 -0.20269120377E+03  0.20863372333E+03  0.00000000000E+00 0. -1.
          1    1    1    2  502    0  0.36113548021E+02  0.74031448006E+01  0.69355884208E+03  0.69453787682E+03  0.00000000000E+00 0. -1.
         22    1    3    3    0    0  0.59773378706E+02 -0.19149655651E+02  0.65057337374E+02  0.90399243690E+02  0.00000000000E+00 0. -1.
         22    1    3    3    0    0 -0.64708108488E+02 -0.26622587617E+02  0.90675890092E+02  0.11453391864E+03  0.00000000000E+00 0. -1.
</event>
<event>
 7    1  0.5553952E-006  0.1053869E+03  0.7818608E-02  0.1279027E+00
          2   -1    0    0  502    0  0.00000000000E+00  0.00000000000E+00  0.27688624608E+04  0.27688624608E+04  0.00000000000E+00 0. -1.
          1   -1    0    0  501    0 -0.00000000000E+00 -0.00000000000E+00 -0.54568064848E+02  0.54568064848E+02  0.00000000000E+00 0. -1.
         25    2    1    2    0    0 -0.64372405829E+02 -0.37457461712E+02  0.15840441393E+04  0.15907132185E+04  0.12500336069E+03 0.  0.
          2    1    1    2  501    0 -0.75138406135E+02  0.73896009103E+02  0.12982479851E+02  0.10618354402E+03  0.00000000000E+00 0. -1.
          1    1    1    2  502    0  0.13951081196E+03 -0.36438547391E+02  0.11172677768E+04  0.11265337631E+04  0.00000000000E+00 0. -1.
         22    1    3    3    0    0  0.25689659415E+02 -0.45943611284E+02  0.45037396390E+03  0.45343961161E+03  0.00000000000E+00 0. -1.
         22    1    3    3    0    0 -0.90062065244E+02  0.84861495723E+01  0.11336701754E+04  0.11372736069E+04  0.00000000000E+00 0. -1.
</event>
<event>
 7    1  0.5553952E-006  0.7100005E+02  0.7818608E-02  0.1371556E+00
          2   -1    0    0  502    0  0.00000000000E+00  0.00000000000E+00  0.46168959405E+03  0.46168959405E+03  0.00000000000E+00 0. -1.
          1   -1    0    0  501    0 -0.00000000000E+00 -0.00000000000E+00 -0.19117837556E+04  0.19117837556E+04  0.00000000000E+00 0. -1.
         25    2    1    2    0    0 -0.23522309347E+02 -0.76653200725E+02 -0.13142364641E+03  0.19829635097E+03  0.12498102158E+03 0.  0.
          2    1    1    2  501    0  0.64966822009E+02  0.29565096596E+02 -0.17438926793E+04  0.17453528182E+04  0.00000000000E+00 0. -1.
          1    1    1    2  502    0 -0.41444512663E+02  0.47088104130E+02  0.42522216421E+03  0.42982418047E+03  0.00000000000E+00 0. -1.
         22    1    3    3    0    0 -0.73137947215E+02 -0.61421565873E+02 -0.96284235337E+02  0.13561866410E+03  0.00000000000E+00 0. -1.
         22    1    3    3    0    0  0.49615637868E+02 -0.15231634853E+02 -0.35139411070E+02  0.62677686873E+02  0.00000000000E+00 0. -1.
</event>
<event>
 7    1  0.5553952E-006  0.9584667E+02  0.7818608E-02  0.1318045E+00
          2   -1    0    0  502    0  0.00000000000E+00  0.00000000000E+00  0.11412296158E+04  0.11412296158E+04  0.00000000000E+00 0. -1.
          1   -1    0    0  501    0 -0.00000000000E+00 -0.00000000000E+00 -0.11430206638E+03  0.11430206638E+03  0.00000000000E+00 0. -1.
         25    2    1    2    0    0 -0.13524540068E+02  0.56393762533E+02  0.17084660265E+03  0.21949095979E+03  0.12499820060E+03 0.  0.
          2    1    1    2  501    0 -0.51863218473E+02 -0.90249892975E+02 -0.57892116681E+02  0.11910639692E+03  0.00000000000E+00 0. -1.
          1    1    1    2  502    0  0.65387758541E+02  0.33856130442E+02  0.91397306346E+03  0.91693432549E+03  0.00000000000E+00 0. -1.
         22    1    3    3    0    0  0.11796171693E+02 -0.28271765852E+02  0.10474653361E+03  0.10913422339E+03  0.00000000000E+00 0.  1.
         22    1    3    3    0    0 -0.25320711761E+02  0.84665528385E+02  0.66100069043E+02  0.11035673640E+03  0.00000000000E+00 0.  1.
</event>
<event>
 7    1  0.5553952E-006  0.4813867E+02  0.7818608E-02  0.1467836E+00
          2   -1    0    0  502    0  0.00000000000E+00  0.00000000000E+00  0.11653825407E+04  0.11653825407E+04  0.00000000000E+00 0. -1.
          1   -1    0    0  501    0 -0.00000000000E+00 -0.00000000000E+00 -0.38693038109E+02  0.38693038109E+02  0.00000000000E+00 0. -1.
         25    2    1    2    0    0 -0.53063367726E+02 -0.17415340089E+02  0.66353346109E+03  0.67750945093E+03  0.12499354805E+03 0.  0.
          2    1    1    2  501    0  0.41454214959E+02 -0.25097483286E+02 -0.11551493674E+02  0.49817392658E+02  0.00000000000E+00 0. -1.
          1    1    1    2  502    0  0.11609152767E+02  0.42512823375E+02  0.47470753515E+03  0.47674873519E+03  0.00000000000E+00 0. -1.
         22    1    3    3    0    0  0.10155958212E+02 -0.57612747089E+02  0.36839914930E+03  0.37301515427E+03  0.00000000000E+00 0.  1.
         22    1    3    3    0    0 -0.63219325938E+02  0.40197407000E+02  0.29513431179E+03  0.30449429666E+03  0.00000000000E+00 0.  1.
</event>
<event>
 7    1  0.5553952E-006  0.3411298E+02  0.7818608E-02  0.1588803E+00
          2   -1    0    0  502    0  0.00000000000E+00  0.00000000000E+00  0.89873357074E+03  0.89873357074E+03  0.00000000000E+00 0. -1.
          1   -1    0    0  501    0 -0.00000000000E+00 -0.00000000000E+00 -0.76079423905E+03  0.76079423905E+03  0.00000000000E+00 0. -1.
         25    2    1    2    0    0  0.50781289735E+01  0.53207569833E+02 -0.22402694358E+03  0.26204801261E+03  0.12499702629E+03 0.  0.
          2    1    1    2  501    0 -0.18035064825E+02 -0.28485075619E+02 -0.51698614711E+03  0.51808429758E+03  0.00000000000E+00 0. -1.
          1    1    1    2  502    0  0.12956935852E+02 -0.24722494214E+02  0.87895242238E+03  0.87939549960E+03  0.00000000000E+00 0. -1.
         22    1    3    3    0    0  0.77775737324E+01 -0.40963100348E+02 -0.71720938067E+02  0.82959985538E+02  0.00000000000E+00 0. -1.
         22    1    3    3    0    0 -0.26994447589E+01  0.94170670181E+02 -0.15230600551E+03  0.17908802707E+03  0.00000000000E+00 0. -1.
</event>
<event>
 7    1  0.5553952E-006  0.8547524E+02  0.7818608E-02  0.1388078E+00
          2   -1    0    0  502    0  0.00000000000E+00  0.00000000000E+00  0.35060451823E+03  0.35060451823E+03  0.00000000000E+00 0. -1.
          1   -1    0    0  501    0 -0.00000000000E+00 -0.00000000000E+00 -0.12142108458E+04  0.12142108458E+04  0.00000000000E+00 0. -1.
         25    2    1    2    0    0  0.83726850392E+02  0.95836404373E+02 -0.28075042418E+03  0.33262790126E+03  0.12500287252E+03 0.  0.
          2    1    1    2  501    0 -0.38655692388E+02 -0.24067147452E+02 -0.90140668777E+03  0.90255609626E+03  0.00000000000E+00 0. -1.
          1    1    1    2  502    0 -0.45071158004E+02 -0.71769256921E+02  0.31855078441E+03  0.32963136648E+03  0.00000000000E+00 0. -1.
         22    1    3    3    0    0 -0.19845771435E+01 -0.25540394439E+02 -0.71788046064E+02  0.76221872531E+02  0.00000000000E+00 0.  1.
         22    1    3    3    0    0  0.85711427535E+02  0.12137679881E+03 -0.20896237812E+03  0.25640602873E+03  0.00000000000E+00 0.  1.
</event>
<event>
 7    1  0.5553952E-006  0.1169380E+03  0.7818608E-02  0.1333623E+00
          2   -1    0    0  502    0  0.00000000000E+00  0.00000000000E+00  0.19272997670E+03  0.19272997670E+03  0.00000000000E+00 0. -1.
          1   -1    0    0  501    0 -0.00000000000E+00 -0.00000000000E+00 -0.44955318061E+03  0.44955318061E+03  0.00000000000E+00 0. -1.
         25    2    1    2    0    0 -0.55776866389E+01  0.76301940404E+02 -0.58070102235E+02  0.15763981991E+03  0.12500031740E+03 0.  0.
          2    1    1    2  501    0  0.10304146989E+02  0.51557459397E+02 -0.31040734306E+03  0.31482862908E+03  0.00000000000E+00 0. -1.
          1    1    1    2  502    0 -0.47264603497E+01 -0.12785939980E+03  0.11165424138E+03  0.16981470832E+03  0.00000000000E+00 0. -1.
         22    1    3    3    0    0  0.47885419556E+02  0.53165554792E+02 -0.67807407535E+02  0.98577046715E+02  0.00000000000E+00 0.  1.
         22    1    3    3    0    0 -0.53463106195E+02  0.23136385612E+02  0.97373052996E+01  0.59062773197E+02  0.00000000000E+00 0.  1.
</event>
<event>
 7    1  0.5553952E-006  0.3724131E+02  0.7818608E-02  0.1537950E+00
          2   -1    0    0  502    0  0.00000000000E+00  0.00000000000E+00  0.52911818293E+03  0.52911818293E+03  0.00000000000E+00 0. -1.
          1   -1    0    0  501    0 -0.00000000000E+00 -0.00000000000E+00 -0.99223799860E+03  0.99223799860E+03  0.00000000000E+00 0. -1.
         25    2    1    2    0    0 -0.62445763029E+02  0.13319352902E+02  0.66685025212E+02  0.15538930068E+03  0.12498825423E+03 0.  0.
          2    1    1    2  501    0  0.33817453655E+02  0.99262429769E+01 -0.94674412798E+03  0.94739991256E+03  0.00000000000E+00 0. -1.
          1    1    1    2  502    0  0.28628309374E+02 -0.23245595879E+02  0.41693928709E+03  0.41856696829E+03  0.00000000000E+00 0. -1.
         22    1    3    3    0    0 -0.18284447137E+02  0.43056270949E+02  0.86697633430E+02  0.98512147056E+02  0.00000000000E+00 0.  1.
         22    1    3    3    0    0 -0.44161315892E+02 -0.29736918047E+02 -0.20012608219E+02  0.56877153620E+02  0.00000000000E+00 0.  1.
</event>
<event>
 7    1  0.5553952E-006  0.2635499E+03  0.7818608E-02  0.1211732E+00
          2   -1    0    0  502    0  0.00000000000E+00  0.00000000000E+00  0.22170541916E+04  0.22170541916E+04  0.00000000000E+00 0. -1.
          1   -1    0    0  501    0 -0.00000000000E+00 -0.00000000000E+00 -0.28778018114E+03  0.28778018114E+03  0.00000000000E+00 0. -1.
         25    2    1    2    0    0 -0.27195754226E+03  0.16801154661E+02 -0.13172608046E+03  0.32744404679E+03  0.12499863966E+03 0.  0.
          2    1    1    2  501    0  0.23256968351E+03 -0.81379852665E+02  0.20688805307E+03  0.32173592371E+03  0.00000000000E+00 0. -1.
          1    1    1    2  502    0  0.39387858751E+02  0.64578698004E+02  0.18541120379E+04  0.18556544022E+04  0.00000000000E+00 0. -1.
         22    1    3    3    0    0 -0.20753325231E+03  0.65580469603E+02 -0.82122618333E+02  0.23262625228E+03  0.00000000000E+00 0.  1.
         22    1    3    3    0    0 -0.64424289948E+02 -0.48779314942E+02 -0.49603462123E+02  0.94817794512E+02  0.00000000000E+00 0.  1.
</event>
<event>
 7    1  0.5553952E-006  0.1013557E+03  0.7818608E-02  0.1304940E+00
          2   -1    0    0  502    0  0.00000000000E+00  0.00000000000E+00  0.18205646925E+04  0.18205646925E+04  0.00000000000E+00 0. -1.
          1   -1    0    0  501    0 -0.00000000000E+00 -0.00000000000E+00 -0.12149144263E+03  0.12149144263E+03  0.00000000000E+00 0. -1.
         25    2    1    2    0    0  0.14129154298E+03  0.10642304673E+02  0.35045252714E+03  0.39814416745E+03  0.12500098211E+03 0.  0.
          2    1    1    2  501    0 -0.61191607604E+02  0.49014799802E+02 -0.79878234922E+02  0.11192584981E+03  0.00000000000E+00 0. -1.
          1    1    1    2  502    0 -0.80099935378E+02 -0.59657104474E+02  0.14284989577E+04  0.14319861179E+04  0.00000000000E+00 0. -1.
         22    1    3    3    0    0 -0.15492696647E+02  0.12227682280E+02  0.76160695563E+01  0.21155244711E+02  0.00000000000E+00 0.  1.
         22    1    3    3    0    0  0.15678423963E+03 -0.15853776069E+01  0.34283645759E+03  0.37698892274E+03  0.00000000000E+00 0.  1.
</event>
<event>
 7    1  0.5553952E-006  0.6251995E+02  0.7818608E-02  0.1455375E+00
          2   -1    0    0  502    0  0.00000000000E+00  0.00000000000E+00  0.56021223314E+03  0.56021223314E+03  0.00000000000E+00 0. -1.
          1   -1    0    0  501    0 -0.00000000000E+00 -0.00000000000E+00 -0.17742047566E+04  0.17742047566E+04  0.00000000000E+00 0. -1.
         25    2    1    2    0    0 -0.49099308766E+02  0.10041490011E+01 -0.19553899759E+03  0.23721710261E+03  0.12499881502E+03 0.  0.
          2    1    1    2  501    0 -0.68472013403E+00  0.37132963095E+02 -0.15557814458E+04  0.15562246730E+04  0.00000000000E+00 0. -1.
          1    1    1    2  502    0  0.49784028900E+02 -0.38137112096E+02  0.53732791989E+03  0.54097521417E+03  0.00000000000E+00 0. -1.
         22    1    3    3    0    0 -0.24844439561E+02  0.24642664662E+02  0.36375595167E+01  0.35181514151E+02  0.00000000000E+00 0. -1.
         22    1    3    3    0    0 -0.24254869205E+02 -0.23638515661E+02 -0.19917655711E+03  0.20203558846E+03  0.00000000000E+00 0. -1.
</event>
<event>
 7    1  0.5553952E-006  0.5889791E+02  0.7818608E-02  0.1429902E+00
          2   -1    0    0  502    0  0.00000000000E+00  0.00000000000E+00  0.84131524163E+03  0.84131524163E+03  0.00000000000E+00 0. -1.
          1   -1    0    0  501    0 -0.00000000000E+00 -0.00000000000E+00 -0.71743817158E+03  0.71743817158E+03  0.00000000000E+00 0. -1.
         25    2    1    2    0    0  0.55765162925E+02 -0.29014034989E+02  0.59309510460E+02  0.15196910058E+03  0.12500168750E+03 0.  0.
          2    1    1    2  501    0 -0.16911585567E+02  0.56609735553E+02 -0.66903339210E+03  0.67163706243E+03  0.00000000000E+00 0. -1.
          1    1    1    2  502    0 -0.38853577359E+02 -0.27595700564E+02  0.73360095168E+03  0.73514725020E+03  0.00000000000E+00 0. -1.
         22    1    3    3    0    0 -0.26424753385E+02  0.25282872441E+02 -0.78438447060E+00  0.36580137907E+02  0.00000000000E+00 0. -1.
         22    1    3    3    0    0  0.82189916310E+02 -0.54296907430E+02  0.60093894931E+02  0.11538896268E+03  0.00000000000E+00 0. -1.
</event>
<event>
 7    1  0.5553952E-006  0.8347544E+02  0.7818608E-02  0.1471600E+00
          2   -1    0    0  502    0  0.00000000000E+00  0.00000000000E+00  0.29024879226E+03  0.29024879226E+03  0.00000000000E+00 0. -1.
          1   -1    0    0  501    0 -0.00000000000E+00 -0.00000000000E+00 -0.70650942259E+03  0.70650942259E+03  0.00000000000E+00 0. -1.
         25    2    1    2    0    0  0.87897779085E+02  0.39007832833E+02  0.18089447642E+03  0.24000488999E+03  0.12502761706E+03 0.  0.
          2    1    1    2  501    0 -0.14086665498E+02 -0.20335257974E+02 -0.65850852986E+03  0.65897301975E+03  0.00000000000E+00 0. -1.
          1    1    1    2  502    0 -0.73811113586E+02 -0.18672574860E+02  0.61353423106E+02  0.97780305111E+02  0.00000000000E+00 0. -1.
         22    1    3    3    0    0  0.67189446156E+02  0.38402712945E+02  0.22969205469E+02  0.80726541089E+02  0.00000000000E+00 0. -1.
         22    1    3    3    0    0  0.20708332929E+02  0.60511988825E+00  0.15792527095E+03  0.15927834890E+03  0.00000000000E+00 0. -1.
</event>
<event>
 7    1  0.6060179E-006  0.8968802E+02  0.7818608E-02  0.1333877E+00
          2   -1    0    0  502    0  0.00000000000E+00  0.00000000000E+00  0.10112526956E+04  0.10112526956E+04  0.00000000000E+00 0. -1.
          1   -1    0    0  501    0 -0.00000000000E+00 -0.00000000000E+00 -0.69887575253E+03  0.69887575253E+03  0.00000000000E+00 0. -1.
         25    2    1    2    0    0  0.59879771821E+02 -0.25331942025E+02 -0.96089408607E+02  0.17054255562E+03  0.12499717785E+03 0.  0.
          2    1    1    2  501    0  0.21396969944E+02  0.64966580556E+02 -0.56138077561E+03  0.56553237055E+03  0.00000000000E+00 0. -1.
          1    1    1    2  502    0 -0.81276741765E+02 -0.39634638531E+02  0.96984712734E+03  0.97405352201E+03  0.00000000000E+00 0. -1.
         22    1    3    3    0    0 -0.18475751954E+02  0.49572836352E+01  0.19719636516E+02  0.27473480588E+02  0.00000000000E+00 0.  1.
         22    1    3    3    0    0  0.78355523775E+02 -0.30289225660E+02 -0.11580904512E+03  0.14306907503E+03  0.00000000000E+00 0.  1.
</event>
<event>
 7    1  0.5553952E-006  0.8196599E+02  0.7818608E-02  0.1331995E+00
          2   -1    0    0  502    0  0.00000000000E+00  0.00000000000E+00  0.67630338414E+03  0.67630338414E+03  0.00000000000E+00 0. -1.
          1   -1    0    0  501    0 -0.00000000000E+00 -0.00000000000E+00 -0.18972461649E+04  0.18972461649E+04  0.00000000000E+00 0. -1.
         25    2    1    2    0    0  0.45495283511E+02  0.87250256417E+02  0.99645112793E+02  0.18771222968E+03  0.12499721837E+03 0.  0.
          2    1    1    2  501    0 -0.79767550669E+02 -0.19319050183E+02 -0.18495805997E+04  0.18514006813E+04  0.00000000000E+00 0. -1.
          1    1    1    2  502    0  0.34272267158E+02 -0.67931206234E+02  0.52899270610E+03  0.53443663814E+03  0.00000000000E+00 0. -1.
         22    1    3    3    0    0  0.49145180736E+02  0.10472366697E+03  0.35316216167E+02  0.12095259541E+03  0.00000000000E+00 0.  1.
         22    1    3    3    0    0 -0.36498972259E+01 -0.17473410548E+02  0.64328896627E+02  0.66759634264E+02  0.00000000000E+00 0.  1.
</event>
<event>
 7    1  0.5553952E-006  0.5249293E+02  0.7818608E-02  0.1521832E+00
          2   -1    0    0  502    0  0.00000000000E+00  0.00000000000E+00  0.22470714451E+04  0.22470714451E+04  0.00000000000E+00 0. -1.
          1   -1    0    0  501    0 -0.00000000000E+00 -0.00000000000E+00 -0.58374947290E+03  0.58374947290E+03  0.00000000000E+00 0. -1.
         25    2    1    2    0    0 -0.20455875671E+02 -0.41520145962E+02 -0.50319638499E+03  0.52056051387E+03  0.12503711994E+03 0.  0.
          2    1    1    2  501    0  0.25659688016E+02 -0.10722194801E+02 -0.68861032242E+02  0.74264573061E+02  0.00000000000E+00 0. -1.
          1    1    1    2  502    0 -0.52038123447E+01  0.52242340763E+02  0.22353793895E+04  0.22359958311E+04  0.00000000000E+00 0. -1.
         22    1    3    3    0    0 -0.55714325287E+02 -0.65011028302E+02 -0.26094201440E+03  0.27462930420E+03  0.00000000000E+00 0.  1.
         22    1    3    3    0    0  0.35258449616E+02  0.23490882340E+02 -0.24225437059E+03  0.24593120967E+03  0.00000000000E+00 0.  1.
</event>
<event>
 7    1  0.5553952E-006  0.3514198E+02  0.7818608E-02  0.1561118E+00
          2   -1    0    0  502    0  0.00000000000E+00  0.00000000000E+00  0.26935387689E+03  0.26935387689E+03  0.00000000000E+00 0. -1.
          1   -1    0    0  501    0 -0.00000000000E+00 -0.00000000000E+00 -0.39053432711E+02  0.39053432711E+02  0.00000000000E+00 0. -1.
         25    2    1    2    0    0 -0.50745300798E+01  0.15408977891E+02  0.13194052513E+03  0.18247248463E+03  0.12499887208E+03 0.  0.
          2    1    1    2  501    0 -0.18811374390E+02 -0.36976669535E+02  0.32744496841E+02  0.52852095226E+02  0.00000000000E+00 0. -1.
          1    1    1    2  502    0  0.23885904470E+02  0.21567691645E+02  0.65615422206E+02  0.73082729742E+02  0.00000000000E+00 0. -1.
         22    1    3    3    0    0 -0.41361442728E+02 -0.30858624851E+02  0.18722196572E+02  0.54895758640E+02  0.00000000000E+00 0.  1.
         22    1    3    3    0    0  0.36286912648E+02  0.46267602742E+02  0.11321832856E+03  0.12757672599E+03  0.00000000000E+00 0.  1.
</event>
<event>
 7    1  0.5553952E-006  0.1084225E+03  0.7818608E-02  0.1429858E+00
          2   -1    0    0  502    0  0.00000000000E+00  0.00000000000E+00  0.13984626504E+04  0.13984626504E+04  0.00000000000E+00 0. -1.
          1   -1    0    0  501    0 -0.00000000000E+00 -0.00000000000E+00 -0.87750238102E+03  0.87750238102E+03  0.00000000000E+00 0. -1.
         25    2    1    2    0    0 -0.95894982602E+02  0.88728035438E+02 -0.10704387055E+03  0.21012324328E+03  0.12499950074E+03 0.  0.
          2    1    1    2  501    0  0.24878437733E+02 -0.71902085536E+01 -0.71651444285E+03  0.71698227494E+03  0.00000000000E+00 0. -1.
          1    1    1    2  502    0  0.71016544869E+02 -0.81537826885E+02  0.13445185828E+04  0.13488595132E+04  0.00000000000E+00 0. -1.
         22    1    3    3    0    0 -0.10321924202E+02 -0.26764338405E+02 -0.45442706999E+02  0.53739292411E+02  0.00000000000E+00 0.  1.
         22    1    3    3    0    0 -0.85573058399E+02  0.11549237384E+03 -0.61601163552E+02  0.15638395087E+03  0.00000000000E+00 0.  1.
</event>
<event>
 7    1  0.5553952E-006  0.5173727E+02  0.7818608E-02  0.1489545E+00
          2   -1    0    0  502    0  0.00000000000E+00  0.00000000000E+00  0.11139259185E+04  0.11139259185E+04  0.00000000000E+00 0. -1.
          1   -1    0    0  501    0 -0.00000000000E+00 -0.00000000000E+00 -0.55338106465E+02  0.55338106465E+02  0.00000000000E+00 0. -1.
         25    2    1    2    0    0  0.41313333962E+02 -0.10351503770E+02  0.58116331505E+03  0.59597799221E+03  0.12500009296E+03 0.  0.
          2    1    1    2  501    0 -0.85174170487E+01 -0.34117694636E+02 -0.39805245040E+02  0.53113284714E+02  0.00000000000E+00 0. -1.
          1    1    1    2  502    0 -0.32795916913E+02  0.44469198406E+02  0.51722974200E+03  0.52017274802E+03  0.00000000000E+00 0. -1.
         22    1    3    3    0    0  0.60920760446E+02 -0.54882934710E+02  0.32124691097E+03  0.33154645735E+03  0.00000000000E+00 0.  1.
         22    1    3    3    0    0 -0.19607426485E+02  0.44531430940E+02  0.25991640408E+03  0.26443153485E+03  0.00000000000E+00 0.  1.
</event>
<event>
 7    1  0.5553952E-006  0.1030026E+03  0.7818608E-02  0.1281910E+00
          2   -1    0    0  502    0  0.00000000000E+00  0.00000000000E+00  0.11764025278E+03  0.11764025278E+03  0.00000000000E+00 0. -1.
          1   -1    0    0  501    0 -0.00000000000E+00 -0.00000000000E+00 -0.14078122021E+04  0.14078122021E+04  0.00000000000E+00 0. -1.
         25    2    1    2    0    0 -0.11153137420E+03 -0.11268219529E+03 -0.28047886119E+03  0.34558655726E+03  0.12500060967E+03 0.  0.
          2    1    1    2  501    0  0.16847137457E+02  0.99427906015E+02 -0.10647660086E+04  0.10695309194E+04  0.00000000000E+00 0. -1.
          1    1    1    2  502    0  0.94684236739E+02  0.13254289277E+02  0.55072920393E+02  0.11033497828E+03  0.00000000000E+00 0. -1.
         22    1    3    3    0    0 -0.33623104024E+02  0.18704371735E+02 -0.19359935336E+02  0.43071727878E+02  0.00000000000E+00 0. -1.
         22    1    3    3    0    0 -0.77908270172E+02 -0.13138656703E+03 -0.26111892586E+03  0.30251482938E+03  0.00000000000E+00 0. -1.
</event>
<event>
 7    1  0.5553952E-006  0.5655304E+02  0.7818608E-02  0.1469250E+00
          2   -1    0    0  502    0  0.00000000000E+00  0.00000000000E+00  0.11276205154E+03  0.11276205154E+03  0.00000000000E+00 0. -1.
          1   -1    0    0  501    0 -0.00000000000E+00 -0.00000000000E+00 -0.68881260317E+03  0.68881260317E+03  0.00000000000E+00 0. -1.
         25    2    1    2    0    0  0.40276263953E+02  0.53846314520E+02 -0.40133969684E+03  0.42569937745E+03  0.12499921872E+03 0.  0.
          2    1    1    2  501    0  0.12975815786E+02 -0.34792925868E+02 -0.26594905563E+03  0.26852899224E+03  0.00000000000E+00 0. -1.
          1    1    1    2  502    0 -0.53252079739E+02 -0.19053388652E+02  0.91238200834E+02  0.10734628502E+03  0.00000000000E+00 0. -1.
         22    1    3    3    0    0  0.70906479422E+02 -0.90697916288E+01 -0.18534573487E+03  0.19865304272E+03  0.00000000000E+00 0. -1.
         22    1    3    3    0    0 -0.30630215469E+02  0.62916106148E+02 -0.21599396196E+03  0.22704633474E+03  0.00000000000E+00 0. -1.
</event>
<event>
 7    1  0.7572450E-006  0.1326976E+03  0.7818608E-02  0.1308915E+00
          2   -1    0    0  502    0  0.00000000000E+00  0.00000000000E+00  0.23259102372E+04  0.23259102372E+04  0.00000000000E+00 0. -1.
          1   -1    0    0  501    0 -0.00000000000E+00 -0.00000000000E+00 -0.16158238238E+04  0.16158238238E+04  0.00000000000E+00 0. -1.
         25    2    1    2    0    0  0.16024120070E+03 -0.86930612842E+02 -0.44231482787E+03  0.49447098105E+03  0.12499988119E+03 0.  0.
          2    1    1    2  501    0 -0.10506327459E+03  0.69877719106E+02 -0.11435978258E+04  0.11505377762E+04  0.00000000000E+00 0. -1.
          1    1    1    2  502    0 -0.55177926108E+02  0.17052893736E+02  0.22959990671E+04  0.22967253037E+04  0.00000000000E+00 0. -1.
         22    1    3    3    0    0  0.17774645555E+03 -0.92956036006E+02 -0.38318270399E+03  0.43250851058E+03  0.00000000000E+00 0. -1.
         22    1    3    3    0    0 -0.17505254852E+02  0.60254231643E+01 -0.59132123877E+02  0.61962470463E+02  0.00000000000E+00 0. -1.
</event>
<event>
 7    1  0.5553952E-006  0.1814383E+03  0.7818608E-02  0.1240458E+00
          2   -1    0    0  502    0  0.00000000000E+00  0.00000000000E+00  0.10068489512E+04  0.10068489512E+04  0.00000000000E+00 0. -1.
          1   -1    0    0  501    0 -0.00000000000E+00 -0.00000000000E+00 -0.11108755484E+04  0.11108755484E+04  0.00000000000E+00 0. -1.
         25    2    1    2    0    0 -0.12185638729E+03 -0.68743210778E+02  0.25493206599E+03  0.31652510616E+03  0.12499270542E+03 0.  0.
          2    1    1    2  501    0 -0.76892139652E+02  0.27061712560E+02 -0.10641927455E+04  0.10673101409E+04  0.00000000000E+00 0. -1.
          1    1    1    2  502    0  0.19874852694E+03  0.41681498218E+02  0.70523408222E+03  0.73388925253E+03  0.00000000000E+00 0. -1.
         22    1    3    3    0    0 -0.10544089333E+03 -0.42559024479E+02  0.26130314915E+03  0.28497085519E+03  0.00000000000E+00 0.  1.
         22    1    3    3    0    0 -0.16415493961E+02 -0.26184186299E+02 -0.63710831547E+01  0.31554250976E+02  0.00000000000E+00 0.  1.
</event>
<event>
 7    1  0.5553952E-006  0.1314577E+03  0.7818608E-02  0.1324042E+00
          2   -1    0    0  502    0  0.00000000000E+00  0.00000000000E+00  0.16011357106E+04  0.16011357106E+04  0.00000000000E+00 0. -1.
          1   -1    0    0  501    0 -0.00000000000E+00 -0.00000000000E+00 -0.36938182460E+03  0.36938182460E+03  0.00000000000E+00 0. -1.
         25    2    1    2    0    0  0.30994549166E+02 -0.12776690198E+03 -0.19223742886E+03  0.26432222956E+03  0.12500387460E+03 0.  0.
          2    1    1    2  501    0 -0.50837924024E+02 -0.23038913125E+01 -0.13364780826E+03  0.14300887765E+03  0.00000000000E+00 0. -1.
          1    1    1    2  502    0  0.19843374858E+02  0.13007079329E+03  0.15576391231E+04  0.15631864280E+04  0.00000000000E+00 0. -1.
         22    1    3    3    0    0  0.63465341299E+02 -0.17597838488E+02 -0.81422852417E+02  0.10472446878E+03  0.00000000000E+00 0.  1.
         22    1    3    3    0    0 -0.32470792134E+02 -0.11016906349E+03 -0.11081457644E+03  0.15959776078E+03  0.00000000000E+00 0.  1.
</event>
<event>
 7    1  0.5553952E-006  0.1237695E+03  0.7818608E-02  0.1303549E+00
          2   -1    0    0  502    0  0.00000000000E+00  0.00000000000E+00  0.11200078648E+04  0.11200078648E+04  0.00000000000E+00 0. -1.
          1   -1    0    0  501    0 -0.00000000000E+00 -0.00000000000E+00 -0.17702030290E+03  0.17702030290E+03  0.00000000000E+00 0. -1.
         25    2    1    2    0    0 -0.42919286786E+02  0.17168952008E+03  0.45764458598E+03  0.50634285619E+03  0.12500065781E+03 0.  0.
          2    1    1    2  501    0  0.73832586412E+01 -0.64606273210E+02 -0.14046578386E+03  0.15478733631E+03  0.00000000000E+00 0. -1.
          1    1    1    2  502    0  0.35536028145E+02 -0.10708324687E+03  0.62580875981E+03  0.63589797524E+03  0.00000000000E+00 0. -1.
         22    1    3    3    0    0  0.41974534867E+02  0.33426771851E+02  0.13291982603E+03  0.14334186690E+03  0.00000000000E+00 0.  1.
         22    1    3    3    0    0 -0.84893821653E+02  0.13826274822E+03  0.32472475995E+03  0.36300098929E+03  0.00000000000E+00 0.  1.
</event>
<event>
 7    1  0.5553952E-006  0.3569829E+03  0.7818608E-02  0.1185554E+00
          2   -1    0    0  502    0  0.00000000000E+00  0.00000000000E+00  0.20069494265E+04  0.20069494265E+04  0.00000000000E+00 0. -1.
          1   -1    0    0  501    0 -0.00000000000E+00 -0.00000000000E+00 -0.45472826133E+03  0.45472826133E+03  0.00000000000E+00 0. -1.
         25    2    1    2    0    0 -0.36002765848E+03  0.18378268085E+03  0.44382490648E+03  0.61318960472E+03  0.12499982029E+03 0.  0.
          2    1    1    2  501    0  0.28749708627E+03 -0.19970733833E+03 -0.28605099401E+03  0.45206500282E+03  0.00000000000E+00 0. -1.
          1    1    1    2  502    0  0.72530572208E+02  0.15924657482E+02  0.13944472527E+04  0.13964230803E+04  0.00000000000E+00 0. -1.
         22    1    3    3    0    0 -0.14419826025E+03  0.15926724602E+02  0.19836249227E+03  0.24575287822E+03  0.00000000000E+00 0. -1.
         22    1    3    3    0    0 -0.21582939823E+03  0.16785595624E+03  0.24546241421E+03  0.36743672650E+03  0.00000000000E+00 0. -1.
</event>
<event>
 7    1  0.5553952E-006  0.3870273E+02  0.7818608E-02  0.1555848E+00
          2   -1    0    0  502    0  0.00000000000E+00  0.00000000000E+00  0.10146659725E+03  0.10146659725E+03  0.00000000000E+00 0. -1.
          1   -1    0    0  501    0 -0.00000000000E+00 -0.00000000000E+00 -0.16078958150E+04  0.16078958150E+04  0.00000000000E+00 0. -1.
         25    2    1    2    0    0 -0.18267910763E+02 -0.30318072606E+02 -0.54297029471E+03  0.55829562080E+03  0.12499742869E+03 0.  0.
          2    1    1    2  501    0 -0.19811221786E+02  0.22815075251E+02 -0.10530223144E+04  0.10534557451E+04  0.00000000000E+00 0. -1.
          1    1    1    2  502    0  0.38079132549E+02  0.75029973553E+01  0.89563391364E+02  0.97611046391E+02  0.00000000000E+00 0. -1.
         22    1    3    3    0    0 -0.18424111515E+02 -0.62949804923E+02 -0.14683644141E+03  0.16081998120E+03  0.00000000000E+00 0. -1.
         22    1    3    3    0    0  0.15620075287E+00  0.32631732316E+02 -0.39613385330E+03  0.39747563961E+03  0.00000000000E+00 0. -1.
</event>
<event>
 7    1  0.5553952E-006  0.1070655E+03  0.7818608E-02  0.1310162E+00
          2   -1    0    0  502    0  0.00000000000E+00  0.00000000000E+00  0.20004985104E+04  0.20004985104E+04  0.00000000000E+00 0. -1.
          1   -1    0    0  501    0 -0.00000000000E+00 -0.00000000000E+00 -0.20664343000E+02  0.20664343000E+02  0.00000000000E+00 0. -1.
         25    2    1    2    0    0  0.10896385525E+03  0.39607163459E+02  0.81497479133E+03  0.83261656234E+03  0.12499832090E+03 0.  0.
          2    1    1    2  501    0 -0.48197644592E+02  0.51825161424E+02  0.13118394382E+03  0.14905732930E+03  0.00000000000E+00 0. -1.
          1    1    1    2  502    0 -0.60766210663E+02 -0.91432324883E+02  0.10336754322E+04  0.10394889617E+04  0.00000000000E+00 0. -1.
         22    1    3    3    0    0  0.93511987916E+02  0.59891673252E+02  0.35562576102E+03  0.37256031231E+03  0.00000000000E+00 0. -1.
         22    1    3    3    0    0  0.15451867339E+02 -0.20284509793E+02  0.45934903031E+03  0.46005625003E+03  0.00000000000E+00 0. -1.
</event>
<event>
 7    1  0.5553952E-006  0.5975175E+02  0.7818608E-02  0.1533857E+00
          2   -1    0    0  502    0  0.00000000000E+00  0.00000000000E+00  0.96716829732E+03  0.96716829732E+03  0.00000000000E+00 0. -1.
          1   -1    0    0  501    0 -0.00000000000E+00 -0.00000000000E+00 -0.28567072617E+02  0.28567072617E+02  0.00000000000E+00 0. -1.
         25    2    1    2    0    0 -0.86809649711E+01  0.52682199988E+02  0.36461755950E+03  0.38912957369E+03  0.12500034830E+03 0.  0.
          2    1    1    2  501    0  0.21455527235E+02  0.69819945584E+01 -0.60592865221E+01  0.23362423892E+02  0.00000000000E+00 0. -1.
          1    1    1    2  502    0 -0.12774562264E+02 -0.59664194546E+02  0.58004295173E+03  0.58324337236E+03  0.00000000000E+00 0. -1.
         22    1    3    3    0    0  0.16796191318E+02  0.33406051233E+02  0.35324450114E+03  0.35521789635E+03  0.00000000000E+00 0.  1.
         22    1    3    3    0    0 -0.25477156289E+02  0.19276148755E+02  0.11373058359E+02  0.33911677337E+02  0.00000000000E+00 0.  1.
</event>
<event>
 7    1  0.5553952E-006  0.6771759E+02  0.7818608E-02  0.1449287E+00
          2   -1    0    0  502    0  0.00000000000E+00  0.00000000000E+00  0.45856890894E+03  0.45856890894E+03  0.00000000000E+00 0. -1.
          1   -1    0    0  501    0 -0.00000000000E+00 -0.00000000000E+00 -0.28216922822E+03  0.28216922822E+03  0.00000000000E+00 0. -1.
         25    2    1    2    0    0 -0.12656939637E+02 -0.51848516668E+02 -0.19205295171E+03  0.23528205966E+03  0.12499937815E+03 0.  0.
          2    1    1    2  501    0  0.45355160522E+01  0.86773054410E+02 -0.39841750002E+02  0.95590265827E+02  0.00000000000E+00 0. -1.
          1    1    1    2  502    0  0.81214235850E+01 -0.34924537742E+02  0.40829438242E+03  0.40986581167E+03  0.00000000000E+00 0. -1.
         22    1    3    3    0    0  0.35239308864E+02  0.22379425658E+02 -0.32494189114E+02  0.52901038819E+02  0.00000000000E+00 0.  1.
         22    1    3    3    0    0 -0.47896248502E+02 -0.74227942326E+02 -0.15955876259E+03  0.18238102084E+03  0.00000000000E+00 0.  1.
</event>
<event>
 7    1  0.5553952E-006  0.1906866E+03  0.7818608E-02  0.1259578E+00
          2   -1    0    0  502    0  0.00000000000E+00  0.00000000000E+00  0.11578381559E+04  0.11578381559E+04  0.00000000000E+00 0. -1.
          1   -1    0    0  501    0 -0.00000000000E+00 -0.00000000000E+00 -0.14308753455E+03  0.14308753455E+03  0.00000000000E+00 0. -1.
         25    2    1    2    0    0  0.30592529133E+02  0.21613164423E+03  0.13899741002E+03  0.28739261380E+03  0.12500177598E+03 0.  0.
          2    1    1    2  501    0 -0.68192570269E+02 -0.16424677397E+03  0.49228414717E+02  0.18452822607E+03  0.00000000000E+00 0. -1.
          1    1    1    2  502    0  0.37600041136E+02 -0.51884870258E+02  0.82652479658E+03  0.82900485054E+03  0.00000000000E+00 0. -1.
         22    1    3    3    0    0  0.15787021790E+02  0.15353237643E+03  0.15744078160E+03  0.22047453454E+03  0.00000000000E+00 0. -1.
         22    1    3    3    0    0  0.14805507343E+02  0.62599267801E+02 -0.18443371581E+02  0.66918079263E+02  0.00000000000E+00 0. -1.
</event>
<event>
 7    1  0.5553952E-006  0.7056388E+02  0.7818608E-02  0.1507047E+00
          2   -1    0    0  502    0  0.00000000000E+00  0.00000000000E+00  0.15810169301E+04  0.15810169301E+04  0.00000000000E+00 0. -1.
          1   -1    0    0  501    0 -0.00000000000E+00 -0.00000000000E+00 -0.60797033826E+02  0.60797033826E+02  0.00000000000E+00 0. -1.
         25    2    1    2    0    0 -0.78766653286E+02  0.21103500256E+02  0.23427719190E+03  0.27777453219E+03  0.12499337859E+03 0.  0.
          2    1    1    2  501    0  0.18007404158E+02  0.14073727909E+02 -0.34689950569E+02  0.41541895627E+02  0.00000000000E+00 0. -1.
          1    1    1    2  502    0  0.60759249128E+02 -0.35177228165E+02  0.13206326549E+04  0.13224975361E+04  0.00000000000E+00 0. -1.
         22    1    3    3    0    0 -0.96414631898E+02  0.54630099637E+02  0.18444464553E+03  0.21517447873E+03  0.00000000000E+00 0.  1.
         22    1    3    3    0    0  0.17647978611E+02 -0.33526599381E+02  0.49832546371E+02  0.62600053458E+02  0.00000000000E+00 0.  1.
</event>
<event>
 7    1  0.5553952E-006  0.1233182E+03  0.7818608E-02  0.1251221E+00
          2   -1    0    0  502    0  0.00000000000E+00  0.00000000000E+00  0.79471382527E+03  0.79471382527E+03  0.00000000000E+00 0. -1.
          1   -1    0    0  501    0 -0.00000000000E+00 -0.00000000000E+00 -0.31323106290E+03  0.31323106290E+03  0.00000000000E+00 0. -1.
         25    2    1    2    0    0  0.17792120532E+03  0.12004262491E+03  0.91198898506E+02  0.26459460952E+03  0.12500752458E+03 0.  0.
          2    1    1    2  501    0 -0.10379751967E+03 -0.28460571047E+02 -0.20766788938E+03  0.23390143538E+03  0.00000000000E+00 0. -1.
          1    1    1    2  502    0 -0.74123685657E+02 -0.91582053862E+02  0.59795175324E+03  0.60944884327E+03  0.00000000000E+00 0. -1.
         22    1    3    3    0    0  0.13332931205E+03  0.14479704157E+03  0.79414117340E+02  0.21224865308E+03  0.00000000000E+00 0.  1.
         22    1    3    3    0    0  0.44591893267E+02 -0.24754416658E+02  0.11784781166E+02  0.52345956447E+02  0.00000000000E+00 0.  1.
</event>
<event>
 7    1  0.5553952E-006  0.1003652E+03  0.7818608E-02  0.1301530E+00
          2   -1    0    0  502    0  0.00000000000E+00  0.00000000000E+00  0.21785047361E+04  0.21785047361E+04  0.00000000000E+00 0. -1.
          1   -1    0    0  501    0 -0.00000000000E+00 -0.00000000000E+00 -0.26957526925E+03  0.26957526925E+03  0.00000000000E+00 0. -1.
         25    2    1    2    0    0  0.40616630608E+02 -0.10206007096E+02  0.18671491580E+03  0.22856501968E+03  0.12500254067E+03 0.  0.
          2    1    1    2  501    0  0.12017946645E+02 -0.80802327153E+02 -0.24049550903E+03  0.25399121437E+03  0.00000000000E+00 0. -1.
          1    1    1    2  502    0 -0.52634577253E+02  0.91008334249E+02  0.19627100600E+04  0.19655237713E+04  0.00000000000E+00 0. -1.
         22    1    3    3    0    0  0.84274943814E+02  0.75859018059E+01  0.12347998029E+03  0.14969007180E+03  0.00000000000E+00 0. -1.
         22    1    3    3    0    0 -0.43658313206E+02 -0.17791908902E+02  0.63234935508E+02  0.78874947880E+02  0.00000000000E+00 0. -1.
</event>
<event>
 7    1  0.5553952E-006  0.1534031E+03  0.7818608E-02  0.1244317E+00
          2   -1    0    0  502    0  0.00000000000E+00  0.00000000000E+00  0.21786900671E+03  0.21786900671E+03  0.00000000000E+00 0. -1.
          1   -1    0    0  501    0 -0.00000000000E+00 -0.00000000000E+00 -0.32758868231E+03  0.32758868231E+03  0.00000000000E+00 0. -1.
         25    2    1    2    0    0 -0.18338165108E+03  0.78396212519E+02 -0.53589319066E+01  0.23543023265E+03  0.12499552074E+03 0.  0.
          2    1    1    2  501    0  0.14515091916E+03  0.60772700066E+01 -0.14814171897E+03  0.20748901524E+03  0.00000000000E+00 0. -1.
          1    1    1    2  502    0  0.38230731912E+02 -0.84473482526E+02  0.43780975283E+02  0.10253844113E+03  0.00000000000E+00 0. -1.
         22    1    3    3    0    0 -0.19496652508E+03  0.65729430489E+02  0.17897254374E+02  0.20652509690E+03  0.00000000000E+00 0.  1.
         22    1    3    3    0    0  0.11584874001E+02  0.12666782030E+02 -0.23256186280E+02  0.28905135753E+02  0.00000000000E+00 0.  1.
</event>
<event>
 7    1  0.5553952E-006  0.4735145E+02  0.7818608E-02  0.1511927E+00
          2   -1    0    0  502    0  0.00000000000E+00  0.00000000000E+00  0.61127173160E+02  0.61127173160E+02  0.00000000000E+00 0. -1.
          1   -1    0    0  501    0 -0.00000000000E+00 -0.00000000000E+00 -0.11778663341E+04  0.11778663341E+04  0.00000000000E+00 0. -1.
         25    2    1    2    0    0  0.54195064464E+02  0.44198924796E+02 -0.12594621568E+03  0.19072877571E+03  0.12499746668E+03 0.  0.
          2    1    1    2  501    0 -0.21321499370E+02 -0.41961733129E+02 -0.10093513522E+04  0.10104481905E+04  0.00000000000E+00 0. -1.
          1    1    1    2  502    0 -0.32873565094E+02 -0.22371916670E+01  0.18558406974E+02  0.37816541063E+02  0.00000000000E+00 0. -1.
         22    1    3    3    0    0  0.65116565243E+02  0.49097214184E+02 -0.19814842141E+02  0.83924558258E+02  0.00000000000E+00 0.  1.
         22    1    3    3    0    0 -0.10921500778E+02 -0.48982893881E+01 -0.10613137353E+03  0.10680421746E+03  0.00000000000E+00 0.  1.
</event>
<event>
 7    1  0.5553952E-006  0.7878089E+02  0.7818608E-02  0.1337326E+00
          2   -1    0    0  502    0  0.00000000000E+00  0.00000000000E+00  0.96783428144E+03  0.96783428144E+03  0.00000000000E+00 0. -1.
          1   -1    0    0  501    0 -0.00000000000E+00 -0.00000000000E+00 -0.13452191756E+03  0.13452191756E+03  0.00000000000E+00 0. -1.
         25    2    1    2    0    0  0.51607726862E+02 -0.52472405844E+02  0.40445112826E+03  0.42967718192E+03  0.12500021865E+03 0.  0.
          2    1    1    2  501    0  0.34860030210E+02  0.67040048470E+02 -0.10627892060E+03  0.13040244924E+03  0.00000000000E+00 0. -1.
          1    1    1    2  502    0 -0.86467757072E+02 -0.14567642626E+02  0.53514015622E+03  0.54227656783E+03  0.00000000000E+00 0. -1.
         22    1    3    3    0    0 -0.40171155799E+01 -0.76624048911E+02  0.29204666044E+03  0.30195800033E+03  0.00000000000E+00 0.  1.
         22    1    3    3    0    0  0.55624842442E+02  0.24151643067E+02  0.11240446782E+03  0.12771918159E+03  0.00000000000E+00 0.  1.
</event>
<event>
 7    1  0.5553952E-006  0.1875375E+03  0.7818608E-02  0.1365130E+00
          2   -1    0    0  502    0  0.00000000000E+00  0.00000000000E+00  0.11357267538E+04  0.11357267538E+04  0.00000000000E+00 0. -1.
          1   -1    0    0  501    0 -0.00000000000E+00 -0.00000000000E+00 -0.46312247774E+03  0.46312247774E+03  0.00000000000E+00 0. -1.
         25    2    1    2    0    0 -0.80663846132E+02 -0.18544567460E+03  0.83406333181E+03  0.86728507618E+03  0.12500003039E+03 0.  0.
          2    1    1    2  501    0  0.56608479945E+02  0.17845921075E+03 -0.42626894513E+03  0.46557214638E+03  0.00000000000E+00 0. -1.
          1    1    1    2  502    0  0.24055366187E+02  0.69864638571E+01  0.26480988941E+03  0.26599200899E+03  0.00000000000E+00 0. -1.
         22    1    3    3    0    0  0.24265042764E+02 -0.58926307486E+02  0.35843496515E+03  0.36405593836E+03  0.00000000000E+00 0. -1.
         22    1    3    3    0    0 -0.10492888890E+03 -0.12651936712E+03  0.47562836665E+03  0.50322913782E+03  0.00000000000E+00 0. -1.
</event>
<event>
 7    1  0.5553952E-006  0.4637727E+02  0.7818608E-02  0.1487950E+00
          2   -1    0    0  502    0  0.00000000000E+00  0.00000000000E+00  0.10937593970E+04  0.10937593970E+04  0.00000000000E+00 0. -1.
          1   -1    0    0  501    0 -0.00000000000E+00 -0.00000000000E+00 -0.37944101317E+03  0.37944101317E+03  0.00000000000E+00 0. -1.
         25    2    1    2    0    0  0.44272591300E+02 -0.68095540010E+02  0.35562821460E+01  0.14912212115E+03  0.12501077939E+03 0.  0.
          2    1    1    2  501    0 -0.12906883181E+02  0.43811212684E+02 -0.30456804726E+03  0.30797354660E+03  0.00000000000E+00 0. -1.
          1    1    1    2  502    0 -0.31365708119E+02  0.24284327326E+02  0.10153301489E+04  0.10161047424E+04  0.00000000000E+00 0. -1.
         22    1    3    3    0    0 -0.44778855030E+01 -0.81921246525E+02  0.35312880198E+02  0.89320443341E+02  0.00000000000E+00 0.  1.
         22    1    3    3    0    0  0.48750476803E+02  0.13825706515E+02 -0.31756598052E+02  0.59801677810E+02  0.00000000000E+00 0.  1.
</event>
<event>
 7    1  0.5553952E-006  0.5854660E+02  0.7818608E-02  0.1414790E+00
          2   -1    0    0  502    0  0.00000000000E+00  0.00000000000E+00  0.12026176609E+04  0.12026176609E+04  0.00000000000E+00 0. -1.
          1   -1    0    0  501    0 -0.00000000000E+00 -0.00000000000E+00 -0.97828599831E+03  0.97828599831E+03  0.00000000000E+00 0. -1.
         25    2    1    2    0    0 -0.38284052364E+01 -0.58370962625E+02  0.46466539098E+03  0.48472657252E+03  0.12499639420E+03 0.  0.
          2    1    1    2  501    0  0.50507213435E+02  0.18618181014E+02 -0.96621385267E+03  0.96771215987E+03  0.00000000000E+00 0. -1.
          1    1    1    2  502    0 -0.46678808199E+02  0.39752781611E+02  0.72588012425E+03  0.72846492679E+03  0.00000000000E+00 0. -1.
         22    1    3    3    0    0 -0.61448366972E+02 -0.50795818518E+02  0.28040337795E+03  0.29151701725E+03  0.00000000000E+00 0. -1.
         22    1    3    3    0    0  0.57619961736E+02 -0.75751441073E+01  0.18426201303E+03  0.19320955527E+03  0.00000000000E+00 0. -1.
</event>
<event>
 7    1  0.5553952E-006  0.6459362E+02  0.7818608E-02  0.1383899E+00
          2   -1    0    0  502    0  0.00000000000E+00  0.00000000000E+00  0.11706252363E+03  0.11706252363E+03  0.00000000000E+00 0. -1.
          1   -1    0    0  501    0 -0.00000000000E+00 -0.00000000000E+00 -0.11373736494E+04  0.11373736494E+04  0.00000000000E+00 0. -1.
         25    2    1    2    0    0 -0.81548744108E+02  0.74251498861E+02 -0.46346061235E+03  0.49252833737E+03  0.12499976463E+03 0.  0.
          2    1    1    2  501    0  0.60775716191E+02 -0.13817221511E+02 -0.64777825191E+03  0.65076974956E+03  0.00000000000E+00 0. -1.
          1    1    1    2  502    0  0.20773027917E+02 -0.60434277350E+02  0.90927738465E+02  0.11113808614E+03  0.00000000000E+00 0. -1.
         22    1    3    3    0    0 -0.55463148069E+02  0.61696305931E+02 -0.45480880064E+03  0.46231335704E+03  0.00000000000E+00 0. -1.
         22    1    3    3    0    0 -0.26085596039E+02  0.12555192930E+02 -0.86518117146E+01  0.30214980327E+02  0.00000000000E+00 0. -1.
</event>
<event>
 7    1  0.5553952E-006  0.7590228E+02  0.7818608E-02  0.1458907E+00
          2   -1    0    0  502    0  0.00000000000E+00  0.00000000000E+00  0.78002928358E+03  0.78002928358E+03  0.00000000000E+00 0. -1.
          1   -1    0    0  501    0 -0.00000000000E+00 -0.00000000000E+00 -0.10812911591E+03  0.10812911591E+03  0.00000000000E+00 0. -1.
         25    2    1    2    0    0  0.35818282215E+02  0.94255797400E+02  0.36432653374E+03  0.39815486580E+03  0.12500547703E+03 0.  0.
          2    1    1    2  501    0 -0.13120775529E+02 -0.26770870441E+02 -0.85492089934E+02  0.90541325902E+02  0.00000000000E+00 0. -1.
          1    1    1    2  502    0 -0.22697506686E+02 -0.67484926959E+02  0.39306572387E+03  0.39946220779E+03  0.00000000000E+00 0. -1.
         22    1    3    3    0    0  0.23240488896E+02 -0.21445102805E+02  0.15921597712E+03  0.16232603035E+03  0.00000000000E+00 0. -1.
         22    1    3    3    0    0  0.12577793319E+02  0.11570090021E+03  0.20511055662E+03  0.23582883545E+03  0.00000000000E+00 0. -1.
</event>
<event>
 7    1  0.5553952E-006  0.2844563E+02  0.7818608E-02  0.1616953E+00
          2   -1    0    0  502    0  0.00000000000E+00  0.00000000000E+00  0.65474769371E+03  0.65474769371E+03  0.00000000000E+00 0. -1.
          1   -1    0    0  501    0 -0.00000000000E+00 -0.00000000000E+00 -0.30166135371E+03  0.30166135371E+03  0.00000000000E+00 0. -1.
         25    2    1    2    0    0  0.43826042129E+02  0.22342113327E+02  0.11562386891E+03  0.17723854687E+03  0.12499892575E+03 0.  0.
          2    1    1    2  501    0 -0.15583667992E+02 -0.23709912001E+02 -0.26971611541E+03  0.27120433910E+03  0.00000000000E+00 0. -1.
          1    1    1    2  502    0 -0.28242374137E+02  0.13677986740E+01  0.50717858649E+03  0.50796616144E+03  0.00000000000E+00 0. -1.
         22    1    3    3    0    0 -0.12735754855E+02 -0.44636005833E+02  0.45204826811E+02  0.64792351674E+02  0.00000000000E+00 0. -1.
         22    1    3    3    0    0  0.56561796984E+02  0.66978119160E+02  0.70419042103E+02  0.11244619520E+03  0.00000000000E+00 0. -1.
</event>
<event>
 7    1  0.5553952E-006  0.8005855E+02  0.7818608E-02  0.1451444E+00
          2   -1    0    0  502    0  0.00000000000E+00  0.00000000000E+00  0.20158850033E+04  0.20158850033E+04  0.00000000000E+00 0. -1.
          1   -1    0    0  501    0 -0.00000000000E+00 -0.00000000000E+00 -0.18236323419E+04  0.18236323419E+04  0.00000000000E+00 0. -1.
         25    2    1    2    0    0  0.51730972242E+02 -0.39560248518E+02 -0.86606118481E+02  0.16542506140E+03  0.12499489761E+03 0.  0.
          2    1    1    2  501    0 -0.42965095951E+02  0.68095378220E+02 -0.16965492037E+04  0.16984587662E+04  0.00000000000E+00 0. -1.
          1    1    1    2  502    0 -0.87658762915E+01 -0.28535129701E+02  0.19754079836E+04  0.19756335176E+04  0.00000000000E+00 0. -1.
         22    1    3    3    0    0  0.85948561483E+02 -0.22318856229E+02 -0.23933672740E+02  0.91967968637E+02  0.00000000000E+00 0. -1.
         22    1    3    3    0    0 -0.34217589241E+02 -0.17241392290E+02 -0.62672445742E+02  0.73457092760E+02  0.00000000000E+00 0. -1.
</event>
<event>
 7    1  0.5553952E-006  0.1348460E+03  0.7818608E-02  0.1386893E+00
          2   -1    0    0  502    0  0.00000000000E+00  0.00000000000E+00  0.61329579690E+03  0.61329579690E+03  0.00000000000E+00 0. -1.
          1   -1    0    0  501    0 -0.00000000000E+00 -0.00000000000E+00 -0.15148877895E+03  0.15148877895E+03  0.00000000000E+00 0. -1.
         25    2    1    2    0    0  0.68454751599E+02  0.12961954561E+03  0.16790670718E+02  0.19337490707E+03  0.12499859376E+03 0.  0.
          2    1    1    2  501    0  0.15051943746E+02 -0.24952619074E+02 -0.50399804944E+02  0.58217991614E+02  0.00000000000E+00 0. -1.
          1    1    1    2  502    0 -0.83506695345E+02 -0.10466692654E+03  0.49541615217E+03  0.51319167717E+03  0.00000000000E+00 0. -1.
         22    1    3    3    0    0  0.66482176195E+02  0.39467980575E+02  0.55573193883E+02  0.95215445809E+02  0.00000000000E+00 0. -1.
         22    1    3    3    0    0  0.19725754042E+01  0.90151565038E+02 -0.38782523166E+02  0.98159461264E+02  0.00000000000E+00 0. -1.
</event>
<event>
 7    1  0.5553952E-006  0.7913363E+02  0.7818608E-02  0.1354279E+00
          2   -1    0    0  502    0  0.00000000000E+00  0.00000000000E+00  0.31761152231E+04  0.31761152231E+04  0.00000000000E+00 0. -1.
          1   -1    0    0  501    0 -0.00000000000E+00 -0.00000000000E+00 -0.53792522382E+03  0.53792522382E+03  0.00000000000E+00 0. -1.
         25    2    1    2    0    0  0.13102740750E+03 -0.35112325256E+02  0.15204993971E+03  0.23905146247E+03  0.12500144255E+03 0.  0.
          2    1    1    2  501    0 -0.78274964551E+02 -0.29223278360E+01 -0.49096476024E+03  0.49717391914E+03  0.00000000000E+00 0. -1.
          1    1    1    2  502    0 -0.52752442947E+02  0.38034653092E+02  0.29771048199E+04  0.29778150654E+04  0.00000000000E+00 0. -1.
         22    1    3    3    0    0  0.16301447907E+02 -0.51143850520E+02  0.81111973155E+01  0.54288324452E+02  0.00000000000E+00 0. -1.
         22    1    3    3    0    0  0.11472595959E+03  0.16031525264E+02  0.14393874240E+03  0.18476313801E+03  0.00000000000E+00 0. -1.
</event>
<event>
 7    1  0.5553952E-006  0.1644550E+03  0.7818608E-02  0.1244085E+00
          2   -1    0    0  502    0  0.00000000000E+00  0.00000000000E+00  0.31460124357E+04  0.31460124357E+04  0.00000000000E+00 0. -1.
          1   -1    0    0  501    0 -0.00000000000E+00 -0.00000000000E+00 -0.55661906074E+03  0.55661906074E+03  0.00000000000E+00 0. -1.
         25    2    1    2    0    0 -0.86557132375E+02 -0.14624730003E+02  0.10892485075E+03  0.18760530529E+03  0.12500043028E+03 0.  0.
          2    1    1    2  501    0  0.17196962877E+03 -0.21912532592E+00 -0.50233875870E+03  0.53095934847E+03  0.00000000000E+00 0. -1.
          1    1    1    2  502    0 -0.85412496392E+02  0.14843855329E+02  0.29828072829E+04  0.29840668427E+04  0.00000000000E+00 0. -1.
         22    1    3    3    0    0 -0.41155320127E+01  0.45211208296E+02  0.11914388478E+02  0.46935526120E+02  0.00000000000E+00 0.  1.
         22    1    3    3    0    0 -0.82441600362E+02 -0.59835938299E+02  0.97010462271E+02  0.14066977917E+03  0.00000000000E+00 0.  1.
</event>
<event>
 7    1  0.5553952E-006  0.1173556E+03  0.7818608E-02  0.1313681E+00
          2   -1    0    0  502    0  0.00000000000E+00  0.00000000000E+00  0.29371631873E+04  0.29371631873E+04  0.00000000000E+00 0. -1.
          1   -1    0    0  501    0 -0.00000000000E+00 -0.00000000000E+00 -0.33214142279E+04  0.33214142279E+04  0.00000000000E+00 0. -1.
         25    2    1    2    0    0  0.76368127834E+01  0.15336108897E+03  0.23887365094E+03  0.31026346720E+03  0.12499941380E+03 0.  0.
          2    1    1    2  501    0  0.38238361154E+02 -0.11084967125E+03 -0.32843055903E+04  0.32863981853E+04  0.00000000000E+00 0. -1.
          1    1    1    2  502    0 -0.45875173937E+02 -0.42511417717E+02  0.26611808987E+04  0.26619157627E+04  0.00000000000E+00 0. -1.
         22    1    3    3    0    0  0.64429707323E+02  0.94057068266E+02  0.11746649121E+03  0.16369574165E+03  0.00000000000E+00 0. -1.
         22    1    3    3    0    0 -0.56792894540E+02  0.59304020701E+02  0.12140715973E+03  0.14656772556E+03  0.00000000000E+00 0. -1.
</event>
<event>
 7    1  0.5553952E-006  0.9029915E+02  0.7818608E-02  0.1310527E+00
          2   -1    0    0  502    0  0.00000000000E+00  0.00000000000E+00  0.13215258730E+03  0.13215258730E+03  0.00000000000E+00 0. -1.
          1   -1    0    0  501    0 -0.00000000000E+00 -0.00000000000E+00 -0.14672196660E+04  0.14672196660E+04  0.00000000000E+00 0. -1.
         25    2    1    2    0    0 -0.54643283017E+01  0.55080882966E+02 -0.41871104388E+03  0.44046066854E+03  0.12499159858E+03 0.  0.
          2    1    1    2  501    0  0.83515637845E+02 -0.44952729022E+01 -0.10178298927E+04  0.10212603781E+04  0.00000000000E+00 0. -1.
          1    1    1    2  502    0 -0.78051309543E+02 -0.50585610064E+02  0.10147385792E+03  0.13765120671E+03  0.00000000000E+00 0. -1.
         22    1    3    3    0    0  0.38154746229E+02  0.20569851925E+02 -0.44439286757E+02  0.62078608840E+02  0.00000000000E+00 0. -1.
         22    1    3    3    0    0 -0.43619074531E+02  0.34511031041E+02 -0.37427175712E+03  0.37838205970E+03  0.00000000000E+00 0. -1.
</event>
<event>
 7    1  0.5553952E-006  0.7122071E+02  0.7818608E-02  0.1438197E+00
          2   -1    0    0  502    0  0.00000000000E+00  0.00000000000E+00  0.24232316074E+04  0.24232316074E+04  0.00000000000E+00 0. -1.
          1   -1    0    0  501    0 -0.00000000000E+00 -0.00000000000E+00 -0.37779558441E+02  0.37779558441E+02  0.00000000000E+00 0. -1.
         25    2    1    2    0    0 -0.19448424877E+02 -0.40943031197E+02  0.52972276464E+03  0.54615471523E+03  0.12499677018E+03 0.  0.
          2    1    1    2  501    0 -0.36250238409E+02 -0.75205947306E+01 -0.16953167380E+02  0.40719148002E+02  0.00000000000E+00 0. -1.
          1    1    1    2  502    0  0.55698663286E+02  0.48463625927E+02  0.18726824517E+04  0.18741373026E+04  0.00000000000E+00 0. -1.
         22    1    3    3    0    0  0.50044949218E+02 -0.29376350279E+02  0.31095443973E+03  0.31632282637E+03  0.00000000000E+00 0.  1.
         22    1    3    3    0    0 -0.69493374095E+02 -0.11566680917E+02  0.21876832491E+03  0.22983188885E+03  0.00000000000E+00 0.  1.
</event>
<event>
 7    1  0.5553952E-006  0.8068660E+02  0.7818608E-02  0.1340501E+00
          2   -1    0    0  502    0  0.00000000000E+00  0.00000000000E+00  0.10469616850E+04  0.10469616850E+04  0.00000000000E+00 0. -1.
          1   -1    0    0  501    0 -0.00000000000E+00 -0.00000000000E+00 -0.57142888367E+03  0.57142888367E+03  0.00000000000E+00 0. -1.
         25    2    1    2    0    0  0.11543994776E+03 -0.35942741388E+02  0.35598882244E+03  0.39619644514E+03  0.12500127694E+03 0.  0.
          2    1    1    2  501    0 -0.76726109855E+02 -0.24493072781E+02 -0.54644518610E+03  0.55234875573E+03  0.00000000000E+00 0. -1.
          1    1    1    2  502    0 -0.38713837902E+02  0.60435814170E+02  0.66598916498E+03  0.66984536779E+03  0.00000000000E+00 0. -1.
         22    1    3    3    0    0  0.77472311969E+02  0.41178087765E+02  0.17006302539E+03  0.19136098516E+03  0.00000000000E+00 0.  1.
         22    1    3    3    0    0  0.37967635788E+02 -0.77120829153E+02  0.18592579705E+03  0.20483545998E+03  0.00000000000E+00 0.  1.
</event>
<event>
 7    1  0.5553952E-006  0.6424099E+02  0.7818608E-02  0.1440402E+00
          2   -1    0    0  502    0  0.00000000000E+00  0.00000000000E+00  0.25032648415E+03  0.25032648415E+03  0.00000000000E+00 0. -1.
          1   -1    0    0  501    0 -0.00000000000E+00 -0.00000000000E+00 -0.62729625167E+03  0.62729625167E+03  0.00000000000E+00 0. -1.
         25    2    1    2    0    0 -0.70668455450E+02  0.48467160687E+02 -0.13582481214E+02  0.15216048241E+03  0.12500092941E+03 0.  0.
          2    1    1    2  501    0  0.63290258378E+02 -0.87737667478E+01 -0.54026758399E+03  0.54403280976E+03  0.00000000000E+00 0. -1.
          1    1    1    2  502    0  0.73781970718E+01 -0.39693393939E+02  0.17688029768E+03  0.18142944365E+03  0.00000000000E+00 0. -1.
         22    1    3    3    0    0  0.25911806825E+02  0.23744155916E+02  0.27205598817E+02  0.44444924121E+02  0.00000000000E+00 0.  1.
         22    1    3    3    0    0 -0.96580262275E+02  0.24723004771E+02 -0.40788080031E+02  0.10771555829E+03  0.00000000000E+00 0.  1.
</event>
<event>
 7    1  0.5553952E-006  0.6152175E+02  0.7818608E-02  0.1487143E+00
          2   -1    0    0  502    0  0.00000000000E+00  0.00000000000E+00  0.93533426276E+03  0.93533426276E+03  0.00000000000E+00 0. -1.
          1   -1    0    0  501    0 -0.00000000000E+00 -0.00000000000E+00 -0.10723038913E+03  0.10723038913E+03  0.00000000000E+00 0. -1.
         25    2    1    2    0    0  0.38651472875E+02 -0.46891561127E+02 -0.33620944693E+02  0.14299919855E+03  0.12500259198E+03 0.  0.
          2    1    1    2  501    0 -0.26828989363E+02 -0.13584545197E+02 -0.51442707710E+01  0.30508983271E+02  0.00000000000E+00 0. -1.
          1    1    1    2  502    0 -0.11822483512E+02  0.60476106324E+02  0.86686908909E+03  0.86905647007E+03  0.00000000000E+00 0. -1.
         22    1    3    3    0    0  0.11972654189E+01  0.22251981928E+02  0.33079101732E+02  0.39884973556E+02  0.00000000000E+00 0.  1.
         22    1    3    3    0    0  0.37454207456E+02 -0.69143543055E+02 -0.66700046425E+02  0.10311422499E+03  0.00000000000E+00 0.  1.
</event>
<event>
 7    1  0.5553952E-006  0.1368214E+03  0.7818608E-02  0.1247238E+00
          2   -1    0    0  502    0  0.00000000000E+00  0.00000000000E+00  0.44980992095E+04  0.44980992095E+04  0.00000000000E+00 0. -1.
          1   -1    0    0  501    0 -0.00000000000E+00 -0.00000000000E+00 -0.79621352096E+03  0.79621352096E+03  0.00000000000E+00 0. -1.
         25    2    1    2    0    0  0.86860573237E+02 -0.14036202082E+03  0.37067267130E+04  0.37125063000E+04  0.12503538133E+03 0.  0.
          2    1    1    2  501    0 -0.96977408919E+02  0.28036623702E+02 -0.78604643443E+03  0.79250215595E+03  0.00000000000E+00 0. -1.
          1    1    1    2  502    0  0.10116835682E+02  0.11232539712E+03  0.78120540992E+03  0.78930427447E+03  0.00000000000E+00 0. -1.
         22    1    3    3    0    0  0.53050413765E+02  0.53707713585E+01  0.13362625589E+04  0.13373259953E+04  0.00000000000E+00 0. -1.
         22    1    3    3    0    0  0.33810159472E+02 -0.14573279218E+03  0.23704641542E+04  0.23751803047E+04  0.00000000000E+00 0. -1.
</event>
<event>
 7    1  0.5553952E-006  0.4939423E+02  0.7818608E-02  0.1479847E+00
          2   -1    0    0  502    0  0.00000000000E+00  0.00000000000E+00  0.28039408959E+03  0.28039408959E+03  0.00000000000E+00 0. -1.
          1   -1    0    0  501    0 -0.00000000000E+00 -0.00000000000E+00 -0.70046522608E+03  0.70046522608E+03  0.00000000000E+00 0. -1.
         25    2    1    2    0    0 -0.13398863506E+02 -0.69529109041E+02 -0.15804968473E+03  0.21358427189E+03  0.12499884722E+03 0.  0.
          2    1    1    2  501    0 -0.20427165132E+02  0.33722434073E+02 -0.51148126200E+03  0.51299858968E+03  0.00000000000E+00 0. -1.
          1    1    1    2  502    0  0.33826028638E+02  0.35806674968E+02  0.24945981025E+03  0.25427645411E+03  0.00000000000E+00 0. -1.
         22    1    3    3    0    0  0.35854307466E+02 -0.13849780592E+02 -0.12758076010E+03  0.13324488033E+03  0.00000000000E+00 0. -1.
         22    1    3    3    0    0 -0.49253170973E+02 -0.55679328449E+02 -0.30468924632E+02  0.80339391556E+02  0.00000000000E+00 0. -1.
</event>
<event>
 7    1  0.5553952E-006  0.9464588E+02  0.7818608E-02  0.1336419E+00
          2   -1    0    0  502    0  0.00000000000E+00  0.00000000000E+00  0.11960927412E+04  0.11960927412E+04  0.00000000000E+00 0. -1.
          1   -1    0    0  501    0 -0.00000000000E+00 -0.00000000000E+00 -0.87142017524E+03  0.87142017524E+03  0.00000000000E+00 0. -1.
         25    2    1    2    0    0 -0.82716871469E+02  0.11339479889E+03 -0.96592066780E+02  0.21131802982E+03  0.12499928448E+03 0.  0.
          2    1    1    2  501    0  0.23973242821E+02 -0.89560994827E+02 -0.71358155793E+03  0.71957941048E+03  0.00000000000E+00 0. -1.
          1    1    1    2  502    0  0.58743628648E+02 -0.23833804064E+02  0.11348461907E+04  0.11366154762E+04  0.00000000000E+00 0. -1.
         22    1    3    3    0    0 -0.49532627861E+02 -0.17132279488E+02 -0.36325977610E+02  0.63769686158E+02  0.00000000000E+00 0. -1.
         22    1    3    3    0    0 -0.33184243608E+02  0.13052707838E+03 -0.60266089170E+02  0.14754834366E+03  0.00000000000E+00 0. -1.
</event>
<event>
 7    1  0.5553952E-006  0.5974880E+02  0.7818608E-02  0.1484684E+00
          2   -1    0    0  502    0  0.00000000000E+00  0.00000000000E+00  0.82105616709E+03  0.82105616709E+03  0.00000000000E+00 0. -1.
          1   -1    0    0  501    0 -0.00000000000E+00 -0.00000000000E+00 -0.28081865585E+02  0.28081865585E+02  0.00000000000E+00 0. -1.
         25    2    1    2    0    0 -0.32178174367E+02  0.72812017740E+02  0.41550001018E+03  0.44113710502E+03  0.12499864850E+03 0.  0.
          2    1    1    2  501    0  0.46985814214E+01 -0.57407817634E+02  0.42583303185E+02  0.71631500773E+02  0.00000000000E+00 0. -1.
          1    1    1    2  502    0  0.27479592945E+02 -0.15404200107E+02  0.33489098814E+03  0.33636942689E+03  0.00000000000E+00 0. -1.
         22    1    3    3    0    0  0.16022676328E+02  0.44642576987E+02  0.35750276396E+03  0.36063542820E+03  0.00000000000E+00 0.  1.
         22    1    3    3    0    0 -0.48200850694E+02  0.28169440753E+02  0.57997246226E+02  0.80501676813E+02  0.00000000000E+00 0.  1.
</event>
<event>
 7    1  0.5553952E-006  0.7833840E+02  0.7818608E-02  0.1365736E+00
          2   -1    0    0  502    0  0.00000000000E+00  0.00000000000E+00  0.12338402480E+04  0.12338402480E+04  0.00000000000E+00 0. -1.
          1   -1    0    0  501    0 -0.00000000000E+00 -0.00000000000E+00 -0.17022650952E+04  0.17022650952E+04  0.00000000000E+00 0. -1.
         25    2    1    2    0    0 -0.32599789604E+02 -0.30120045701E+02 -0.42260460670E+02  0.13919650937E+03  0.12497903124E+03 0.  0.
          2    1    1    2  501    0  0.78968149874E+02 -0.74283692039E+01 -0.16098087812E+04  0.16117616019E+04  0.00000000000E+00 0. -1.
          1    1    1    2  502    0 -0.46368360269E+02  0.37548414905E+02  0.11836443947E+04  0.11851472319E+04  0.00000000000E+00 0. -1.
         22    1    3    3    0    0 -0.33182067314E+02 -0.38555850609E+02  0.34825897592E+02  0.61647760304E+02  0.00000000000E+00 0. -1.
         22    1    3    3    0    0  0.58227770919E+00  0.84358049075E+01 -0.77086358263E+02  0.77548749068E+02  0.00000000000E+00 0. -1.
</event>
<event>
 7    1  0.5553952E-006  0.4544226E+02  0.7818608E-02  0.1528566E+00
          2   -1    0    0  502    0  0.00000000000E+00  0.00000000000E+00  0.11020062214E+04  0.11020062214E+04  0.00000000000E+00 0. -1.
          1   -1    0    0  501    0 -0.00000000000E+00 -0.00000000000E+00 -0.20053825829E+03  0.20053825829E+03  0.00000000000E+00 0. -1.
         25    2    1    2    0    0  0.61670825113E+02 -0.12526701390E+01  0.88430960896E+03  0.89522841423E+03  0.12500227711E+03 0.  0.
          2    1    1    2  501    0 -0.25216995425E+02 -0.17544733291E+02 -0.19186395926E+03  0.19430772859E+03  0.00000000000E+00 0. -1.
          1    1    1    2  502    0 -0.36453829689E+02  0.18797403430E+02  0.20902231342E+03  0.21300833688E+03  0.00000000000E+00 0. -1.
         22    1    3    3    0    0  0.77022491608E+02  0.29936680715E+02  0.34339658785E+03  0.35319949832E+03  0.00000000000E+00 0.  1.
         22    1    3    3    0    0 -0.15351666495E+02 -0.31189350854E+02  0.54091302111E+03  0.54202891591E+03  0.00000000000E+00 0.  1.
</event>
<event>
 7    1  0.5553952E-006  0.7681157E+02  0.7818608E-02  0.1428516E+00
          2   -1    0    0  502    0  0.00000000000E+00  0.00000000000E+00  0.11935521775E+04  0.11935521775E+04  0.00000000000E+00 0. -1.
          1   -1    0    0  501    0 -0.00000000000E+00 -0.00000000000E+00 -0.40167948735E+02  0.40167948735E+02  0.00000000000E+00 0. -1.
         25    2    1    2    0    0  0.70316351417E+02  0.52906494392E+02  0.80196458249E+03  0.81640424796E+03  0.12500087240E+03 0.  0.
          2    1    1    2  501    0 -0.36362467759E+02 -0.67426967316E+02  0.13992936117E+02  0.77874432544E+02  0.00000000000E+00 0. -1.
          1    1    1    2  502    0 -0.33953883657E+02  0.14520472923E+02  0.33742671020E+03  0.33944144577E+03  0.00000000000E+00 0. -1.
         22    1    3    3    0    0  0.89661836374E+02 -0.65400422383E+01  0.44170365812E+03  0.45075951311E+03  0.00000000000E+00 0.  1.
         22    1    3    3    0    0 -0.19345484957E+02  0.59446536631E+02  0.36026092436E+03  0.36564473486E+03  0.00000000000E+00 0.  1.
</event>
<event>
 7    1  0.5553952E-006  0.7357082E+02  0.7818608E-02  0.1384246E+00
          2   -1    0    0  502    0  0.00000000000E+00  0.00000000000E+00  0.71820886383E+03  0.71820886383E+03  0.00000000000E+00 0. -1.
          1   -1    0    0  501    0 -0.00000000000E+00 -0.00000000000E+00 -0.47144993640E+02  0.47144993640E+02  0.00000000000E+00 0. -1.
         25    2    1    2    0    0  0.39912606972E+02  0.10769273789E+03  0.39225743407E+03  0.42741762278E+03  0.12501674965E+03 0.  0.
          2    1    1    2  501    0 -0.81403626069E+00 -0.69628300919E+02  0.18606493029E+02  0.72076102327E+02  0.00000000000E+00 0. -1.
          1    1    1    2  502    0 -0.39098570712E+02 -0.38064436967E+02  0.26019994309E+03  0.26586013236E+03  0.00000000000E+00 0. -1.
         22    1    3    3    0    0  0.71359667707E+02  0.10678699010E+03  0.36058614532E+03  0.38277673862E+03  0.00000000000E+00 0.  1.
         22    1    3    3    0    0 -0.31447060734E+02  0.90574778228E+00  0.31671288750E+02  0.44640884164E+02  0.00000000000E+00 0.  1.
</event>
<event>
 7    1  0.5553952E-006  0.1612052E+03  0.7818608E-02  0.1312662E+00
          2   -1    0    0  502    0  0.00000000000E+00  0.00000000000E+00  0.46663456950E+03  0.46663456950E+03  0.00000000000E+00 0. -1.
          1   -1    0    0  501    0 -0.00000000000E+00 -0.00000000000E+00 -0.94671147582E+03  0.94671147582E+03  0.00000000000E+00 0. -1.
         25    2    1    2    0    0  0.16200324057E+03  0.17166916168E+02  0.17626329837E+03  0.27061953328E+03  0.12500571376E+03 0.  0.
          2    1    1    2  501    0 -0.15878743841E+03  0.28672698569E+02 -0.89004200705E+03  0.90454980435E+03  0.00000000000E+00 0. -1.
          1    1    1    2  502    0 -0.32158021613E+01 -0.45839614737E+02  0.23370180236E+03  0.23817670770E+03  0.00000000000E+00 0. -1.
         22    1    3    3    0    0  0.93105623455E+02 -0.28375401640E+01  0.17571088655E+03  0.19887439354E+03  0.00000000000E+00 0.  1.
         22    1    3    3    0    0  0.68897617116E+02  0.20004456332E+02  0.55241181908E+00  0.71745139739E+02  0.00000000000E+00 0.  1.
</event>
<event>
 7    1  0.5553952E-006  0.8561421E+02  0.7818608E-02  0.1365393E+00
          2   -1    0    0  502    0  0.00000000000E+00  0.00000000000E+00  0.87105196127E+03  0.87105196127E+03  0.00000000000E+00 0. -1.
          1   -1    0    0  501    0 -0.00000000000E+00 -0.00000000000E+00 -0.94330820126E+03  0.94330820126E+03  0.00000000000E+00 0. -1.
         25    2    1    2    0    0 -0.29636831502E+02 -0.39974575100E+02 -0.25436532021E+02  0.13692395385E+03  0.12499937416E+03 0.  0.
          2    1    1    2  501    0  0.28226291519E+02 -0.46913922665E+02 -0.85893831458E+03  0.86068151365E+03  0.00000000000E+00 0. -1.
          1    1    1    2  502    0  0.14105399822E+01  0.86888497764E+02  0.81211860661E+03  0.81675469504E+03  0.00000000000E+00 0. -1.
         22    1    3    3    0    0 -0.32353261565E+02 -0.64765306399E+02  0.28261371333E+02  0.77717331120E+02  0.00000000000E+00 0. -1.
         22    1    3    3    0    0  0.27164300637E+01  0.24790731299E+02 -0.53697903354E+02  0.59206622731E+02  0.00000000000E+00 0. -1.
</event>
<event>
 7    1  0.5553952E-006  0.4445971E+02  0.7818608E-02  0.1480664E+00
          2   -1    0    0  502    0  0.00000000000E+00  0.00000000000E+00  0.56511403618E+03  0.56511403618E+03  0.00000000000E+00 0. -1.
          1   -1    0    0  501    0 -0.00000000000E+00 -0.00000000000E+00 -0.12035316892E+03  0.12035316892E+03  0.00000000000E+00 0. -1.
         25    2    1    2    0    0 -0.26383290472E+02  0.19450120825E+02  0.16052284103E+03  0.20608871910E+03  0.12502236772E+03 0.  0.
          2    1    1    2  501    0 -0.14586837432E+02 -0.41035216870E+02 -0.91216059805E+02  0.10107934713E+03  0.00000000000E+00 0. -1.
          1    1    1    2  502    0  0.40970127904E+02  0.21585096045E+02  0.37545408603E+03  0.37829913887E+03  0.00000000000E+00 0. -1.
         22    1    3    3    0    0  0.19349336897E+02  0.35340219772E+02  0.20029026710E+01  0.40340297358E+02  0.00000000000E+00 0. -1.
         22    1    3    3    0    0 -0.45732627369E+02 -0.15890098947E+02  0.15851993836E+03  0.16574842174E+03  0.00000000000E+00 0. -1.
</event>
<event>
 7    1  0.5553952E-006  0.8268500E+02  0.7818608E-02  0.1411281E+00
          2   -1    0    0  502    0  0.00000000000E+00  0.00000000000E+00  0.13671087224E+04  0.13671087224E+04  0.00000000000E+00 0. -1.
          1   -1    0    0  501    0 -0.00000000000E+00 -0.00000000000E+00 -0.85635925230E+02  0.85635925230E+02  0.00000000000E+00 0. -1.
         25    2    1    2    0    0  0.50930089845E+02 -0.40364144503E+02  0.72665785355E+02  0.15851744645E+03  0.12499730499E+03 0.  0.
          2    1    1    2  501    0 -0.46257506843E+02  0.79252713021E+02  0.72702456427E+01  0.92052191349E+02  0.00000000000E+00 0. -1.
          1    1    1    2  502    0 -0.46725830022E+01 -0.38888568518E+02  0.12015367661E+04  0.12021750098E+04  0.00000000000E+00 0. -1.
         22    1    3    3    0    0 -0.11640160305E+02 -0.69600752226E+02  0.26183968135E+02  0.75268573984E+02  0.00000000000E+00 0. -1.
         22    1    3    3    0    0  0.62570250151E+02  0.29236607723E+02  0.46481817220E+02  0.83248872467E+02  0.00000000000E+00 0. -1.
</event>
<event>
 7    1  0.5553952E-006  0.1373013E+03  0.7818608E-02  0.1291446E+00
          2   -1    0    0  502    0  0.00000000000E+00  0.00000000000E+00  0.13596164717E+03  0.13596164717E+03  0.00000000000E+00 0. -1.
          1   -1    0    0  501    0 -0.00000000000E+00 -0.00000000000E+00 -0.29005315894E+04  0.29005315894E+04  0.00000000000E+00 0. -1.
         25    2    1    2    0    0 -0.79117788034E+02 -0.45476833162E+02 -0.16680224977E+04  0.16751881730E+04  0.12501438145E+03 0.  0.
          2    1    1    2  501    0 -0.58447998819E+02  0.29710902375E+02 -0.11915683686E+04  0.11933708910E+04  0.00000000000E+00 0. -1.
          1    1    1    2  502    0  0.13756578685E+03  0.15765930787E+02  0.95020924115E+02  0.16793417254E+03  0.00000000000E+00 0. -1.
         22    1    3    3    0    0  0.13610018288E+01 -0.18321787241E+02 -0.31524234098E+02  0.36487224465E+02  0.00000000000E+00 0. -1.
         22    1    3    3    0    0 -0.80478789863E+02 -0.27155045921E+02 -0.16364982636E+04  0.16387009486E+04  0.00000000000E+00 0. -1.
</event>
<event>
 7    1  0.5553952E-006  0.1407874E+03  0.7818608E-02  0.1344622E+00
          2   -1    0    0  502    0  0.00000000000E+00  0.00000000000E+00  0.11055419265E+04  0.11055419265E+04  0.00000000000E+00 0. -1.
          1   -1    0    0  501    0 -0.00000000000E+00 -0.00000000000E+00 -0.23505187176E+03  0.23505187176E+03  0.00000000000E+00 0. -1.
         25    2    1    2    0    0  0.76375876595E+02 -0.12374679107E+03  0.28114319029E+02  0.19380880910E+03  0.12499958690E+03 0.  0.
          2    1    1    2  501    0 -0.38407320316E+02  0.13533074972E+03 -0.11920260114E+03  0.18438761941E+03  0.00000000000E+00 0. -1.
          1    1    1    2  502    0 -0.37968556279E+02 -0.11583958651E+02  0.96157833682E+03  0.96239736970E+03  0.00000000000E+00 0. -1.
         22    1    3    3    0    0 -0.30928825227E+02 -0.54058623099E+02  0.20758335463E+02  0.65649337030E+02  0.00000000000E+00 0.  1.
         22    1    3    3    0    0  0.10730470182E+03 -0.69688167971E+02  0.73559835662E+01  0.12815947207E+03  0.00000000000E+00 0.  1.
</event>
<event>
 7    1  0.5553952E-006  0.1571777E+03  0.7818608E-02  0.1284387E+00
          2   -1    0    0  502    0  0.00000000000E+00  0.00000000000E+00  0.64305437714E+02  0.64305437714E+02  0.00000000000E+00 0. -1.
          1   -1    0    0  501    0 -0.00000000000E+00 -0.00000000000E+00 -0.13510809103E+04  0.13510809103E+04  0.00000000000E+00 0. -1.
         25    2    1    2    0    0  0.14726675556E+03  0.14397320128E+03 -0.60513203288E+03  0.65132626896E+03  0.12500140577E+03 0.  0.
          2    1    1    2  501    0 -0.51920876466E+02 -0.32402350497E+02 -0.58532245421E+03  0.58851343666E+03  0.00000000000E+00 0. -1.
          1    1    1    2  502    0 -0.95345879089E+02 -0.11157085079E+03 -0.96320985479E+02  0.17554664237E+03  0.00000000000E+00 0. -1.
         22    1    3    3    0    0  0.15818132137E+03  0.14638079721E+03 -0.48566020375E+03  0.53133275989E+03  0.00000000000E+00 0. -1.
         22    1    3    3    0    0 -0.10914565813E+02 -0.24075959240E+01 -0.11947182913E+03  0.11999350907E+03  0.00000000000E+00 0. -1.
</event>
<event>
 7    1  0.5553952E-006  0.1692659E+03  0.7818608E-02  0.1381170E+00
          2   -1    0    0  502    0  0.00000000000E+00  0.00000000000E+00  0.18097921606E+03  0.18097921606E+03  0.00000000000E+00 0. -1.
          1   -1    0    0  501    0 -0.00000000000E+00 -0.00000000000E+00 -0.10664939753E+04  0.10664939753E+04  0.00000000000E+00 0. -1.
         25    2    1    2    0    0 -0.55226585949E+02 -0.15350124767E+03 -0.47056260845E+03  0.51348567823E+03  0.12500305772E+03 0.  0.
          2    1    1    2  501    0  0.20611714705E+02 -0.12903579536E+02 -0.52883582579E+03  0.52939463143E+03  0.00000000000E+00 0. -1.
          1    1    1    2  502    0  0.34614871243E+02  0.16640482720E+03  0.11388367498E+03  0.20459288173E+03  0.00000000000E+00 0. -1.
         22    1    3    3    0    0 -0.86694817244E+02 -0.56493176512E+02 -0.24311303184E+03  0.26421850158E+03  0.00000000000E+00 0.  1.
         22    1    3    3    0    0  0.31468231296E+02 -0.97008071156E+02 -0.22744957662E+03  0.24926717665E+03  0.00000000000E+00 0.  1.
</event>
<event>
 7    1  0.5553952E-006  0.1017527E+03  0.7818608E-02  0.1376657E+00
          2   -1    0    0  502    0  0.00000000000E+00  0.00000000000E+00  0.16599870409E+04  0.16599870409E+04  0.00000000000E+00 0. -1.
          1   -1    0    0  501    0 -0.00000000000E+00 -0.00000000000E+00 -0.78746382087E+02  0.78746382087E+02  0.00000000000E+00 0. -1.
         25    2    1    2    0    0 -0.74676439697E+02  0.10446854210E+03  0.55181088369E+03  0.58017565253E+03  0.12497315510E+03 0.  0.
          2    1    1    2  501    0  0.78221232136E+02 -0.62646816979E+02 -0.25004895744E+02  0.10328809053E+03  0.00000000000E+00 0. -1.
          1    1    1    2  502    0 -0.35447924390E+01 -0.41821725124E+02  0.10544346709E+04  0.10552696799E+04  0.00000000000E+00 0. -1.
         22    1    3    3    0    0 -0.99323799469E+02  0.68701054930E+02  0.48977059281E+03  0.50444056704E+03  0.00000000000E+00 0.  1.
         22    1    3    3    0    0  0.24647359772E+02  0.35767487172E+02  0.62040290880E+02  0.75735085494E+02  0.00000000000E+00 0.  1.
</event>
<event>
 7    1  0.5553952E-006  0.8752328E+02  0.7818608E-02  0.1417849E+00
          2   -1    0    0  502    0  0.00000000000E+00  0.00000000000E+00  0.63138287525E+02  0.63138287525E+02  0.00000000000E+00 0. -1.
          1   -1    0    0  501    0 -0.00000000000E+00 -0.00000000000E+00 -0.82532801420E+03  0.82532801420E+03  0.00000000000E+00 0. -1.
         25    2    1    2    0    0 -0.87194476520E+01 -0.57970036175E+02 -0.46099150910E+03  0.48122168258E+03  0.12499832982E+03 0.  0.
          2    1    1    2  501    0  0.14938585354E+02 -0.31835599300E+02 -0.31431252459E+03  0.31627366287E+03  0.00000000000E+00 0. -1.
          1    1    1    2  502    0 -0.62191377017E+01  0.89805635475E+02  0.13114307012E+02  0.90970956273E+02  0.00000000000E+00 0. -1.
         22    1    3    3    0    0 -0.48872449205E+02 -0.57475391785E+02 -0.15264756550E+03  0.17027394459E+03  0.00000000000E+00 0.  1.
         22    1    3    3    0    0  0.40153001553E+02 -0.49464438979E+00 -0.30834394359E+03  0.31094773799E+03  0.00000000000E+00 0.  1.
</event>
<event>
 7    1  0.5553952E-006  0.6244358E+02  0.7818608E-02  0.1497087E+00
          2   -1    0    0  502    0  0.00000000000E+00  0.00000000000E+00  0.40954652684E+03  0.40954652684E+03  0.00000000000E+00 0. -1.
          1   -1    0    0  501    0 -0.00000000000E+00 -0.00000000000E+00 -0.10947316853E+04  0.10947316853E+04  0.00000000000E+00 0. -1.
         25    2    1    2    0    0  0.13684816962E+02 -0.88106844467E+02  0.15807722129E+03  0.22037292723E+03  0.12500291560E+03 0.  0.
          2    1    1    2  501    0 -0.14989129410E+02  0.60486716080E+02 -0.10617991163E+04  0.10636261938E+04  0.00000000000E+00 0. -1.
          1    1    1    2  502    0  0.13043124484E+01  0.27620128387E+02  0.21853673658E+03  0.22027909106E+03  0.00000000000E+00 0. -1.
         22    1    3    3    0    0 -0.40017096194E+02 -0.32609376542E+02  0.88875612909E+01  0.52380608740E+02  0.00000000000E+00 0.  1.
         22    1    3    3    0    0  0.53701913156E+02 -0.55497467925E+02  0.14918965999E+03  0.16799231849E+03  0.00000000000E+00 0.  1.
</event>
<event>
 7    1  0.5553952E-006  0.1060079E+03  0.7818608E-02  0.1458699E+00
          2   -1    0    0  502    0  0.00000000000E+00  0.00000000000E+00  0.14500176262E+03  0.14500176262E+03  0.00000000000E+00 0. -1.
          1   -1    0    0  501    0 -0.00000000000E+00 -0.00000000000E+00 -0.55889175339E+03  0.55889175339E+03  0.00000000000E+00 0. -1.
         25    2    1    2    0    0 -0.12400761385E+03 -0.21877362806E+02 -0.31771656937E+03  0.36390433644E+03  0.12500416126E+03 0.  0.
          2    1    1    2  501    0  0.21329700734E+02  0.14503789782E+01 -0.19491251671E+03  0.19608148536E+03  0.00000000000E+00 0. -1.
          1    1    1    2  502    0  0.10267791312E+03  0.20426983828E+02  0.98739095305E+02  0.14390769421E+03  0.00000000000E+00 0. -1.
         22    1    3    3    0    0 -0.60973885019E+02 -0.33581190203E+02 -0.43031032955E+02  0.81836304822E+02  0.00000000000E+00 0.  1.
         22    1    3    3    0    0 -0.63033728831E+02  0.11703827397E+02 -0.27468553642E+03  0.28206803162E+03  0.00000000000E+00 0.  1.
</event>
<event>
 7    1  0.5553952E-006  0.6133578E+02  0.7818608E-02  0.1489806E+00
          2   -1    0    0  502    0  0.00000000000E+00  0.00000000000E+00  0.73991803809E+02  0.73991803809E+02  0.00000000000E+00 0. -1.
          1   -1    0    0  501    0 -0.00000000000E+00 -0.00000000000E+00 -0.65716955101E+03  0.65716955101E+03  0.00000000000E+00 0. -1.
         25    2    1    2    0    0 -0.12323221818E+01  0.62903970667E+02 -0.24730450544E+03  0.28415316489E+03  0.12500029825E+03 0.  0.
          2    1    1    2  501    0 -0.27448666831E+02 -0.55553364165E+02 -0.38483424340E+03  0.38979097024E+03  0.00000000000E+00 0. -1.
          1    1    1    2  502    0  0.28680989013E+02 -0.73506065015E+01  0.48961001647E+02  0.57217219690E+02  0.00000000000E+00 0. -1.
         22    1    3    3    0    0 -0.37573597569E+02  0.70833902554E+02 -0.22912904671E+03  0.24275365503E+03  0.00000000000E+00 0. -1.
         22    1    3    3    0    0  0.36341275387E+02 -0.79299318871E+01 -0.18175458735E+02  0.41399509861E+02  0.00000000000E+00 0. -1.
</event>
<event>
 7    1  0.5553952E-006  0.9027547E+02  0.7818608E-02  0.1410092E+00
          2   -1    0    0  502    0  0.00000000000E+00  0.00000000000E+00  0.77911348785E+03  0.77911348785E+03  0.00000000000E+00 0. -1.
          1   -1    0    0  501    0 -0.00000000000E+00 -0.00000000000E+00 -0.46880445270E+03  0.46880445270E+03  0.00000000000E+00 0. -1.
         25    2    1    2    0    0  0.60591107701E+02 -0.47127744250E+01 -0.14849144382E+03  0.20339220057E+03  0.12500074316E+03 0.  0.
          2    1    1    2  501    0  0.28436521409E+02  0.22415627839E+02 -0.28898835047E+03  0.29124794048E+03  0.00000000000E+00 0. -1.
          1    1    1    2  502    0 -0.89027629110E+02 -0.17702853414E+02  0.74778882945E+03  0.75327779949E+03  0.00000000000E+00 0. -1.
         22    1    3    3    0    0  0.73446212476E+02 -0.49315738279E+02 -0.72656308278E+02  0.11447850148E+03  0.00000000000E+00 0.  1.
         22    1    3    3    0    0 -0.12855104775E+02  0.44602963854E+02 -0.75835135542E+02  0.88913699091E+02  0.00000000000E+00 0.  1.
</event>
<event>
 7    1  0.5553952E-006  0.1411583E+03  0.7818608E-02  0.1257114E+00
          2   -1    0    0  502    0  0.00000000000E+00  0.00000000000E+00  0.21655079754E+04  0.21655079754E+04  0.00000000000E+00 0. -1.
          1   -1    0    0  501    0 -0.00000000000E+00 -0.00000000000E+00 -0.16794632688E+03  0.16794632688E+03  0.00000000000E+00 0. -1.
         25    2    1    2    0    0  0.24331087398E+02  0.14682781460E+03  0.31629347578E+03  0.37123723202E+03  0.12500044265E+03 0.  0.
          2    1    1    2  501    0  0.76257365319E+02 -0.45277981735E+02 -0.12336352684E+03  0.15193367352E+03  0.00000000000E+00 0. -1.
          1    1    1    2  502    0 -0.10058845272E+03 -0.10154983287E+03  0.18046316996E+04  0.18102833968E+04  0.00000000000E+00 0. -1.
         22    1    3    3    0    0 -0.17348581992E+02  0.72377634179E+02  0.25641844670E+03  0.26700171354E+03  0.00000000000E+00 0.  1.
         22    1    3    3    0    0  0.41679669390E+02  0.74450180423E+02  0.59875029085E+02  0.10423551848E+03  0.00000000000E+00 0.  1.
</event>
<event>
 7    1  0.5553952E-006  0.5688370E+02  0.7818608E-02  0.1419297E+00
          2   -1    0    0  502    0  0.00000000000E+00  0.00000000000E+00  0.68525686002E+03  0.68525686002E+03  0.00000000000E+00 0. -1.
          1   -1    0    0  501    0 -0.00000000000E+00 -0.00000000000E+00 -0.36127503054E+03  0.36127503054E+03  0.00000000000E+00 0. -1.
         25    2    1    2    0    0  0.31758262036E+02  0.46199494807E+02 -0.13641134085E+03  0.19332789585E+03  0.12499856348E+03 0.  0.
          2    1    1    2  501    0 -0.60449961849E+02 -0.10344949288E+01 -0.19062894719E+03  0.19998665849E+03  0.00000000000E+00 0. -1.
          1    1    1    2  502    0  0.28691699813E+02 -0.45164999878E+02  0.65102211751E+03  0.65321733622E+03  0.00000000000E+00 0. -1.
         22    1    3    3    0    0  0.33165603826E+01 -0.36607735779E+02 -0.75329950406E+01  0.37521619180E+02  0.00000000000E+00 0. -1.
         22    1    3    3    0    0  0.28441701653E+02  0.82807230586E+02 -0.12887834581E+03  0.15580627667E+03  0.00000000000E+00 0. -1.
</event>
<event>
 7    1  0.5553952E-006  0.8093223E+02  0.7818608E-02  0.1427377E+00
          2   -1    0    0  502    0  0.00000000000E+00  0.00000000000E+00  0.63015074265E+03  0.63015074265E+03  0.00000000000E+00 0. -1.
          1   -1    0    0  501    0 -0.00000000000E+00 -0.00000000000E+00 -0.11294293263E+03  0.11294293263E+03  0.00000000000E+00 0. -1.
         25    2    1    2    0    0 -0.16028121973E+02 -0.61111807957E+02  0.13413683216E+03  0.19393255159E+03  0.12500236421E+03 0.  0.
          2    1    1    2  501    0 -0.11734686230E+02  0.82999423331E+02 -0.61009113855E+02  0.10367602957E+03  0.00000000000E+00 0. -1.
          1    1    1    2  502    0  0.27762808202E+02 -0.21887615374E+02  0.44408009171E+03  0.44548509412E+03  0.00000000000E+00 0. -1.
         22    1    3    3    0    0 -0.27860143074E+02 -0.84373936861E+02  0.14125800267E+03  0.16688011299E+03  0.00000000000E+00 0.  1.
         22    1    3    3    0    0  0.11832021101E+02  0.23262128904E+02 -0.71211705101E+01  0.27052438594E+02  0.00000000000E+00 0.  1.
</event>
<event>
 7    1  0.5553952E-006  0.1062841E+03  0.7818608E-02  0.1410462E+00
          2   -1    0    0  502    0  0.00000000000E+00  0.00000000000E+00  0.13461031813E+04  0.13461031813E+04  0.00000000000E+00 0. -1.
          1   -1    0    0  501    0 -0.00000000000E+00 -0.00000000000E+00 -0.13012373832E+03  0.13012373832E+03  0.00000000000E+00 0. -1.
         25    2    1    2    0    0 -0.15624069098E+02  0.86218412043E+02  0.66289608078E+03  0.68024535454E+03  0.12499920942E+03 0.  0.
          2    1    1    2  501    0 -0.71148169284E+01 -0.10679476207E+03 -0.97436172113E+02  0.14473959189E+03  0.00000000000E+00 0. -1.
          1    1    1    2  502    0  0.22738886027E+02  0.20576350023E+02  0.65051953428E+03  0.65124197315E+03  0.00000000000E+00 0. -1.
         22    1    3    3    0    0 -0.18863335270E+02  0.63396498855E+02  0.12132181882E+03  0.13818077003E+03  0.00000000000E+00 0. -1.
         22    1    3    3    0    0  0.32392661716E+01  0.22821913188E+02  0.54157426196E+03  0.54206458451E+03  0.00000000000E+00 0. -1.
</event>
<event>
 7    1  0.5553952E-006  0.5360779E+02  0.7818608E-02  0.1564374E+00
          2   -1    0    0  502    0  0.00000000000E+00  0.00000000000E+00  0.16992131898E+03  0.16992131898E+03  0.00000000000E+00 0. -1.
          1   -1    0    0  501    0 -0.00000000000E+00 -0.00000000000E+00 -0.13395378729E+04  0.13395378729E+04  0.00000000000E+00 0. -1.
         25    2    1    2    0    0 -0.93394503815E+01 -0.55569211896E+02 -0.17301576691E+03  0.22075541788E+03  0.12499334495E+03 0.  0.
          2    1    1    2  501    0 -0.18299988597E+02  0.96046289909E+01 -0.11376311683E+04  0.11378188844E+04  0.00000000000E+00 0. -1.
          1    1    1    2  502    0  0.27639438978E+02  0.45964582905E+02  0.14103038131E+03  0.15088488964E+03  0.00000000000E+00 0. -1.
         22    1    3    3    0    0 -0.37012166651E+02 -0.84802324337E+02 -0.14388078714E+03  0.17106436099E+03  0.00000000000E+00 0. -1.
         22    1    3    3    0    0  0.27672716269E+02  0.29233112441E+02 -0.29134979768E+02  0.49691056889E+02  0.00000000000E+00 0. -1.
</event>
<event>
 7    1  0.5553952E-006  0.1674471E+03  0.7818608E-02  0.1321921E+00
          2   -1    0    0  502    0  0.00000000000E+00  0.00000000000E+00  0.66452458288E+03  0.66452458288E+03  0.00000000000E+00 0. -1.
          1   -1    0    0  501    0 -0.00000000000E+00 -0.00000000000E+00 -0.27950012681E+04  0.27950012681E+04  0.00000000000E+00 0. -1.
         25    2    1    2    0    0 -0.51552789980E+02  0.14216951627E+03  0.27897570599E+03  0.34105990457E+03  0.12499820984E+03 0.  0.
          2    1    1    2  501    0 -0.38048561774E+02  0.14486729874E+02 -0.27408299504E+04  0.27411323163E+04  0.00000000000E+00 0. -1.
          1    1    1    2  502    0  0.89601351754E+02 -0.15665624615E+03  0.33137755918E+03  0.37733363013E+03  0.00000000000E+00 0. -1.
         22    1    3    3    0    0  0.25637598294E+01  0.49132145790E+02  0.84633312913E+01  0.49921624482E+02  0.00000000000E+00 0.  1.
         22    1    3    3    0    0 -0.54116549810E+02  0.93037370482E+02  0.27051237469E+03  0.29113828009E+03  0.00000000000E+00 0.  1.
</event>
<event>
 7    1  0.5553952E-006  0.1192947E+03  0.7818608E-02  0.1341804E+00
          2   -1    0    0  502    0  0.00000000000E+00  0.00000000000E+00  0.40624940941E+03  0.40624940941E+03  0.00000000000E+00 0. -1.
          1   -1    0    0  501    0 -0.00000000000E+00 -0.00000000000E+00 -0.19892008102E+03  0.19892008102E+03  0.00000000000E+00 0. -1.
         25    2    1    2    0    0  0.10167348796E+03 -0.35398277724E+02 -0.12763580203E+03  0.20858372073E+03  0.12500293747E+03 0.  0.
          2    1    1    2  501    0 -0.12922647487E+02 -0.46227955767E+02  0.87401516235E+01  0.48789434951E+02  0.00000000000E+00 0. -1.
          1    1    1    2  502    0 -0.88750840476E+02  0.81626233491E+02  0.32622497879E+03  0.34779633475E+03  0.00000000000E+00 0. -1.
         22    1    3    3    0    0  0.42720993311E+02 -0.36013468241E+01 -0.13457994979E+03  0.14124381705E+03  0.00000000000E+00 0.  1.
         22    1    3    3    0    0  0.58952494652E+02 -0.31796930900E+02  0.69441477625E+01  0.67339903687E+02  0.00000000000E+00 0.  1.
</event>
<event>
 7    1  0.5553952E-006  0.1700436E+03  0.7818608E-02  0.1230054E+00
          2   -1    0    0  502    0  0.00000000000E+00  0.00000000000E+00  0.81281985593E+03  0.81281985593E+03  0.00000000000E+00 0. -1.
          1   -1    0    0  501    0 -0.00000000000E+00 -0.00000000000E+00 -0.70375377103E+03  0.70375377103E+03  0.00000000000E+00 0. -1.
         25    2    1    2    0    0 -0.20796160434E+03  0.98417145191E+02 -0.34047709035E+03  0.42951655902E+03  0.12500344824E+03 0.  0.
          2    1    1    2  501    0  0.39284035208E+02 -0.88416310966E+02 -0.30180966820E+03  0.31693809378E+03  0.00000000000E+00 0. -1.
          1    1    1    2  502    0  0.16867756913E+03 -0.10000834225E+02  0.75135284345E+03  0.77011897417E+03  0.00000000000E+00 0. -1.
         22    1    3    3    0    0 -0.14845405143E+03  0.52616531030E+02 -0.12422109167E+03  0.20059407852E+03  0.00000000000E+00 0.  1.
         22    1    3    3    0    0 -0.59507552912E+02  0.45800614161E+02 -0.21625599868E+03  0.22892248050E+03  0.00000000000E+00 0.  1.
</event>
<event>
 7    1  0.5553952E-006  0.9895723E+02  0.7818608E-02  0.1348818E+00
          2   -1    0    0  502    0  0.00000000000E+00  0.00000000000E+00  0.63610377445E+03  0.63610377445E+03  0.00000000000E+00 0. -1.
          1   -1    0    0  501    0 -0.00000000000E+00 -0.00000000000E+00 -0.45871264613E+03  0.45871264613E+03  0.00000000000E+00 0. -1.
         25    2    1    2    0    0 -0.14706453082E+03 -0.63168547473E+01  0.31709086160E+01  0.19313756509E+03  0.12499674199E+03 0.  0.
          2    1    1    2  501    0  0.51065524359E+02  0.18986036720E+02 -0.35729017440E+03  0.36142001341E+03  0.00000000000E+00 0. -1.
          1    1    1    2  502    0  0.95999006465E+02 -0.12669181973E+02  0.53151039410E+03  0.54025884209E+03  0.00000000000E+00 0. -1.
         22    1    3    3    0    0 -0.87659075378E+02 -0.14463425426E+02 -0.59088288013E+02  0.10669925000E+03  0.00000000000E+00 0.  1.
         22    1    3    3    0    0 -0.59405455446E+02  0.81465706790E+01  0.62259196629E+02  0.86438315089E+02  0.00000000000E+00 0.  1.
</event>
<event>
 7    1  0.5553952E-006  0.9754839E+02  0.7818608E-02  0.1390983E+00
          2   -1    0    0  502    0  0.00000000000E+00  0.00000000000E+00  0.11651666965E+04  0.11651666965E+04  0.00000000000E+00 0. -1.
          1   -1    0    0  501    0 -0.00000000000E+00 -0.00000000000E+00 -0.99281970107E+02  0.99281970107E+02  0.00000000000E+00 0. -1.
         25    2    1    2    0    0  0.46845610756E+02 -0.46128331261E+02  0.17298486251E+03  0.22331959417E+03  0.12500217714E+03 0.  0.
          2    1    1    2  501    0 -0.64511766298E+02  0.80873708119E+02 -0.37406013893E+02  0.11000697492E+03  0.00000000000E+00 0. -1.
          1    1    1    2  502    0  0.17666155542E+02 -0.34745376858E+02  0.93030587775E+03  0.93112209749E+03  0.00000000000E+00 0. -1.
         22    1    3    3    0    0  0.37553085524E+02 -0.38913730406E+02  0.19281894152E+03  0.20025897447E+03  0.00000000000E+00 0. -1.
         22    1    3    3    0    0  0.92925252318E+01 -0.72146008551E+01 -0.19834079010E+02  0.23060619698E+02  0.00000000000E+00 0. -1.
</event>
<event>
 7    1  0.5553952E-006  0.1187535E+03  0.7818608E-02  0.1294742E+00
          2   -1    0    0  502    0  0.00000000000E+00  0.00000000000E+00  0.22109636822E+04  0.22109636822E+04  0.00000000000E+00 0. -1.
          1   -1    0    0  501    0 -0.00000000000E+00 -0.00000000000E+00 -0.45531504913E+02  0.45531504913E+02  0.00000000000E+00 0. -1.
         25    2    1    2    0    0  0.42881151195E+02  0.65463328117E+02  0.88117417346E+03  0.89342833893E+03  0.12498812896E+03 0.  0.
          2    1    1    2  501    0  0.89614730556E+01  0.72964982954E+02  0.32778832524E+01  0.73586284425E+02  0.00000000000E+00 0. -1.
          1    1    1    2  502    0 -0.51842624251E+02 -0.13842831107E+03  0.12809801206E+04  0.12894805638E+04  0.00000000000E+00 0. -1.
         22    1    3    3    0    0  0.22227398113E+02 -0.34953974070E+02  0.35076343964E+03  0.35320083255E+03  0.00000000000E+00 0.  1.
         22    1    3    3    0    0  0.20653753082E+02  0.10041730219E+03  0.53041073382E+03  0.54022750638E+03  0.00000000000E+00 0.  1.
</event>
<event>
 7    1  0.5553952E-006  0.1177838E+03  0.7818608E-02  0.1278532E+00
          2   -1    0    0  502    0  0.00000000000E+00  0.00000000000E+00  0.15391741617E+04  0.15391741617E+04  0.00000000000E+00 0. -1.
          1   -1    0    0  501    0 -0.00000000000E+00 -0.00000000000E+00 -0.53235665481E+03  0.53235665481E+03  0.00000000000E+00 0. -1.
         25    2    1    2    0    0  0.16352125138E+03  0.11079906912E+03  0.27135992827E+03  0.35815695143E+03  0.12499823125E+03 0.  0.
          2    1    1    2  501    0 -0.82085100984E+02 -0.82115627659E+02 -0.48051309717E+03  0.49434176099E+03  0.00000000000E+00 0. -1.
          1    1    1    2  502    0 -0.81436150392E+02 -0.28683441460E+02  0.12159706758E+04  0.12190321041E+04  0.00000000000E+00 0. -1.
         22    1    3    3    0    0  0.25422738863E+02  0.24247984114E+02 -0.67835752710E+01  0.35781241990E+02  0.00000000000E+00 0.  1.
         22    1    3    3    0    0  0.13809851251E+03  0.86551085005E+02  0.27814350354E+03  0.32237570944E+03  0.00000000000E+00 0.  1.
</event>
<event>
 7    1  0.5553952E-006  0.1863326E+03  0.7818608E-02  0.1200337E+00
          2   -1    0    0  502    0  0.00000000000E+00  0.00000000000E+00  0.38304428758E+03  0.38304428758E+03  0.00000000000E+00 0. -1.
          1   -1    0    0  501    0 -0.00000000000E+00 -0.00000000000E+00 -0.41151486611E+03  0.41151486611E+03  0.00000000000E+00 0. -1.
         25    2    1    2    0    0 -0.58283790348E+02 -0.11562589234E+03 -0.45053464994E+02  0.18553011844E+03  0.12500105176E+03 0.  0.
          2    1    1    2  501    0  0.17490553433E+03  0.14761911477E+03 -0.23614503805E+03  0.32885837070E+03  0.00000000000E+00 0. -1.
          1    1    1    2  502    0 -0.11662174398E+03 -0.31993222430E+02  0.25272792451E+03  0.28017066455E+03  0.00000000000E+00 0. -1.
         22    1    3    3    0    0 -0.29919696919E+01 -0.11700456774E+03 -0.48318424091E+01  0.11714250917E+03  0.00000000000E+00 0.  1.
         22    1    3    3    0    0 -0.55291820656E+02  0.13786753966E+01 -0.40221622585E+02  0.68387609262E+02  0.00000000000E+00 0.  1.
</event>
<event>
 7    1  0.5553952E-006  0.1782561E+03  0.7818608E-02  0.1181957E+00
          2   -1    0    0  502    0  0.00000000000E+00  0.00000000000E+00  0.46762680304E+03  0.46762680304E+03  0.00000000000E+00 0. -1.
          1   -1    0    0  501    0 -0.00000000000E+00 -0.00000000000E+00 -0.20228886432E+04  0.20228886432E+04  0.00000000000E+00 0. -1.
         25    2    1    2    0    0 -0.10312196230E+03  0.29806303298E+01 -0.33146067682E+03  0.36896431940E+03  0.12500186178E+03 0.  0.
          2    1    1    2  501    0  0.15449631968E+03 -0.14901504712E+03 -0.16521763635E+04  0.16660616235E+04  0.00000000000E+00 0. -1.
          1    1    1    2  502    0 -0.51374357385E+02  0.14603441679E+03  0.42837520021E+03  0.45548950332E+03  0.00000000000E+00 0. -1.
         22    1    3    3    0    0 -0.65243845722E+02  0.56084354650E+02 -0.11988756634E+03  0.14756436834E+03  0.00000000000E+00 0.  1.
         22    1    3    3    0    0 -0.37878116573E+02 -0.53103724320E+02 -0.21157311048E+03  0.22139995106E+03  0.00000000000E+00 0.  1.
</event>
<event>
 7    1  0.5553952E-006  0.1509421E+03  0.7818608E-02  0.1238482E+00
          2   -1    0    0  502    0  0.00000000000E+00  0.00000000000E+00  0.22379556675E+04  0.22379556675E+04  0.00000000000E+00 0. -1.
          1   -1    0    0  501    0 -0.00000000000E+00 -0.00000000000E+00 -0.23597425106E+03  0.23597425106E+03  0.00000000000E+00 0. -1.
         25    2    1    2    0    0  0.13664875181E+03 -0.14745360007E+03  0.18885401919E+03  0.30282978667E+03  0.12499837433E+03 0.  0.
          2    1    1    2  501    0 -0.99942393759E+02  0.24240711592E+01 -0.16197370024E+03  0.19034137165E+03  0.00000000000E+00 0. -1.
          1    1    1    2  502    0 -0.36706358056E+02  0.14502952891E+03  0.19751010975E+04  0.19807587603E+04  0.00000000000E+00 0. -1.
         22    1    3    3    0    0  0.56896455960E+02 -0.33817221115E+02  0.14138234983E+03  0.15610823165E+03  0.00000000000E+00 0.  1.
         22    1    3    3    0    0  0.79752295855E+02 -0.11363637895E+03  0.47471669357E+02  0.14672155502E+03  0.00000000000E+00 0.  1.
</event>
<event>
 7    1  0.6081181E-006  0.6866023E+02  0.7818608E-02  0.1497368E+00
          2   -1    0    0  502    0  0.00000000000E+00  0.00000000000E+00  0.31517051721E+04  0.31517051721E+04  0.00000000000E+00 0. -1.
          1   -1    0    0  501    0 -0.00000000000E+00 -0.00000000000E+00 -0.10437501813E+04  0.10437501813E+04  0.00000000000E+00 0. -1.
         25    2    1    2    0    0 -0.54874845198E+02 -0.43304862542E+02 -0.16376372850E+03  0.21755183595E+03  0.12499473107E+03 0.  0.
          2    1    1    2  501    0  0.19637087303E+02 -0.15630951904E+02 -0.85253045657E+03  0.85289983071E+03  0.00000000000E+00 0. -1.
          1    1    1    2  502    0  0.35237757895E+02  0.58935814446E+02  0.31242491758E+04  0.31250036868E+04  0.00000000000E+00 0. -1.
         22    1    3    3    0    0 -0.31032594175E+02 -0.38048609445E+01 -0.16831118602E+03  0.17119040338E+03  0.00000000000E+00 0.  1.
         22    1    3    3    0    0 -0.23842251023E+02 -0.39500001597E+02  0.45474575219E+01  0.46361432570E+02  0.00000000000E+00 0.  1.
</event>
<event>
 7    1  0.5553952E-006  0.4582569E+02  0.7818608E-02  0.1530887E+00
          2   -1    0    0  502    0  0.00000000000E+00  0.00000000000E+00  0.15806559233E+04  0.15806559233E+04  0.00000000000E+00 0. -1.
          1   -1    0    0  501    0 -0.00000000000E+00 -0.00000000000E+00 -0.88330370855E+02  0.88330370855E+02  0.00000000000E+00 0. -1.
         25    2    1    2    0    0  0.53902295164E+02 -0.10913842264E+02  0.19630219646E+02  0.13796811296E+03  0.12500114117E+03 0.  0.
          2    1    1    2  501    0 -0.32354842681E+02  0.31787373282E+02 -0.11280712638E+02  0.46738928344E+02  0.00000000000E+00 0. -1.
          1    1    1    2  502    0 -0.21547452483E+02 -0.20873531018E+02  0.14839760454E+04  0.14842792528E+04  0.00000000000E+00 0. -1.
         22    1    3    3    0    0  0.67854172334E+02  0.43195962321E+02  0.74882957686E+01  0.80784617579E+02  0.00000000000E+00 0.  1.
         22    1    3    3    0    0 -0.13951877170E+02 -0.54109804585E+02  0.12141923877E+02  0.57183495383E+02  0.00000000000E+00 0.  1.
</event>
<event>
 7    1  0.5553952E-006  0.8919387E+02  0.7818608E-02  0.1464235E+00
          2   -1    0    0  502    0  0.00000000000E+00  0.00000000000E+00  0.19250008834E+04  0.19250008834E+04  0.00000000000E+00 0. -1.
          1   -1    0    0  501    0 -0.00000000000E+00 -0.00000000000E+00 -0.11038205632E+04  0.11038205632E+04  0.00000000000E+00 0. -1.
         25    2    1    2    0    0  0.59531957066E+01 -0.72405635870E+02  0.12677749918E+03  0.19229294381E+03  0.12500410111E+03 0.  0.
          2    1    1    2  501    0  0.20345916991E+02 -0.13486093149E+02 -0.10697809066E+04  0.10700593531E+04  0.00000000000E+00 0. -1.
          1    1    1    2  502    0 -0.26299112698E+02  0.85891729019E+02  0.17641837276E+04  0.17664691498E+04  0.00000000000E+00 0. -1.
         22    1    3    3    0    0 -0.79381888946E+01  0.34909816965E+02  0.24381928222E+02  0.43314992638E+02  0.00000000000E+00 0.  1.
         22    1    3    3    0    0  0.13891384601E+02 -0.10731545283E+03  0.10239557095E+03  0.14897795117E+03  0.00000000000E+00 0.  1.
</event>
<event>
 7    1  0.5553952E-006  0.5105753E+02  0.7818608E-02  0.1501860E+00
          2   -1    0    0  502    0  0.00000000000E+00  0.00000000000E+00  0.22103587849E+04  0.22103587849E+04  0.00000000000E+00 0. -1.
          1   -1    0    0  501    0 -0.00000000000E+00 -0.00000000000E+00 -0.36172695431E+02  0.36172695431E+02  0.00000000000E+00 0. -1.
         25    2    1    2    0    0 -0.44448562089E+02 -0.36289618371E+02  0.48988057577E+03  0.50882267763E+03  0.12499971074E+03 0.  0.
          2    1    1    2  501    0  0.51044007058E+02  0.42359397923E+01 -0.18334748930E+01  0.51252272853E+02  0.00000000000E+00 0. -1.
          1    1    1    2  502    0 -0.65954449683E+01  0.32053678579E+02  0.16861389886E+04  0.16864565298E+04  0.00000000000E+00 0. -1.
         22    1    3    3    0    0 -0.69817639042E+01  0.45761998161E+02  0.19705270136E+03  0.20241707591E+03  0.00000000000E+00 0.  1.
         22    1    3    3    0    0 -0.37466798185E+02 -0.82051616532E+02  0.29282787440E+03  0.30640560172E+03  0.00000000000E+00 0.  1.
</event>
<event>
 7    1  0.5553952E-006  0.1166939E+03  0.7818608E-02  0.1308320E+00
          2   -1    0    0  502    0  0.00000000000E+00  0.00000000000E+00  0.24992678820E+03  0.24992678820E+03  0.00000000000E+00 0. -1.
          1   -1    0    0  501    0 -0.00000000000E+00 -0.00000000000E+00 -0.90224962587E+03  0.90224962587E+03  0.00000000000E+00 0. -1.
         25    2    1    2    0    0  0.32167533183E+02  0.10967677387E+03 -0.10453880650E+03  0.19904196209E+03  0.12500238274E+03 0.  0.
          2    1    1    2  501    0 -0.89812834368E+02 -0.77475934726E+02 -0.74023167155E+03  0.74967445818E+03  0.00000000000E+00 0. -1.
          1    1    1    2  502    0  0.57645301186E+02 -0.32200839143E+02  0.19244764038E+03  0.20345999380E+03  0.00000000000E+00 0. -1.
         22    1    3    3    0    0  0.69809604002E+02  0.94327846303E+02 -0.10632102807E+03  0.15835177425E+03  0.00000000000E+00 0. -1.
         22    1    3    3    0    0 -0.37642070819E+02  0.15348927567E+02  0.17822215667E+01  0.40690187843E+02  0.00000000000E+00 0. -1.
</event>
<event>
 7    1  0.5553952E-006  0.4525951E+02  0.7818608E-02  0.1548386E+00
          2   -1    0    0  502    0  0.00000000000E+00  0.00000000000E+00  0.13468542001E+04  0.13468542001E+04  0.00000000000E+00 0. -1.
          1   -1    0    0  501    0 -0.00000000000E+00 -0.00000000000E+00 -0.14307145696E+04  0.14307145696E+04  0.00000000000E+00 0. -1.
         25    2    1    2    0    0 -0.26971698269E+02  0.10664134891E+02 -0.12979730426E+03  0.18252235763E+03  0.12500349819E+03 0.  0.
          2    1    1    2  501    0  0.18403839025E+01  0.27040910670E+02 -0.12740218341E+04  0.12743101003E+04  0.00000000000E+00 0. -1.
          1    1    1    2  502    0  0.25131314367E+02 -0.37705045561E+02  0.13199587689E+04  0.13207363117E+04  0.00000000000E+00 0. -1.
         22    1    3    3    0    0  0.56334689889E+01 -0.51990158654E+02 -0.81940336846E+02  0.97205613892E+02  0.00000000000E+00 0.  1.
         22    1    3    3    0    0 -0.32605167258E+02  0.62654293545E+02 -0.47856967412E+02  0.85316743734E+02  0.00000000000E+00 0.  1.
</event>
<event>
 7    1  0.5553952E-006  0.1954605E+03  0.7818608E-02  0.1319462E+00
          2   -1    0    0  502    0  0.00000000000E+00  0.00000000000E+00  0.25406780684E+04  0.25406780684E+04  0.00000000000E+00 0. -1.
          1   -1    0    0  501    0 -0.00000000000E+00 -0.00000000000E+00 -0.43657806965E+03  0.43657806965E+03  0.00000000000E+00 0. -1.
         25    2    1    2    0    0 -0.22649264525E+03 -0.98211406720E+01  0.98232989071E+03  0.10158701066E+04  0.12499874415E+03 0.  0.
          2    1    1    2  501    0  0.19466767405E+03 -0.62483279175E+01 -0.39699708738E+03  0.44220044359E+03  0.00000000000E+00 0. -1.
          1    1    1    2  502    0  0.31824971200E+02  0.16069468590E+02  0.15187671954E+04  0.15191855879E+04  0.00000000000E+00 0. -1.
         22    1    3    3    0    0 -0.20826741478E+02  0.29196898354E+02  0.58484642531E+02  0.68605141542E+02  0.00000000000E+00 0.  1.
         22    1    3    3    0    0 -0.20566590378E+03 -0.39018039026E+02  0.92384524818E+03  0.94726496501E+03  0.00000000000E+00 0.  1.
</event>
<event>
 7    1  0.5553952E-006  0.1203444E+03  0.7818608E-02  0.1386317E+00
          2   -1    0    0  502    0  0.00000000000E+00  0.00000000000E+00  0.23993897867E+04  0.23993897867E+04  0.00000000000E+00 0. -1.
          1   -1    0    0  501    0 -0.00000000000E+00 -0.00000000000E+00 -0.37999316048E+03  0.37999316048E+03  0.00000000000E+00 0. -1.
         25    2    1    2    0    0 -0.88279222846E+02 -0.94310392374E+02  0.22039375117E+02  0.18110302781E+03  0.12499960532E+03 0.  0.
          2    1    1    2  501    0  0.57310111258E+02  0.10513042759E+03 -0.28840992790E+03  0.31227734815E+03  0.00000000000E+00 0. -1.
          1    1    1    2  502    0  0.30969111588E+02 -0.10820035217E+02  0.22857671790E+04  0.22860025712E+04  0.00000000000E+00 0. -1.
         22    1    3    3    0    0 -0.42283067621E+02  0.91514136183E+01  0.48330981566E+02  0.64865167523E+02  0.00000000000E+00 0.  1.
         22    1    3    3    0    0 -0.45996155225E+02 -0.10346180599E+03 -0.26291606448E+02  0.11623786029E+03  0.00000000000E+00 0.  1.
</event>
<event>
 7    1  0.8731194E-006  0.5887408E+02  0.7818608E-02  0.1421892E+00
          2   -1    0    0  502    0  0.00000000000E+00  0.00000000000E+00  0.85037532940E+03  0.85037532940E+03  0.00000000000E+00 0. -1.
          1   -1    0    0  501    0 -0.00000000000E+00 -0.00000000000E+00 -0.77769272840E+03  0.77769272840E+03  0.00000000000E+00 0. -1.
         25    2    1    2    0    0 -0.32016939874E+02  0.92797315367E+02 -0.37336947187E+03  0.40579088681E+03  0.12500022045E+03 0.  0.
          2    1    1    2  501    0 -0.14900556328E+01 -0.54776978347E+02 -0.38540299992E+03  0.38927909007E+03  0.00000000000E+00 0. -1.
          1    1    1    2  502    0  0.33506995507E+02 -0.38020337021E+02  0.83145507279E+03  0.83299808093E+03  0.00000000000E+00 0. -1.
         22    1    3    3    0    0  0.37508192594E+02 -0.48293837697E+01 -0.69190752295E+02  0.78851427776E+02  0.00000000000E+00 0.  1.
         22    1    3    3    0    0 -0.69525132468E+02  0.97626699137E+02 -0.30417871958E+03  0.32693945903E+03  0.00000000000E+00 0.  1.
</event>
<event>
 7    1  0.5553952E-006  0.6797536E+02  0.7818608E-02  0.1445024E+00
          2   -1    0    0  502    0  0.00000000000E+00  0.00000000000E+00  0.21109389589E+04  0.21109389589E+04  0.00000000000E+00 0. -1.
          1   -1    0    0  501    0 -0.00000000000E+00 -0.00000000000E+00 -0.26852322130E+03  0.26852322130E+03  0.00000000000E+00 0. -1.
         25    2    1    2    0    0 -0.38228609266E+02 -0.74107741651E+02  0.94064531139E+02  0.17727381612E+03  0.12499794368E+03 0.  0.
          2    1    1    2  501    0  0.19308814472E+01  0.67667132735E+02 -0.22169360226E+03  0.23179866790E+03  0.00000000000E+00 0. -1.
          1    1    1    2  502    0  0.36297727819E+02  0.64406089165E+01  0.19700448088E+04  0.19703896962E+04  0.00000000000E+00 0. -1.
         22    1    3    3    0    0 -0.13463482469E+02  0.34832387300E+02  0.33635159658E+02  0.50258178742E+02  0.00000000000E+00 0. -1.
         22    1    3    3    0    0 -0.24765126797E+02 -0.10894012895E+03  0.60429371481E+02  0.12701563738E+03  0.00000000000E+00 0. -1.
</event>
<event>
 7    1  0.5553952E-006  0.7003905E+02  0.7818608E-02  0.1459534E+00
          2   -1    0    0  502    0  0.00000000000E+00  0.00000000000E+00  0.11042990091E+04  0.11042990091E+04  0.00000000000E+00 0. -1.
          1   -1    0    0  501    0 -0.00000000000E+00 -0.00000000000E+00 -0.11472358906E+03  0.11472358906E+03  0.00000000000E+00 0. -1.
         25    2    1    2    0    0 -0.85185723920E+02 -0.51297395859E+02  0.38246321580E+03  0.41447594585E+03  0.12499667143E+03 0.  0.
          2    1    1    2  501    0  0.63408539891E+02  0.27629537390E+02 -0.86182990401E+02  0.11050584646E+03  0.00000000000E+00 0. -1.
          1    1    1    2  502    0  0.21777184029E+02  0.23667858469E+02  0.69329519464E+03  0.69404080584E+03  0.00000000000E+00 0. -1.
         22    1    3    3    0    0 -0.34523979220E+02  0.38637195884E+02  0.84298709825E+02  0.98949535245E+02  0.00000000000E+00 0. -1.
         22    1    3    3    0    0 -0.50661744700E+02 -0.89934591744E+02  0.29816450597E+03  0.31552641061E+03  0.00000000000E+00 0. -1.
</event>
<event>
 7    1  0.5553952E-006  0.1112222E+03  0.7818608E-02  0.1351031E+00
          2   -1    0    0  502    0  0.00000000000E+00  0.00000000000E+00  0.20958803102E+04  0.20958803102E+04  0.00000000000E+00 0. -1.
          1   -1    0    0  501    0 -0.00000000000E+00 -0.00000000000E+00 -0.25578079718E+03  0.25578079718E+03  0.00000000000E+00 0. -1.
         25    2    1    2    0    0  0.13894253083E+03 -0.74637955314E+02  0.71399601522E+02  0.21353855963E+03  0.12499984843E+03 0.  0.
          2    1    1    2  501    0 -0.42732219470E+02  0.20892980749E+02 -0.18006621150E+03  0.18624285154E+03  0.00000000000E+00 0. -1.
          1    1    1    2  502    0 -0.96210311355E+02  0.53744974566E+02  0.19487661230E+04  0.19518796962E+04  0.00000000000E+00 0. -1.
         22    1    3    3    0    0 -0.23586252657E+02 -0.91422711049E+01  0.15229094278E+02  0.29526560042E+02  0.00000000000E+00 0. -1.
         22    1    3    3    0    0  0.16252878348E+03 -0.65495684209E+02  0.56170507243E+02  0.18401199959E+03  0.00000000000E+00 0. -1.
</event>
<event>
 7    1  0.5553952E-006  0.7306186E+02  0.7818608E-02  0.1379278E+00
          2   -1    0    0  502    0  0.00000000000E+00  0.00000000000E+00  0.11218525945E+04  0.11218525945E+04  0.00000000000E+00 0. -1.
          1   -1    0    0  501    0 -0.00000000000E+00 -0.00000000000E+00 -0.41453895218E+03  0.41453895218E+03  0.00000000000E+00 0. -1.
         25    2    1    2    0    0  0.73400114565E+02  0.10081598882E+03  0.12898420608E+02  0.17704273889E+03  0.12500528676E+03 0.  0.
          2    1    1    2  501    0 -0.53033091254E+02 -0.47350265999E+02 -0.32785693394E+03  0.33547686297E+03  0.00000000000E+00 0. -1.
          1    1    1    2  502    0 -0.20367023310E+02 -0.53465722820E+02  0.10222721556E+04  0.10238719448E+04  0.00000000000E+00 0. -1.
         22    1    3    3    0    0  0.48014641125E+02  0.42261603168E+02  0.67543185609E+02  0.93024355880E+02  0.00000000000E+00 0.  1.
         22    1    3    3    0    0  0.25385473440E+02  0.58554385651E+02 -0.54644765002E+02  0.84018383005E+02  0.00000000000E+00 0.  1.
</event>
<event>
 7    1  0.5553952E-006  0.1620126E+03  0.7818608E-02  0.1332271E+00
          2   -1    0    0  502    0  0.00000000000E+00  0.00000000000E+00  0.35258290077E+04  0.35258290077E+04  0.00000000000E+00 0. -1.
          1   -1    0    0  501    0 -0.00000000000E+00 -0.00000000000E+00 -0.12192955183E+03  0.12192955183E+03  0.00000000000E+00 0. -1.
         25    2    1    2    0    0  0.12586043111E+03  0.21163009715E+02  0.39935340653E+03  0.43748935444E+03  0.12500028339E+03 0.  0.
          2    1    1    2  501    0  0.38036330833E+02  0.52800123099E+01 -0.96978466129E+02  0.10430466857E+03  0.00000000000E+00 0. -1.
          1    1    1    2  502    0 -0.16389676194E+03 -0.26443022025E+02  0.31015245155E+04  0.31059645365E+04  0.00000000000E+00 0. -1.
         22    1    3    3    0    0  0.12641083337E+03 -0.87013816645E+01  0.20605542637E+03  0.24189719216E+03  0.00000000000E+00 0.  1.
         22    1    3    3    0    0 -0.55040226498E+00  0.29864391380E+02  0.19329798016E+03  0.19559216229E+03  0.00000000000E+00 0.  1.
</event>
<event>
 7    1  0.5553952E-006  0.3834225E+02  0.7818608E-02  0.1527061E+00
          2   -1    0    0  502    0  0.00000000000E+00  0.00000000000E+00  0.50757345154E+02  0.50757345154E+02  0.00000000000E+00 0. -1.
          1   -1    0    0  501    0 -0.00000000000E+00 -0.00000000000E+00 -0.61422493531E+03  0.61422493531E+03  0.00000000000E+00 0. -1.
         25    2    1    2    0    0  0.39453808281E+02  0.14802015066E+02 -0.20235435647E+03  0.24155279671E+03  0.12499906151E+03 0.  0.
          2    1    1    2  501    0 -0.10548576890E+02 -0.37533725759E+02 -0.38006552823E+03  0.38206001989E+03  0.00000000000E+00 0. -1.
          1    1    1    2  502    0 -0.28905231390E+02  0.22731710693E+02  0.18952294541E+02  0.41369463873E+02  0.00000000000E+00 0. -1.
         22    1    3    3    0    0 -0.38936660054E-01  0.52411057463E+02 -0.17054876742E+03  0.17842029741E+03  0.00000000000E+00 0. -1.
         22    1    3    3    0    0  0.39492744941E+02 -0.37609042397E+02 -0.31805589051E+02  0.63132499300E+02  0.00000000000E+00 0. -1.
</event>
<event>
 7    1  0.5553952E-006  0.1479492E+03  0.7818608E-02  0.1252689E+00
          2   -1    0    0  502    0  0.00000000000E+00  0.00000000000E+00  0.10373328467E+04  0.10373328467E+04  0.00000000000E+00 0. -1.
          1   -1    0    0  501    0 -0.00000000000E+00 -0.00000000000E+00 -0.88246955182E+03  0.88246955182E+03  0.00000000000E+00 0. -1.
         25    2    1    2    0    0 -0.61821154386E+02 -0.66222656188E+02  0.24439638061E+03  0.28907165954E+03  0.12500215268E+03 0.  0.
          2    1    1    2  501    0 -0.24797676189E+02 -0.84858939062E+02 -0.84796512637E+03  0.85256132907E+03  0.00000000000E+00 0. -1.
          1    1    1    2  502    0  0.86618830576E+02  0.15108159525E+03  0.75843204066E+03  0.77816940992E+03  0.00000000000E+00 0. -1.
         22    1    3    3    0    0 -0.31763160391E+02  0.25044546343E+02  0.20330095210E+02  0.45270745861E+02  0.00000000000E+00 0. -1.
         22    1    3    3    0    0 -0.30057993995E+02 -0.91267202531E+02  0.22406628540E+03  0.24380091368E+03  0.00000000000E+00 0. -1.
</event>
<event>
 7    1  0.5553952E-006  0.7905008E+02  0.7818608E-02  0.1469059E+00
          2   -1    0    0  502    0  0.00000000000E+00  0.00000000000E+00  0.34683671885E+03  0.34683671885E+03  0.00000000000E+00 0. -1.
          1   -1    0    0  501    0 -0.00000000000E+00 -0.00000000000E+00 -0.41095985713E+03  0.41095985713E+03  0.00000000000E+00 0. -1.
         25    2    1    2    0    0  0.51342383582E+02  0.16705952827E+02 -0.37775218945E+02  0.14130527672E+03  0.12500033941E+03 0.  0.
          2    1    1    2  501    0  0.25205744700E+02  0.85057750426E+01 -0.31534599709E+03  0.31646607347E+03  0.00000000000E+00 0. -1.
          1    1    1    2  502    0 -0.76548128282E+02 -0.25211727870E+02  0.28899807775E+03  0.30002522579E+03  0.00000000000E+00 0. -1.
         22    1    3    3    0    0  0.26167199609E+02  0.70876127551E+02 -0.29013892465E+02  0.80931784534E+02  0.00000000000E+00 0. -1.
         22    1    3    3    0    0  0.25175183973E+02 -0.54170174723E+02 -0.87613264801E+01  0.60373492191E+02  0.00000000000E+00 0. -1.
</event>
<event>
 7    1  0.5553952E-006  0.6010865E+02  0.7818608E-02  0.1449998E+00
          2   -1    0    0  502    0  0.00000000000E+00  0.00000000000E+00  0.32396451045E+03  0.32396451045E+03  0.00000000000E+00 0. -1.
          1   -1    0    0  501    0 -0.00000000000E+00 -0.00000000000E+00 -0.56166501704E+03  0.56166501704E+03  0.00000000000E+00 0. -1.
         25    2    1    2    0    0  0.51867777128E+02  0.76184413980E+01 -0.80607585354E+01  0.13578720798E+03  0.12499953228E+03 0.  0.
          2    1    1    2  501    0 -0.51232225026E+02  0.32560818438E+02 -0.48629053173E+03  0.49006471922E+03  0.00000000000E+00 0. -1.
          1    1    1    2  502    0 -0.63555210130E+00 -0.40179259836E+02  0.25665078368E+03  0.25977760029E+03  0.00000000000E+00 0. -1.
         22    1    3    3    0    0 -0.41306527095E+02 -0.39819717702E+01  0.52958914079E+00  0.41501394488E+02  0.00000000000E+00 0.  1.
         22    1    3    3    0    0  0.93174304222E+02  0.11600413168E+02 -0.85903476762E+01  0.94285813494E+02  0.00000000000E+00 0.  1.
</event>
<event>
 7    1  0.5553952E-006  0.8910612E+02  0.7818608E-02  0.1374525E+00
          2   -1    0    0  502    0  0.00000000000E+00  0.00000000000E+00  0.14064113990E+04  0.14064113990E+04  0.00000000000E+00 0. -1.
          1   -1    0    0  501    0 -0.00000000000E+00 -0.00000000000E+00 -0.13510946930E+03  0.13510946930E+03  0.00000000000E+00 0. -1.
         25    2    1    2    0    0 -0.34928535816E+02  0.24927734138E+02  0.47215071872E+03  0.49030153168E+03  0.12501158439E+03 0.  0.
          2    1    1    2  501    0  0.64697275432E+02 -0.63564486981E+02 -0.10897707372E+03  0.14178217113E+03  0.00000000000E+00 0. -1.
          1    1    1    2  502    0 -0.29768739616E+02  0.38636752843E+02  0.90812828474E+03  0.90943716554E+03  0.00000000000E+00 0. -1.
         22    1    3    3    0    0  0.18905258190E+01 -0.12842159732E+02 -0.20802408511E+01  0.13146199316E+02  0.00000000000E+00 0. -1.
         22    1    3    3    0    0 -0.36819061635E+02  0.37769893870E+02  0.47423095957E+03  0.47715533236E+03  0.00000000000E+00 0. -1.
</event>
<event>
 7    1  0.5553952E-006  0.1267111E+03  0.7818608E-02  0.1304708E+00
          2   -1    0    0  502    0  0.00000000000E+00  0.00000000000E+00  0.80786199040E+03  0.80786199040E+03  0.00000000000E+00 0. -1.
          1   -1    0    0  501    0 -0.00000000000E+00 -0.00000000000E+00 -0.68566192851E+03  0.68566192851E+03  0.00000000000E+00 0. -1.
         25    2    1    2    0    0 -0.87043521504E+01 -0.17554152339E+03  0.22562294137E+03  0.31212357624E+03  0.12499929197E+03 0.  0.
          2    1    1    2  501    0 -0.25827709472E+02  0.12303209954E+03 -0.63439036317E+03  0.64672644989E+03  0.00000000000E+00 0. -1.
          1    1    1    2  502    0  0.34532061623E+02  0.52509423851E+02  0.53096748369E+03  0.53467389277E+03  0.00000000000E+00 0. -1.
         22    1    3    3    0    0  0.50121139682E+02 -0.58079877837E+02  0.12492739511E+03  0.14660237004E+03  0.00000000000E+00 0. -1.
         22    1    3    3    0    0 -0.58825491833E+02 -0.11746164556E+03  0.10069554626E+03  0.16552120620E+03  0.00000000000E+00 0. -1.
</event>
<event>
 7    1  0.5553952E-006  0.2675231E+03  0.7818608E-02  0.1268970E+00
          2   -1    0    0  502    0  0.00000000000E+00  0.00000000000E+00  0.10400956724E+04  0.10400956724E+04  0.00000000000E+00 0. -1.
          1   -1    0    0  501    0 -0.00000000000E+00 -0.00000000000E+00 -0.26011637490E+04  0.26011637490E+04  0.00000000000E+00 0. -1.
         25    2    1    2    0    0  0.21062583965E+03  0.20801241007E+03  0.66905592731E+02  0.32822798931E+03  0.12499939022E+03 0.  0.
          2    1    1    2  501    0 -0.20821293534E+03 -0.16641005317E+03 -0.24627919949E+04  0.24771736602E+04  0.00000000000E+00 0. -1.
          1    1    1    2  502    0 -0.24129043146E+01 -0.41602356907E+02  0.83481832556E+03  0.83585777193E+03  0.00000000000E+00 0. -1.
         22    1    3    3    0    0  0.15234993253E+03  0.12154021855E+03 -0.15234651197E+02  0.19548560373E+03  0.00000000000E+00 0.  1.
         22    1    3    3    0    0  0.58275907118E+02  0.86472191524E+02  0.82140243928E+02  0.13274238558E+03  0.00000000000E+00 0.  1.
</event>
<event>
 7    1  0.5696747E-006  0.5323036E+02  0.7818608E-02  0.1436289E+00
          2   -1    0    0  502    0  0.00000000000E+00  0.00000000000E+00  0.12478727102E+04  0.12478727102E+04  0.00000000000E+00 0. -1.
          1   -1    0    0  501    0 -0.00000000000E+00 -0.00000000000E+00 -0.41066155248E+03  0.41066155248E+03  0.00000000000E+00 0. -1.
         25    2    1    2    0    0 -0.12939941229E+02 -0.29804838298E+02 -0.16195512351E+03  0.20715319757E+03  0.12500885876E+03 0.  0.
          2    1    1    2  501    0 -0.39357953159E+02  0.39724592488E+02 -0.22206120375E+03  0.22899403909E+03  0.00000000000E+00 0. -1.
          1    1    1    2  502    0  0.52297894388E+02 -0.99197541898E+01  0.12212274850E+04  0.12223870260E+04  0.00000000000E+00 0. -1.
         22    1    3    3    0    0 -0.19579319708E+01  0.43523713418E+02 -0.10492624810E+03  0.11361190373E+03  0.00000000000E+00 0.  1.
         22    1    3    3    0    0 -0.10982009258E+02 -0.73328551716E+02 -0.57028875407E+02  0.93541293846E+02  0.00000000000E+00 0.  1.
</event>
<event>
 7    1  0.5553952E-006  0.3388123E+02  0.7818608E-02  0.1599490E+00
          2   -1    0    0  502    0  0.00000000000E+00  0.00000000000E+00  0.99333315620E+02  0.99333315620E+02  0.00000000000E+00 0. -1.
          1   -1    0    0  501    0 -0.00000000000E+00 -0.00000000000E+00 -0.11311878838E+03  0.11311878838E+03  0.00000000000E+00 0. -1.
         25    2    1    2    0    0 -0.28714609306E+02  0.41859332561E+02 -0.41740532929E+02  0.14121927096E+03  0.12499551148E+03 0.  0.
          2    1    1    2  501    0  0.25735425024E+02 -0.15688411555E+02 -0.33440930374E+01  0.30325258722E+02  0.00000000000E+00 0. -1.
          1    1    1    2  502    0  0.29791842826E+01 -0.26170921006E+02  0.31299153207E+02  0.40907574320E+02  0.00000000000E+00 0. -1.
         22    1    3    3    0    0 -0.72216669716E+02  0.65538304043E+01 -0.44580792497E+02  0.85121367103E+02  0.00000000000E+00 0. -1.
         22    1    3    3    0    0  0.43502060410E+02  0.35305502157E+02  0.28402595682E+01  0.56097903854E+02  0.00000000000E+00 0. -1.
</event>
<event>
 7    1  0.5553952E-006  0.5617586E+02  0.7818608E-02  0.1417287E+00
          2   -1    0    0  502    0  0.00000000000E+00  0.00000000000E+00  0.19856454320E+04  0.19856454320E+04  0.00000000000E+00 0. -1.
          1   -1    0    0  501    0 -0.00000000000E+00 -0.00000000000E+00 -0.17016286585E+02  0.17016286585E+02  0.00000000000E+00 0. -1.
         25    2    1    2    0    0  0.63909239528E+01 -0.21491307602E+01  0.61978241818E+03  0.63229821014E+03  0.12500127194E+03 0.  0.
          2    1    1    2  501    0  0.21443641731E+02 -0.51922035187E+02  0.68568891699E+02  0.88642091680E+02  0.00000000000E+00 0. -1.
          1    1    1    2  502    0 -0.27834565684E+02  0.54071165947E+02  0.12802778355E+04  0.12817214168E+04  0.00000000000E+00 0. -1.
         22    1    3    3    0    0  0.15564011428E+01 -0.57904642320E+02  0.18310007623E+03  0.19204428631E+03  0.00000000000E+00 0.  1.
         22    1    3    3    0    0  0.48345228100E+01  0.55755511560E+02  0.43668234195E+03  0.44025392384E+03  0.00000000000E+00 0.  1.
</event>
<event>
 7    1  0.5553952E-006  0.7091853E+02  0.7818608E-02  0.1402847E+00
          2   -1    0    0  502    0  0.00000000000E+00  0.00000000000E+00  0.11060923868E+03  0.11060923868E+03  0.00000000000E+00 0. -1.
          1   -1    0    0  501    0 -0.00000000000E+00 -0.00000000000E+00 -0.55601056112E+03  0.55601056112E+03  0.00000000000E+00 0. -1.
         25    2    1    2    0    0  0.37540008049E+02  0.11595718234E+02 -0.32483205979E+03  0.35026433057E+03  0.12500208525E+03 0.  0.
          2    1    1    2  501    0  0.28376997077E+01  0.48704410860E+02 -0.20169272009E+03  0.20750933838E+03  0.00000000000E+00 0. -1.
          1    1    1    2  502    0 -0.40377707757E+02 -0.60300129094E+02  0.81123457450E+02  0.10884613085E+03  0.00000000000E+00 0. -1.
         22    1    3    3    0    0 -0.26919926761E+02  0.45067859243E+00 -0.10020448357E+02  0.28727947252E+02  0.00000000000E+00 0.  1.
         22    1    3    3    0    0  0.64459934810E+02  0.11145039642E+02 -0.31481161144E+03  0.32153638332E+03  0.00000000000E+00 0.  1.
</event>
<event>
 7    1  0.5553952E-006  0.1606091E+03  0.7818608E-02  0.1279711E+00
          2   -1    0    0  502    0  0.00000000000E+00  0.00000000000E+00  0.14298177313E+04  0.14298177313E+04  0.00000000000E+00 0. -1.
          1   -1    0    0  501    0 -0.00000000000E+00 -0.00000000000E+00 -0.55089340321E+03  0.55089340321E+03  0.00000000000E+00 0. -1.
         25    2    1    2    0    0  0.16305613026E+03  0.13249434214E+03  0.50897673302E+03  0.56464591808E+03  0.12500258290E+03 0.  0.
          2    1    1    2  501    0 -0.55994270106E+02 -0.28013329995E+02 -0.51488413168E+03  0.51867694570E+03  0.00000000000E+00 0. -1.
          1    1    1    2  502    0 -0.10706186015E+03 -0.10448101215E+03  0.88483172680E+03  0.89738827079E+03  0.00000000000E+00 0. -1.
         22    1    3    3    0    0  0.30386098355E+02  0.99806415979E+02  0.26857162063E+03  0.28812384672E+03  0.00000000000E+00 0. -1.
         22    1    3    3    0    0  0.13267003190E+03  0.32687926165E+02  0.24040511240E+03  0.27652207136E+03  0.00000000000E+00 0. -1.
</event>
<event>
 7    1  0.5553952E-006  0.9531658E+02  0.7818608E-02  0.1476968E+00
          2   -1    0    0  502    0  0.00000000000E+00  0.00000000000E+00  0.29612208701E+03  0.29612208701E+03  0.00000000000E+00 0. -1.
          1   -1    0    0  501    0 -0.00000000000E+00 -0.00000000000E+00 -0.10744758426E+04  0.10744758426E+04  0.00000000000E+00 0. -1.
         25    2    1    2    0    0 -0.63705091286E+01 -0.81415731202E+02 -0.11342436735E+03  0.18750915041E+03  0.12500195880E+03 0.  0.
          2    1    1    2  501    0  0.15100471310E+02 -0.14380126784E+02 -0.91495742029E+03  0.91519500284E+03  0.00000000000E+00 0. -1.
          1    1    1    2  502    0 -0.87299621810E+01  0.95795857986E+02  0.25002803201E+03  0.26789377641E+03  0.00000000000E+00 0. -1.
         22    1    3    3    0    0  0.45390899185E+02 -0.49061259710E+02 -0.10235231990E+02  0.67617312185E+02  0.00000000000E+00 0. -1.
         22    1    3    3    0    0 -0.51761408314E+02 -0.32354471492E+02 -0.10318913536E+03  0.11989183822E+03  0.00000000000E+00 0. -1.
</event>
<event>
 7    1  0.5553952E-006  0.1045547E+03  0.7818608E-02  0.1396524E+00
          2   -1    0    0  502    0  0.00000000000E+00  0.00000000000E+00  0.14982367559E+04  0.14982367559E+04  0.00000000000E+00 0. -1.
          1   -1    0    0  501    0 -0.00000000000E+00 -0.00000000000E+00 -0.65839209486E+02  0.65839209486E+02  0.00000000000E+00 0. -1.
         25    2    1    2    0    0 -0.98271527842E+02  0.82510120575E+02  0.11377203167E+04  0.11517373206E+04  0.12500449326E+03 0.  0.
          2    1    1    2  501    0  0.91749328129E+02 -0.48335290535E+02 -0.11366465214E+02  0.10432370802E+03  0.00000000000E+00 0. -1.
          1    1    1    2  502    0  0.65221997127E+01 -0.34174830040E+02  0.30604369489E+03  0.30801493678E+03  0.00000000000E+00 0. -1.
         22    1    3    3    0    0 -0.10081554333E+03  0.10711943196E+03  0.82272901598E+03  0.83577591507E+03  0.00000000000E+00 0.  1.
         22    1    3    3    0    0  0.25440154885E+01 -0.24609311389E+02  0.31499130075E+03  0.31596140551E+03  0.00000000000E+00 0.  1.
</event>
<event>
 7    1  0.5553952E-006  0.7822691E+02  0.7818608E-02  0.1436205E+00
          2   -1    0    0  502    0  0.00000000000E+00  0.00000000000E+00  0.14512620939E+03  0.14512620939E+03  0.00000000000E+00 0. -1.
          1   -1    0    0  501    0 -0.00000000000E+00 -0.00000000000E+00 -0.14717037400E+04  0.14717037400E+04  0.00000000000E+00 0. -1.
         25    2    1    2    0    0 -0.64712762025E+02  0.22410285776E+02 -0.65637510274E+03  0.67167141768E+03  0.12499702139E+03 0.  0.
          2    1    1    2  501    0 -0.13260122809E+02 -0.31539935828E+02 -0.79607553492E+03  0.79681042646E+03  0.00000000000E+00 0. -1.
          1    1    1    2  502    0  0.77972884834E+02  0.91296500529E+01  0.12587310700E+03  0.14834810530E+03  0.00000000000E+00 0. -1.
         22    1    3    3    0    0 -0.79264067972E+02  0.38927286546E+02 -0.25810662178E+03  0.27279507751E+03  0.00000000000E+00 0. -1.
         22    1    3    3    0    0  0.14551305947E+02 -0.16517000771E+02 -0.39826848096E+03  0.39887634017E+03  0.00000000000E+00 0. -1.
</event>
<event>
 7    1  0.5553952E-006  0.1306987E+03  0.7818608E-02  0.1313403E+00
          2   -1    0    0  502    0  0.00000000000E+00  0.00000000000E+00  0.15902918220E+03  0.15902918220E+03  0.00000000000E+00 0. -1.
          1   -1    0    0  501    0 -0.00000000000E+00 -0.00000000000E+00 -0.34309332628E+03  0.34309332628E+03  0.00000000000E+00 0. -1.
         25    2    1    2    0    0 -0.99142418061E+02 -0.10705706370E+02 -0.31557275691E+02  0.16298572207E+03  0.12499861095E+03 0.  0.
          2    1    1    2  501    0 -0.52632060967E+02  0.19988731737E+02 -0.17644189175E+03  0.18520643726E+03  0.00000000000E+00 0. -1.
          1    1    1    2  502    0  0.15177447903E+03 -0.92830253667E+01  0.23935023366E+02  0.15393034914E+03  0.00000000000E+00 0. -1.
         22    1    3    3    0    0  0.19954491410E+02 -0.19327873645E+02  0.18640722607E+02  0.33454819779E+02  0.00000000000E+00 0.  1.
         22    1    3    3    0    0 -0.11909690947E+03  0.86221672754E+01 -0.50197998298E+02  0.12953090229E+03  0.00000000000E+00 0.  1.
</event>
<event>
 7    1  0.5553952E-006  0.9715728E+02  0.7818608E-02  0.1380470E+00
          2   -1    0    0  502    0  0.00000000000E+00  0.00000000000E+00  0.14648176453E+04  0.14648176453E+04  0.00000000000E+00 0. -1.
          1   -1    0    0  501    0 -0.00000000000E+00 -0.00000000000E+00 -0.20137370141E+03  0.20137370141E+03  0.00000000000E+00 0. -1.
         25    2    1    2    0    0 -0.10814300824E+03 -0.51661330443E+02  0.60550491322E+03  0.62978469853E+03  0.12501505221E+03 0.  0.
          2    1    1    2  501    0  0.40640179022E+02 -0.12798904958E+02 -0.18422404535E+03  0.18908710957E+03  0.00000000000E+00 0. -1.
          1    1    1    2  502    0  0.67502829213E+02  0.64460235401E+02  0.84216307601E+03  0.84731953860E+03  0.00000000000E+00 0. -1.
         22    1    3    3    0    0 -0.10870121803E+03 -0.81277025221E+02  0.55386141895E+03  0.57024940248E+03  0.00000000000E+00 0. -1.
         22    1    3    3    0    0  0.55820979958E+00  0.29615694778E+02  0.51643494272E+02  0.59535296052E+02  0.00000000000E+00 0. -1.
</event>
<event>
 7    1  0.5553952E-006  0.8362891E+02  0.7818608E-02  0.1426972E+00
          2   -1    0    0  502    0  0.00000000000E+00  0.00000000000E+00  0.30775627078E+04  0.30775627078E+04  0.00000000000E+00 0. -1.
          1   -1    0    0  501    0 -0.00000000000E+00 -0.00000000000E+00 -0.24340298098E+02  0.24340298098E+02  0.00000000000E+00 0. -1.
         25    2    1    2    0    0  0.64078617640E+01  0.89120414264E+02  0.78487504115E+03  0.79977269514E+03  0.12499609889E+03 0.  0.
          2    1    1    2  501    0  0.31171411084E+02 -0.14356658693E+02  0.21471317461E+01  0.34385762934E+02  0.00000000000E+00 0. -1.
          1    1    1    2  502    0 -0.37579272848E+02 -0.74763755570E+02  0.22662002368E+04  0.22677445478E+04  0.00000000000E+00 0. -1.
         22    1    3    3    0    0  0.34015253173E+02  0.95785821299E+02  0.73798580909E+03  0.74495302901E+03  0.00000000000E+00 0.  1.
         22    1    3    3    0    0 -0.27607391409E+02 -0.66654070356E+01  0.46889232056E+02  0.54819666126E+02  0.00000000000E+00 0.  1.
</event>
<event>
 7    1  0.5553952E-006  0.6955246E+02  0.7818608E-02  0.1464250E+00
          2   -1    0    0  502    0  0.00000000000E+00  0.00000000000E+00  0.40419621606E+03  0.40419621606E+03  0.00000000000E+00 0. -1.
          1   -1    0    0  501    0 -0.00000000000E+00 -0.00000000000E+00 -0.75545234953E+03  0.75545234953E+03  0.00000000000E+00 0. -1.
         25    2    1    2    0    0 -0.19172203444E+02 -0.74537943599E+02 -0.31472304964E+02  0.15011898359E+03  0.12498689864E+03 0.  0.
          2    1    1    2  501    0 -0.11550281779E+02  0.68556403664E+02 -0.66212282777E+03  0.66576274193E+03  0.00000000000E+00 0. -1.
          1    1    1    2  502    0  0.30722485222E+02  0.59815399350E+01  0.34233899926E+03  0.34376684007E+03  0.00000000000E+00 0. -1.
         22    1    3    3    0    0 -0.54118121345E+02 -0.89005036765E+02 -0.56441482290E+01  0.10431933683E+03  0.00000000000E+00 0.  1.
         22    1    3    3    0    0  0.34945917902E+02  0.14467093165E+02 -0.25828156735E+02  0.45799646756E+02  0.00000000000E+00 0.  1.
</event>
<event>
 7    1  0.5553952E-006  0.5778313E+02  0.7818608E-02  0.1422941E+00
          2   -1    0    0  502    0  0.00000000000E+00  0.00000000000E+00  0.23487165951E+04  0.23487165951E+04  0.00000000000E+00 0. -1.
          1   -1    0    0  501    0 -0.00000000000E+00 -0.00000000000E+00 -0.14263950649E+04  0.14263950649E+04  0.00000000000E+00 0. -1.
         25    2    1    2    0    0 -0.73014139082E+02  0.36801206639E+02  0.40254763178E+03  0.42936602644E+03  0.12500078196E+03 0.  0.
          2    1    1    2  501    0  0.24239362290E+02 -0.52443417703E+02 -0.14120556868E+04  0.14132371073E+04  0.00000000000E+00 0. -1.
          1    1    1    2  502    0  0.48774776791E+02  0.15642211065E+02  0.19318295853E+04  0.19325085263E+04  0.00000000000E+00 0. -1.
         22    1    3    3    0    0  0.13892721440E+01  0.47770632059E+02  0.51116341283E+02  0.69977451444E+02  0.00000000000E+00 0. -1.
         22    1    3    3    0    0 -0.74403411226E+02 -0.10969425420E+02  0.35143129050E+03  0.35938857500E+03  0.00000000000E+00 0. -1.
</event>
<event>
 7    1  0.5553952E-006  0.5868794E+02  0.7818608E-02  0.1444406E+00
          2   -1    0    0  502    0  0.00000000000E+00  0.00000000000E+00  0.13669465363E+04  0.13669465363E+04  0.00000000000E+00 0. -1.
          1   -1    0    0  501    0 -0.00000000000E+00 -0.00000000000E+00 -0.79965593727E+03  0.79965593727E+03  0.00000000000E+00 0. -1.
         25    2    1    2    0    0  0.18229928425E+02 -0.48896383690E+02  0.10859138927E+03  0.17361023094E+03  0.12500094334E+03 0.  0.
          2    1    1    2  501    0  0.24410714854E+02  0.53560970891E+02 -0.76564129567E+03  0.76790054970E+03  0.00000000000E+00 0. -1.
          1    1    1    2  502    0 -0.42640643279E+02 -0.46645872018E+01  0.12243405054E+04  0.12250916929E+04  0.00000000000E+00 0. -1.
         22    1    3    3    0    0  0.51629280681E+02  0.22740928318E+02  0.45197634930E+02  0.72288025618E+02  0.00000000000E+00 0.  1.
         22    1    3    3    0    0 -0.33399352256E+02 -0.71637312007E+02  0.63393754343E+02  0.10132220533E+03  0.00000000000E+00 0.  1.
</event>
<event>
 7    1  0.5553952E-006  0.7310608E+02  0.7818608E-02  0.1387929E+00
          2   -1    0    0  502    0  0.00000000000E+00  0.00000000000E+00  0.59946535191E+02  0.59946535191E+02  0.00000000000E+00 0. -1.
          1   -1    0    0  501    0 -0.00000000000E+00 -0.00000000000E+00 -0.43999884999E+03  0.43999884999E+03  0.00000000000E+00 0. -1.
         25    2    1    2    0    0  0.33778231281E+01 -0.41738775181E+02 -0.27814639376E+03  0.30781778424E+03  0.12503134363E+03 0.  0.
          2    1    1    2  501    0 -0.76304877342E+02  0.36625729809E+02 -0.78305080672E+02  0.11530639206E+03  0.00000000000E+00 0. -1.
          1    1    1    2  502    0  0.72927054214E+02  0.51130453721E+01 -0.23600840374E+02  0.76821208893E+02  0.00000000000E+00 0. -1.
         22    1    3    3    0    0  0.41320685249E+02  0.21420576799E+02 -0.51117486135E+02  0.69132029687E+02  0.00000000000E+00 0. -1.
         22    1    3    3    0    0 -0.37942862121E+02 -0.63159351980E+02 -0.22702890762E+03  0.23868575455E+03  0.00000000000E+00 0. -1.
</event>
<event>
 7    1  0.5553952E-006  0.4527179E+02  0.7818608E-02  0.1494637E+00
          2   -1    0    0  502    0  0.00000000000E+00  0.00000000000E+00  0.22238504867E+04  0.22238504867E+04  0.00000000000E+00 0. -1.
          1   -1    0    0  501    0 -0.00000000000E+00 -0.00000000000E+00 -0.51315669608E+02  0.51315669608E+02  0.00000000000E+00 0. -1.
         25    2    1    2    0    0 -0.17809814191E+02  0.17954965572E+02  0.68055382819E+03  0.69239979936E+03  0.12499759527E+03 0.  0.
          2    1    1    2  501    0 -0.28615005364E+02 -0.26188769296E+02 -0.36675349314E+02  0.53383063012E+02  0.00000000000E+00 0. -1.
          1    1    1    2  502    0  0.46424819555E+02  0.82338037245E+01  0.15286563382E+04  0.15293832939E+04  0.00000000000E+00 0. -1.
         22    1    3    3    0    0 -0.12851111731E+02  0.39965817261E+02  0.71393657869E+02  0.82821929499E+02  0.00000000000E+00 0.  1.
         22    1    3    3    0    0 -0.49587024602E+01 -0.22010851689E+02  0.60916017032E+03  0.60957786986E+03  0.00000000000E+00 0.  1.
</event>
<event>
 7    1  0.5553952E-006  0.6121984E+02  0.7818608E-02  0.1503941E+00
          2   -1    0    0  502    0  0.00000000000E+00  0.00000000000E+00  0.15459216794E+04  0.15459216794E+04  0.00000000000E+00 0. -1.
          1   -1    0    0  501    0 -0.00000000000E+00 -0.00000000000E+00 -0.80194937939E+03  0.80194937939E+03  0.00000000000E+00 0. -1.
         25    2    1    2    0    0 -0.21287159045E+02  0.36257082483E+02 -0.28683622072E+03  0.31570282392E+03  0.12500214537E+03 0.  0.
          2    1    1    2  501    0  0.47199432960E+02 -0.43505960174E+02 -0.49850354727E+03  0.50261948001E+03  0.00000000000E+00 0. -1.
          1    1    1    2  502    0 -0.25912273915E+02  0.72488776911E+01  0.15293120680E+04  0.15295487549E+04  0.00000000000E+00 0. -1.
         22    1    3    3    0    0 -0.27347590163E+02 -0.40182621520E+02 -0.66243336006E+02  0.82162724670E+02  0.00000000000E+00 0.  1.
         22    1    3    3    0    0  0.60604311173E+01  0.76439704003E+02 -0.22059288471E+03  0.23354009925E+03  0.00000000000E+00 0.  1.
</event>
<event>
 7    1  0.5553952E-006  0.1263587E+03  0.7818608E-02  0.1379184E+00
          2   -1    0    0  502    0  0.00000000000E+00  0.00000000000E+00  0.93069241138E+03  0.93069241138E+03  0.00000000000E+00 0. -1.
          1   -1    0    0  501    0 -0.00000000000E+00 -0.00000000000E+00 -0.22451667328E+03  0.22451667328E+03  0.00000000000E+00 0. -1.
         25    2    1    2    0    0  0.72362892800E+01  0.13071267814E+03  0.29293170111E+03  0.34434292563E+03  0.12499960322E+03 0.  0.
          2    1    1    2  501    0 -0.38651511022E+02 -0.12026516636E+03 -0.17823496785E+03  0.21846133138E+03  0.00000000000E+00 0. -1.
          1    1    1    2  502    0  0.31415221742E+02 -0.10447511776E+02  0.59147900484E+03  0.59240482766E+03  0.00000000000E+00 0. -1.
         22    1    3    3    0    0  0.21591353075E+02  0.14981302410E+03  0.27690202362E+03  0.31557068844E+03  0.00000000000E+00 0. -1.
         22    1    3    3    0    0 -0.14355063795E+02 -0.19100345958E+02  0.16029677490E+02  0.28772237187E+02  0.00000000000E+00 0. -1.
</event>
<event>
 7    1  0.5553952E-006  0.7596178E+02  0.7818608E-02  0.1442598E+00
          2   -1    0    0  502    0  0.00000000000E+00  0.00000000000E+00  0.98051775708E+03  0.98051775708E+03  0.00000000000E+00 0. -1.
          1   -1    0    0  501    0 -0.00000000000E+00 -0.00000000000E+00 -0.11973542308E+03  0.11973542308E+03  0.00000000000E+00 0. -1.
         25    2    1    2    0    0  0.11843851594E+02 -0.83263113353E+02 -0.15573694895E+00  0.15065962416E+03  0.12500110092E+03 0.  0.
          2    1    1    2  501    0  0.19757591325E+02  0.71879696326E+02 -0.12434265110E+02  0.75575552315E+02  0.00000000000E+00 0. -1.
          1    1    1    2  502    0 -0.31601442919E+02  0.11383417028E+02  0.87337233606E+03  0.87401800369E+03  0.00000000000E+00 0. -1.
         22    1    3    3    0    0  0.61132076194E+02 -0.61304546720E+02 -0.26599402771E+02  0.90569897958E+02  0.00000000000E+00 0.  1.
         22    1    3    3    0    0 -0.49288224599E+02 -0.21958566633E+02  0.26443665823E+02  0.60089726201E+02  0.00000000000E+00 0.  1.
</event>
<event>
 7    1  0.5553952E-006  0.1160029E+03  0.7818608E-02  0.1333480E+00
          2   -1    0    0  502    0  0.00000000000E+00  0.00000000000E+00  0.63434605261E+03  0.63434605261E+03  0.00000000000E+00 0. -1.
          1   -1    0    0  501    0 -0.00000000000E+00 -0.00000000000E+00 -0.34929964224E+03  0.34929964224E+03  0.00000000000E+00 0. -1.
         25    2    1    2    0    0 -0.52078825492E+02 -0.12307193639E+03 -0.38509070751E+01  0.18302459297E+03  0.12499706619E+03 0.  0.
          2    1    1    2  501    0 -0.31136513909E+02  0.42972346917E+02 -0.24688833114E+03  0.25252713349E+03  0.00000000000E+00 0. -1.
          1    1    1    2  502    0  0.83215339401E+02  0.80099589470E+02  0.53578564858E+03  0.54809396838E+03  0.00000000000E+00 0. -1.
         22    1    3    3    0    0 -0.81230277167E+02 -0.12159292885E+03  0.16911481071E+02  0.14720460749E+03  0.00000000000E+00 0. -1.
         22    1    3    3    0    0  0.29151451675E+02 -0.14790075347E+01 -0.20762388146E+02  0.35819985477E+02  0.00000000000E+00 0. -1.
</event>
<event>
 7    1  0.5553952E-006  0.4887285E+02  0.7818608E-02  0.1479727E+00
          2   -1    0    0  502    0  0.00000000000E+00  0.00000000000E+00  0.17207070783E+04  0.17207070783E+04  0.00000000000E+00 0. -1.
          1   -1    0    0  501    0 -0.00000000000E+00 -0.00000000000E+00 -0.95130615587E+03  0.95130615587E+03  0.00000000000E+00 0. -1.
         25    2    1    2    0    0  0.11941287849E+02  0.33126993855E+02  0.34825286722E+03  0.37167838769E+03  0.12499908906E+03 0.  0.
          2    1    1    2  501    0 -0.46897563692E+02 -0.13928960475E+02 -0.93866403018E+03  0.93993806124E+03  0.00000000000E+00 0. -1.
          1    1    1    2  502    0  0.34956275843E+02 -0.19198033380E+02  0.13598120854E+04  0.13603967852E+04  0.00000000000E+00 0. -1.
         22    1    3    3    0    0  0.39342784980E+02  0.38004162119E+02  0.33739951399E+03  0.34180491966E+03  0.00000000000E+00 0. -1.
         22    1    3    3    0    0 -0.27401497130E+02 -0.48771682643E+01  0.10853353237E+02  0.29873468023E+02  0.00000000000E+00 0. -1.
</event>
<event>
 7    1  0.5553952E-006  0.2927013E+02  0.7818608E-02  0.1619717E+00
          2   -1    0    0  502    0  0.00000000000E+00  0.00000000000E+00  0.12810896347E+04  0.12810896347E+04  0.00000000000E+00 0. -1.
          1   -1    0    0  501    0 -0.00000000000E+00 -0.00000000000E+00 -0.14366093531E+03  0.14366093531E+03  0.00000000000E+00 0. -1.
         25    2    1    2    0    0 -0.28725891263E+02 -0.40434176963E+02  0.69432024475E+03  0.70722416919E+03  0.12500129492E+03 0.  0.
          2    1    1    2  501    0  0.42618970243E+01  0.28924549406E+02 -0.13533216927E+03  0.13845428619E+03  0.00000000000E+00 0. -1.
          1    1    1    2  502    0  0.24463994238E+02  0.11509627557E+02  0.57844062388E+03  0.57907211459E+03  0.00000000000E+00 0. -1.
         22    1    3    3    0    0 -0.26242360503E+02 -0.36123857138E+02  0.69898201121E+03  0.70040662942E+03  0.00000000000E+00 0.  1.
         22    1    3    3    0    0 -0.24835307597E+01 -0.43103198248E+01 -0.46617664629E+01  0.68175397748E+01  0.00000000000E+00 0.  1.
</event>
<event>
 7    1  0.5553952E-006  0.6492525E+02  0.7818608E-02  0.1428917E+00
          2   -1    0    0  502    0  0.00000000000E+00  0.00000000000E+00  0.10479845776E+03  0.10479845776E+03  0.00000000000E+00 0. -1.
          1   -1    0    0  501    0 -0.00000000000E+00 -0.00000000000E+00 -0.10436681089E+04  0.10436681089E+04  0.00000000000E+00 0. -1.
         25    2    1    2    0    0 -0.57533427625E+01  0.35594266748E+02  0.19741541651E+02  0.13158399022E+03  0.12499826093E+03 0.  0.
          2    1    1    2  501    0  0.48497372469E+02 -0.43966792405E+02 -0.96972405198E+03  0.97193097027E+03  0.00000000000E+00 0. -1.
          1    1    1    2  502    0 -0.42744029706E+02  0.83725256575E+01  0.11112859157E+02  0.44951606201E+02  0.00000000000E+00 0. -1.
         22    1    3    3    0    0 -0.42319532012E+02 -0.32051887558E+02  0.10733491221E+02  0.54161555734E+02  0.00000000000E+00 0. -1.
         22    1    3    3    0    0  0.36566189250E+02  0.67646154306E+02  0.90080504296E+01  0.77422434482E+02  0.00000000000E+00 0. -1.
</event>
<event>
 7    1  0.5553952E-006  0.2409397E+03  0.7818608E-02  0.1268396E+00
          2   -1    0    0  502    0  0.00000000000E+00  0.00000000000E+00  0.50419666219E+03  0.50419666219E+03  0.00000000000E+00 0. -1.
          1   -1    0    0  501    0 -0.00000000000E+00 -0.00000000000E+00 -0.14557092693E+04  0.14557092693E+04  0.00000000000E+00 0. -1.
         25    2    1    2    0    0  0.20166592189E+03  0.12891626313E+03  0.33858249438E+02  0.27214136974E+03  0.12500398840E+03 0.  0.
          2    1    1    2  501    0 -0.17452450228E+03 -0.16670833437E+03 -0.13240687078E+04  0.13458857357E+04  0.00000000000E+00 0. -1.
          1    1    1    2  502    0 -0.27141419615E+02  0.37792071242E+02  0.33869785121E+03  0.34187882608E+03  0.00000000000E+00 0. -1.
         22    1    3    3    0    0  0.14094773670E+03  0.96538139990E+02 -0.35446946549E+02  0.17447739961E+03  0.00000000000E+00 0. -1.
         22    1    3    3    0    0  0.60718185195E+02  0.32378123139E+02  0.69305195987E+02  0.97663970133E+02  0.00000000000E+00 0. -1.
</event>
<event>
 7    1  0.5553952E-006  0.3219566E+02  0.7818608E-02  0.1583998E+00
          2   -1    0    0  502    0  0.00000000000E+00  0.00000000000E+00  0.10481873571E+04  0.10481873571E+04  0.00000000000E+00 0. -1.
          1   -1    0    0  501    0 -0.00000000000E+00 -0.00000000000E+00 -0.58185365919E+03  0.58185365919E+03  0.00000000000E+00 0. -1.
         25    2    1    2    0    0  0.45538352751E+02  0.42389598138E+02  0.80322193540E+03  0.81526702587E+03  0.12499690542E+03 0.  0.
          2    1    1    2  501    0 -0.20931247445E+02 -0.24441405065E+02 -0.57440837920E+03  0.57530903478E+03  0.00000000000E+00 0. -1.
          1    1    1    2  502    0 -0.24607105306E+02 -0.17948193073E+02  0.23752014175E+03  0.23946495568E+03  0.00000000000E+00 0. -1.
         22    1    3    3    0    0  0.80636003161E+02  0.59033549871E+02  0.53602399837E+03  0.54526035235E+03  0.00000000000E+00 0.  1.
         22    1    3    3    0    0 -0.35097650410E+02 -0.16643951733E+02  0.26719793703E+03  0.27000667352E+03  0.00000000000E+00 0.  1.
</event>
<event>
 7    1  0.5553952E-006  0.2056128E+03  0.7818608E-02  0.1224872E+00
          2   -1    0    0  502    0  0.00000000000E+00  0.00000000000E+00  0.11517743471E+04  0.11517743471E+04  0.00000000000E+00 0. -1.
          1   -1    0    0  501    0 -0.00000000000E+00 -0.00000000000E+00 -0.20394770491E+03  0.20394770491E+03  0.00000000000E+00 0. -1.
         25    2    1    2    0    0  0.12027207980E+03  0.23474770532E+03  0.67671810768E+02  0.29962877002E+03  0.12500427000E+03 0.  0.
          2    1    1    2  501    0 -0.74863559260E+02 -0.39036992563E+02 -0.54234520653E+02  0.10034850534E+03  0.00000000000E+00 0. -1.
          1    1    1    2  502    0 -0.45408520545E+02 -0.19571071275E+03  0.93438935207E+03  0.95574477665E+03  0.00000000000E+00 0. -1.
         22    1    3    3    0    0 -0.24226227448E+02  0.32290012040E+02  0.24369085090E+02  0.47153019861E+02  0.00000000000E+00 0. -1.
         22    1    3    3    0    0  0.14449830725E+03  0.20245769328E+03  0.43302725678E+02  0.25247575016E+03  0.00000000000E+00 0. -1.
</event>
<event>
 7    1  0.5553952E-006  0.9709568E+02  0.7818608E-02  0.1378918E+00
          2   -1    0    0  502    0  0.00000000000E+00  0.00000000000E+00  0.16469229685E+04  0.16469229685E+04  0.00000000000E+00 0. -1.
          1   -1    0    0  501    0 -0.00000000000E+00 -0.00000000000E+00 -0.17206310845E+04  0.17206310845E+04  0.00000000000E+00 0. -1.
         25    2    1    2    0    0  0.57361020854E+02 -0.11237557513E+03 -0.85592870992E+01  0.17781056633E+03  0.12499911801E+03 0.  0.
          2    1    1    2  501    0 -0.66510429026E+02  0.70177484354E+02 -0.16257112069E+04  0.16285838771E+04  0.00000000000E+00 0. -1.
          1    1    1    2  502    0  0.91494081722E+01  0.42198090773E+02  0.15605623781E+04  0.15611596095E+04  0.00000000000E+00 0. -1.
         22    1    3    3    0    0 -0.14547106352E+01  0.15861435669E+02 -0.31098174034E+02  0.34939916324E+02  0.00000000000E+00 0.  1.
         22    1    3    3    0    0  0.58815731489E+02 -0.12823701080E+03  0.22538886935E+02  0.14287065000E+03  0.00000000000E+00 0.  1.
</event>
<event>
 7    1  0.5553952E-006  0.1222234E+03  0.7818608E-02  0.1441394E+00
          2   -1    0    0  502    0  0.00000000000E+00  0.00000000000E+00  0.12319267151E+04  0.12319267151E+04  0.00000000000E+00 0. -1.
          1   -1    0    0  501    0 -0.00000000000E+00 -0.00000000000E+00 -0.82022224525E+02  0.82022224525E+02  0.00000000000E+00 0. -1.
         25    2    1    2    0    0 -0.81643412604E+02  0.11581125191E+03  0.13324572111E+03  0.23120795360E+03  0.12499921089E+03 0.  0.
          2    1    1    2  501    0  0.98205859050E+01 -0.18634317915E+02 -0.25797471720E+02  0.33304523099E+02  0.00000000000E+00 0. -1.
          1    1    1    2  502    0  0.71822826699E+02 -0.97176933991E+02  0.10424562412E+04  0.10494364629E+04  0.00000000000E+00 0. -1.
         22    1    3    3    0    0  0.60039356247E+01 -0.23979716483E+01 -0.18637797501E+02  0.19727265566E+02  0.00000000000E+00 0. -1.
         22    1    3    3    0    0 -0.87647348229E+02  0.11820922355E+03  0.15188351861E+03  0.21148068803E+03  0.00000000000E+00 0. -1.
</event>
<event>
 7    1  0.5553952E-006  0.1282446E+03  0.7818608E-02  0.1248222E+00
          2   -1    0    0  502    0  0.00000000000E+00  0.00000000000E+00  0.11356170239E+04  0.11356170239E+04  0.00000000000E+00 0. -1.
          1   -1    0    0  501    0 -0.00000000000E+00 -0.00000000000E+00 -0.12339741938E+03  0.12339741938E+03  0.00000000000E+00 0. -1.
         25    2    1    2    0    0  0.15588425275E+03 -0.11400788369E+03  0.29239112928E+03  0.37204199108E+03  0.12499989137E+03 0.  0.
          2    1    1    2  501    0 -0.10663472215E+03  0.13410435786E+01 -0.42493533757E+02  0.11479748594E+03  0.00000000000E+00 0. -1.
          1    1    1    2  502    0 -0.49249530605E+02  0.11266684011E+03  0.76232200895E+03  0.77217496622E+03  0.00000000000E+00 0. -1.
         22    1    3    3    0    0  0.52151102354E+01  0.23928035048E+02  0.20326225378E+02  0.31826147649E+02  0.00000000000E+00 0.  1.
         22    1    3    3    0    0  0.15066914252E+03 -0.13793591874E+03  0.27206490390E+03  0.34021584343E+03  0.00000000000E+00 0.  1.
</event>
<event>
 7    1  0.5553952E-006  0.6984818E+02  0.7818608E-02  0.1410991E+00
          2   -1    0    0  502    0  0.00000000000E+00  0.00000000000E+00  0.13395436046E+04  0.13395436046E+04  0.00000000000E+00 0. -1.
          1   -1    0    0  501    0 -0.00000000000E+00 -0.00000000000E+00 -0.76121301502E+03  0.76121301502E+03  0.00000000000E+00 0. -1.
         25    2    1    2    0    0 -0.11999829900E+02 -0.77622395272E+02  0.23298881080E+03  0.27582340159E+03  0.12500212294E+03 0.  0.
          2    1    1    2  501    0 -0.37292148197E+02  0.27729118725E+02 -0.73793076114E+03  0.73939259976E+03  0.00000000000E+00 0. -1.
          1    1    1    2  502    0  0.49291978097E+02  0.49893276547E+02  0.10832725399E+04  0.10855406182E+04  0.00000000000E+00 0. -1.
         22    1    3    3    0    0 -0.39420786749E+02 -0.74018086383E+02  0.23356162109E+03  0.24816064633E+03  0.00000000000E+00 0.  1.
         22    1    3    3    0    0  0.27420956849E+02 -0.36043088883E+01 -0.57281028699E+00  0.27662755263E+02  0.00000000000E+00 0.  1.
</event>
<event>
 7    1  0.5553952E-006  0.7905807E+02  0.7818608E-02  0.1376526E+00
          2   -1    0    0  502    0  0.00000000000E+00  0.00000000000E+00  0.49091357974E+03  0.49091357974E+03  0.00000000000E+00 0. -1.
          1   -1    0    0  501    0 -0.00000000000E+00 -0.00000000000E+00 -0.36150391453E+03  0.36150391453E+03  0.00000000000E+00 0. -1.
         25    2    1    2    0    0 -0.19977500926E+02 -0.48099425520E+02  0.12672617651E+03  0.18546445456E+03  0.12499953925E+03 0.  0.
          2    1    1    2  501    0  0.72389225544E+02  0.34778192437E+02 -0.32503146782E+03  0.33480617933E+03  0.00000000000E+00 0. -1.
          1    1    1    2  502    0 -0.52411724618E+02  0.13321233082E+02  0.32771495652E+03  0.33214686037E+03  0.00000000000E+00 0. -1.
         22    1    3    3    0    0 -0.39504319365E+01 -0.62780263151E+01  0.13886372583E+03  0.13906169090E+03  0.00000000000E+00 0.  1.
         22    1    3    3    0    0 -0.16027068990E+02 -0.41821399205E+02 -0.12137549312E+02  0.46402763658E+02  0.00000000000E+00 0.  1.
</event>
<event>
 7    1  0.5553952E-006  0.7136889E+02  0.7818608E-02  0.1428998E+00
          2   -1    0    0  502    0  0.00000000000E+00  0.00000000000E+00  0.16586544851E+04  0.16586544851E+04  0.00000000000E+00 0. -1.
          1   -1    0    0  501    0 -0.00000000000E+00 -0.00000000000E+00 -0.13535453416E+03  0.13535453416E+03  0.00000000000E+00 0. -1.
         25    2    1    2    0    0  0.30891453203E+02  0.10470405504E+03  0.29745770077E+03  0.34062252459E+03  0.12500159795E+03 0.  0.
          2    1    1    2  501    0 -0.14824978739E+02 -0.68510401292E+02 -0.10265232312E+03  0.12430186854E+03  0.00000000000E+00 0. -1.
          1    1    1    2  502    0 -0.16066474464E+02 -0.36193653749E+02  0.13284945733E+04  0.13290846261E+04  0.00000000000E+00 0. -1.
         22    1    3    3    0    0  0.54746977650E+02  0.74073657060E+02  0.87294545122E+02  0.12690341146E+03  0.00000000000E+00 0.  1.
         22    1    3    3    0    0 -0.23855524447E+02  0.30630397980E+02  0.21016315564E+03  0.21371911313E+03  0.00000000000E+00 0.  1.
</event>
<event>
 7    1  0.5553952E-006  0.4716702E+02  0.7818608E-02  0.1525240E+00
          2   -1    0    0  502    0  0.00000000000E+00  0.00000000000E+00  0.10689339476E+04  0.10689339476E+04  0.00000000000E+00 0. -1.
          1   -1    0    0  501    0 -0.00000000000E+00 -0.00000000000E+00 -0.12683781261E+03  0.12683781261E+03  0.00000000000E+00 0. -1.
         25    2    1    2    0    0  0.59024039758E+02 -0.39305651860E+02  0.21780229005E+02  0.14535197695E+03  0.12499618910E+03 0.  0.
          2    1    1    2  501    0 -0.29153832306E+02  0.34490355125E+02 -0.56951420905E+02  0.72684213402E+02  0.00000000000E+00 0. -1.
          1    1    1    2  502    0 -0.29870207452E+02  0.48152967351E+01  0.97726732685E+03  0.97773556983E+03  0.00000000000E+00 0. -1.
         22    1    3    3    0    0  0.14066759342E+02  0.82454257237E+01 -0.47399407368E+02  0.50125488353E+02  0.00000000000E+00 0. -1.
         22    1    3    3    0    0  0.44957280416E+02 -0.47551077583E+02  0.69179636373E+02  0.95226488597E+02  0.00000000000E+00 0. -1.
</event>
<event>
 7    1  0.5553952E-006  0.1131799E+03  0.7818608E-02  0.1331125E+00
          2   -1    0    0  502    0  0.00000000000E+00  0.00000000000E+00  0.12068460574E+04  0.12068460574E+04  0.00000000000E+00 0. -1.
          1   -1    0    0  501    0 -0.00000000000E+00 -0.00000000000E+00 -0.71702133202E+03  0.71702133202E+03  0.00000000000E+00 0. -1.
         25    2    1    2    0    0 -0.13886982573E+03  0.61562477101E+02  0.71681359183E+02  0.20937705467E+03  0.12500306670E+03 0.  0.
          2    1    1    2  501    0  0.54307505237E+02  0.11564215283E+02 -0.64404541726E+03  0.64643447904E+03  0.00000000000E+00 0. -1.
          1    1    1    2  502    0  0.84562320491E+02 -0.73126692384E+02  0.10621887835E+04  0.10680558557E+04  0.00000000000E+00 0. -1.
         22    1    3    3    0    0 -0.64142680882E+02  0.20755707038E+02  0.99161980076E+02  0.11990905378E+03  0.00000000000E+00 0.  1.
         22    1    3    3    0    0 -0.74727144845E+02  0.40806770063E+02 -0.27480620893E+02  0.89468000896E+02  0.00000000000E+00 0.  1.
</event>
<event>
 7    1  0.5553952E-006  0.4712593E+02  0.7818608E-02  0.1476562E+00
          2   -1    0    0  502    0  0.00000000000E+00  0.00000000000E+00  0.85554866685E+03  0.85554866685E+03  0.00000000000E+00 0. -1.
          1   -1    0    0  501    0 -0.00000000000E+00 -0.00000000000E+00 -0.54961450654E+03  0.54961450654E+03  0.00000000000E+00 0. -1.
         25    2    1    2    0    0 -0.41291167680E+01 -0.63892465577E+01  0.17791750036E+03  0.21755899203E+03  0.12497762200E+03 0.  0.
          2    1    1    2  501    0  0.46265204856E+02  0.10074951961E+02 -0.52805343566E+03  0.53017205202E+03  0.00000000000E+00 0. -1.
          1    1    1    2  502    0 -0.42136088088E+02 -0.36857054036E+01  0.65607009560E+03  0.65743212934E+03  0.00000000000E+00 0. -1.
         22    1    3    3    0    0 -0.41955107921E+02  0.39215273227E+02  0.48293794109E+02  0.75035720056E+02  0.00000000000E+00 0. -1.
         22    1    3    3    0    0  0.37825991153E+02 -0.45604519785E+02  0.12962370625E+03  0.14252327197E+03  0.00000000000E+00 0. -1.
</event>
<event>
 7    1  0.5553952E-006  0.4676770E+02  0.7818608E-02  0.1479532E+00
          2   -1    0    0  502    0  0.00000000000E+00  0.00000000000E+00  0.29384441679E+02  0.29384441679E+02  0.00000000000E+00 0. -1.
          1   -1    0    0  501    0 -0.00000000000E+00 -0.00000000000E+00 -0.66533187386E+03  0.66533187386E+03  0.00000000000E+00 0. -1.
         25    2    1    2    0    0 -0.37428656200E+01  0.46440006794E+01 -0.22288525389E+03  0.25561259206E+03  0.12499754011E+03 0.  0.
          2    1    1    2  501    0  0.12900345713E+02  0.44953294103E+02 -0.36953498751E+03  0.37248265002E+03  0.00000000000E+00 0. -1.
          1    1    1    2  502    0 -0.91574800933E+01 -0.49597294782E+02 -0.43527190780E+02  0.66621073457E+02  0.00000000000E+00 0. -1.
         22    1    3    3    0    0 -0.36063324227E+02  0.36326689233E+02 -0.19685585041E+03  0.20340210802E+03  0.00000000000E+00 0.  1.
         22    1    3    3    0    0  0.32320458607E+02 -0.31682688553E+02 -0.26029403475E+02  0.52210484041E+02  0.00000000000E+00 0.  1.
</event>
<event>
 7    1  0.5553952E-006  0.5422771E+02  0.7818608E-02  0.1483092E+00
          2   -1    0    0  502    0  0.00000000000E+00  0.00000000000E+00  0.80777138181E+02  0.80777138181E+02  0.00000000000E+00 0. -1.
          1   -1    0    0  501    0 -0.00000000000E+00 -0.00000000000E+00 -0.18964593876E+04  0.18964593876E+04  0.00000000000E+00 0. -1.
         25    2    1    2    0    0 -0.36756509542E+02 -0.74672458900E+02 -0.29355271013E+03  0.32973622127E+03  0.12500305949E+03 0.  0.
          2    1    1    2  501    0  0.27131234462E+02  0.22269697187E+02 -0.15732625019E+04  0.15736540100E+04  0.00000000000E+00 0. -1.
          1    1    1    2  502    0  0.96252750797E+01  0.52402761713E+02  0.51132962581E+02  0.73846294544E+02  0.00000000000E+00 0. -1.
         22    1    3    3    0    0 -0.22451529353E+02 -0.14872558017E+02 -0.25657936173E+03  0.25798882344E+03  0.00000000000E+00 0.  1.
         22    1    3    3    0    0 -0.14304980189E+02 -0.59799900882E+02 -0.36973348396E+02  0.71747397830E+02  0.00000000000E+00 0.  1.
</event>
<event>
 7    1  0.5553952E-006  0.4924335E+02  0.7818608E-02  0.1560909E+00
          2   -1    0    0  502    0  0.00000000000E+00  0.00000000000E+00  0.27684751511E+04  0.27684751511E+04  0.00000000000E+00 0. -1.
          1   -1    0    0  501    0 -0.00000000000E+00 -0.00000000000E+00 -0.97920574139E+03  0.97920574139E+03  0.00000000000E+00 0. -1.
         25    2    1    2    0    0  0.70615684898E+01  0.63171673618E+02  0.75172049243E+03  0.76468923820E+03  0.12500162472E+03 0.  0.
          2    1    1    2  501    0 -0.17014481436E+02 -0.15471494075E+02 -0.97229010490E+03  0.97256203287E+03  0.00000000000E+00 0. -1.
          1    1    1    2  502    0  0.99529129459E+01 -0.47700179543E+02  0.20098390222E+04  0.20104296215E+04  0.00000000000E+00 0. -1.
         22    1    3    3    0    0 -0.23290137784E+02  0.91576583857E+02  0.42774266691E+03  0.43805535075E+03  0.00000000000E+00 0.  1.
         22    1    3    3    0    0  0.30351706274E+02 -0.28404910239E+02  0.32397782552E+03  0.32663388744E+03  0.00000000000E+00 0.  1.
</event>
<event>
 7    1  0.5553952E-006  0.1607790E+03  0.7818608E-02  0.1317270E+00
          2   -1    0    0  502    0  0.00000000000E+00  0.00000000000E+00  0.30168072740E+04  0.30168072740E+04  0.00000000000E+00 0. -1.
          1   -1    0    0  501    0 -0.00000000000E+00 -0.00000000000E+00 -0.73256099862E+03  0.73256099862E+03  0.00000000000E+00 0. -1.
         25    2    1    2    0    0  0.11177106798E+03  0.13929044989E+03  0.31719650502E+03  0.38488174089E+03  0.12500292237E+03 0.  0.
          2    1    1    2  501    0 -0.43868355859E+02  0.54169794458E+01 -0.69562007121E+03  0.69702299803E+03  0.00000000000E+00 0. -1.
          1    1    1    2  502    0 -0.67902712125E+02 -0.14470742934E+03  0.26626698416E+04  0.26674635337E+04  0.00000000000E+00 0. -1.
         22    1    3    3    0    0  0.53012185829E+02  0.14860185402E+03  0.21586780459E+03  0.26737934087E+03  0.00000000000E+00 0.  1.
         22    1    3    3    0    0  0.58758882155E+02 -0.93114041293E+01  0.10132870043E+03  0.11750240002E+03  0.00000000000E+00 0.  1.
</event>
<event>
 7    1  0.5553952E-006  0.9119227E+02  0.7818608E-02  0.1350865E+00
          2   -1    0    0  502    0  0.00000000000E+00  0.00000000000E+00  0.13954225173E+04  0.13954225173E+04  0.00000000000E+00 0. -1.
          1   -1    0    0  501    0 -0.00000000000E+00 -0.00000000000E+00 -0.41461354841E+02  0.41461354841E+02  0.00000000000E+00 0. -1.
         25    2    1    2    0    0 -0.92676687253E+01  0.38441911478E+02  0.23050417121E+03  0.26517910247E+03  0.12499645274E+03 0.  0.
          2    1    1    2  501    0 -0.99438009717E+01  0.57238940038E+02  0.16416600771E+02  0.60371186963E+02  0.00000000000E+00 0. -1.
          1    1    1    2  502    0  0.19211469697E+02 -0.95680851517E+02  0.11070403905E+04  0.11113335827E+04  0.00000000000E+00 0. -1.
         22    1    3    3    0    0 -0.68903278480E+01  0.80879239917E+02  0.10528623417E+03  0.13294404527E+03  0.00000000000E+00 0. -1.
         22    1    3    3    0    0 -0.23773408774E+01 -0.42437328438E+02  0.12521793704E+03  0.13223505720E+03  0.00000000000E+00 0. -1.
</event>
<event>
 7    1  0.5553952E-006  0.1112197E+03  0.7818608E-02  0.1301863E+00
          2   -1    0    0  502    0  0.00000000000E+00  0.00000000000E+00  0.10320083661E+04  0.10320083661E+04  0.00000000000E+00 0. -1.
          1   -1    0    0  501    0 -0.00000000000E+00 -0.00000000000E+00 -0.49417885170E+03  0.49417885170E+03  0.00000000000E+00 0. -1.
         25    2    1    2    0    0 -0.10609503565E+01 -0.13549708644E+03  0.22183050518E+03  0.28843526474E+03  0.12500217144E+03 0.  0.
          2    1    1    2  501    0 -0.59501624402E+02  0.93862560655E+02 -0.45239804404E+03  0.46584827342E+03  0.00000000000E+00 0. -1.
          1    1    1    2  502    0  0.60562574759E+02  0.41634525788E+02  0.76839705327E+03  0.77190367966E+03  0.00000000000E+00 0. -1.
         22    1    3    3    0    0 -0.54185645098E+02 -0.65781435597E+02  0.59457795247E+02  0.10391588338E+03  0.00000000000E+00 0.  1.
         22    1    3    3    0    0  0.53124694741E+02 -0.69715650846E+02  0.16237270993E+03  0.18451938135E+03  0.00000000000E+00 0.  1.
</event>
<event>
 7    1  0.5553952E-006  0.6112113E+02  0.7818608E-02  0.1404251E+00
          2   -1    0    0  502    0  0.00000000000E+00  0.00000000000E+00  0.69401977965E+03  0.69401977965E+03  0.00000000000E+00 0. -1.
          1   -1    0    0  501    0 -0.00000000000E+00 -0.00000000000E+00 -0.44659009601E+03  0.44659009601E+03  0.00000000000E+00 0. -1.
         25    2    1    2    0    0 -0.50559814430E+02  0.21981921839E+02  0.35420031922E+03  0.37965239102E+03  0.12505427682E+03 0.  0.
          2    1    1    2  501    0  0.99284306034E+01 -0.60496649584E+02 -0.42927466820E+03  0.43363021010E+03  0.00000000000E+00 0. -1.
          1    1    1    2  502    0  0.40631383826E+02  0.38514727746E+02  0.32250403263E+03  0.32732727455E+03  0.00000000000E+00 0. -1.
         22    1    3    3    0    0  0.22627491263E+02 -0.31040468283E+02  0.17239982952E+03  0.17662733438E+03  0.00000000000E+00 0.  1.
         22    1    3    3    0    0 -0.73187305692E+02  0.53022390122E+02  0.18180048969E+03  0.20302505663E+03  0.00000000000E+00 0.  1.
</event>
<event>
 7    1  0.5553952E-006  0.3006148E+02  0.7818608E-02  0.1640547E+00
          2   -1    0    0  502    0  0.00000000000E+00  0.00000000000E+00  0.21519107525E+04  0.21519107525E+04  0.00000000000E+00 0. -1.
          1   -1    0    0  501    0 -0.00000000000E+00 -0.00000000000E+00 -0.10295033379E+02  0.10295033379E+02  0.00000000000E+00 0. -1.
         25    2    1    2    0    0 -0.17207826341E+02  0.12457559222E+02  0.51615798159E+03  0.53149947685E+03  0.12498532660E+03 0.  0.
          2    1    1    2  501    0  0.53650785330E+01 -0.32562656228E+02  0.10488213589E+03  0.10995168520E+03  0.00000000000E+00 0. -1.
          1    1    1    2  502    0  0.11842747808E+02  0.20105097006E+02  0.15205756017E+04  0.15207546239E+04  0.00000000000E+00 0. -1.
         22    1    3    3    0    0  0.12353349333E+02 -0.25139148376E+01 -0.15773415765E+01  0.12704842148E+02  0.00000000000E+00 0.  1.
         22    1    3    3    0    0 -0.29561175674E+02  0.14971474060E+02  0.51773532316E+03  0.51879463470E+03  0.00000000000E+00 0.  1.
</event>
<event>
 7    1  0.5553952E-006  0.7207621E+02  0.7818608E-02  0.1403418E+00
          2   -1    0    0  502    0  0.00000000000E+00  0.00000000000E+00  0.15637967458E+04  0.15637967458E+04  0.00000000000E+00 0. -1.
          1   -1    0    0  501    0 -0.00000000000E+00 -0.00000000000E+00 -0.18446421270E+03  0.18446421270E+03  0.00000000000E+00 0. -1.
         25    2    1    2    0    0  0.37180962170E+02  0.69742302439E+02  0.78481329140E+02  0.16745679358E+03  0.12504417617E+03 0.  0.
          2    1    1    2  501    0  0.28049259412E+02 -0.38690393187E+02 -0.13496293145E+03  0.14317367196E+03  0.00000000000E+00 0. -1.
          1    1    1    2  502    0 -0.65230221583E+02 -0.31051909252E+02  0.14358141354E+04  0.14376304930E+04  0.00000000000E+00 0. -1.
         22    1    3    3    0    0  0.70299229422E+02  0.32193580405E+02  0.87301214102E+02  0.11661865314E+03  0.00000000000E+00 0. -1.
         22    1    3    3    0    0 -0.33118267252E+02  0.37548722034E+02 -0.88198849614E+01  0.50838140435E+02  0.00000000000E+00 0. -1.
</event>
<event>
 7    1  0.5553952E-006  0.6582475E+02  0.7818608E-02  0.1391431E+00
          2   -1    0    0  502    0  0.00000000000E+00  0.00000000000E+00  0.11522478954E+04  0.11522478954E+04  0.00000000000E+00 0. -1.
          1   -1    0    0  501    0 -0.00000000000E+00 -0.00000000000E+00 -0.22085685086E+02  0.22085685086E+02  0.00000000000E+00 0. -1.
         25    2    1    2    0    0  0.11321253018E+01 -0.90544800243E+02  0.54922156652E+03  0.57049651009E+03  0.12498918487E+03 0.  0.
          2    1    1    2  501    0 -0.41244584327E+02  0.49267802656E+02  0.96157046590E+02  0.11564864774E+03  0.00000000000E+00 0. -1.
          1    1    1    2  502    0  0.40112459025E+02  0.41276997587E+02  0.48478359726E+03  0.48818842271E+03  0.00000000000E+00 0. -1.
         22    1    3    3    0    0 -0.40441132654E+01 -0.77472221179E+02  0.55090106045E+03  0.55633647940E+03  0.00000000000E+00 0.  1.
         22    1    3    3    0    0  0.51762385672E+01 -0.13072579064E+02 -0.16794939358E+01  0.14160030684E+02  0.00000000000E+00 0.  1.
</event>
<event>
 7    1  0.5553952E-006  0.5793658E+02  0.7818608E-02  0.1414901E+00
          2   -1    0    0  502    0  0.00000000000E+00  0.00000000000E+00  0.15032573643E+04  0.15032573643E+04  0.00000000000E+00 0. -1.
          1   -1    0    0  501    0 -0.00000000000E+00 -0.00000000000E+00 -0.43454133602E+02  0.43454133602E+02  0.00000000000E+00 0. -1.
         25    2    1    2    0    0 -0.20662711372E+02 -0.42577950697E+02  0.63945266924E+03  0.65327247845E+03  0.12500154153E+03 0.  0.
          2    1    1    2  501    0 -0.38545305552E+02  0.43253982065E+02 -0.11848827973E+02  0.59135795157E+02  0.00000000000E+00 0. -1.
          1    1    1    2  502    0  0.59208016924E+02 -0.67603136863E+00  0.83219938943E+03  0.83430322429E+03  0.00000000000E+00 0. -1.
         22    1    3    3    0    0 -0.21501042619E+02 -0.81761032320E+02  0.30393984925E+03  0.31547835615E+03  0.00000000000E+00 0.  1.
         22    1    3    3    0    0  0.83833124649E+00  0.39183081623E+02  0.33551281999E+03  0.33779412230E+03  0.00000000000E+00 0.  1.
</event>
<event>
 7    1  0.5553952E-006  0.6683864E+02  0.7818608E-02  0.1374906E+00
          2   -1    0    0  502    0  0.00000000000E+00  0.00000000000E+00  0.42498971357E+02  0.42498971357E+02  0.00000000000E+00 0. -1.
          1   -1    0    0  501    0 -0.00000000000E+00 -0.00000000000E+00 -0.12484096379E+04  0.12484096379E+04  0.00000000000E+00 0. -1.
         25    2    1    2    0    0  0.18661516912E+02 -0.39173237566E+02 -0.20315720693E+03  0.24244739839E+03  0.12500038200E+03 0.  0.
          2    1    1    2  501    0 -0.62082578160E+02 -0.24762015590E+02 -0.95558270232E+03  0.95791737895E+03  0.00000000000E+00 0. -1.
          1    1    1    2  502    0  0.43421061248E+02  0.63935253157E+02 -0.47170757303E+02  0.90543831930E+02  0.00000000000E+00 0. -1.
         22    1    3    3    0    0 -0.22847909928E+02  0.17431172165E+02 -0.15423050803E+03  0.15688506097E+03  0.00000000000E+00 0.  1.
         22    1    3    3    0    0  0.41509426841E+02 -0.56604409732E+02 -0.48926698908E+02  0.85562337414E+02  0.00000000000E+00 0.  1.
</event>
<event>
 7    1  0.5553952E-006  0.2799076E+03  0.7818608E-02  0.1132767E+00
          2   -1    0    0  502    0  0.00000000000E+00  0.00000000000E+00  0.49006882047E+03  0.49006882047E+03  0.00000000000E+00 0. -1.
          1   -1    0    0  501    0 -0.00000000000E+00 -0.00000000000E+00 -0.32730614751E+03  0.32730614751E+03  0.00000000000E+00 0. -1.
         25    2    1    2    0    0  0.54125630484E+02 -0.32987978785E+03  0.15279165266E+03  0.38822593416E+03  0.12499531401E+03 0.  0.
          2    1    1    2  501    0 -0.14557961023E+03  0.97628685934E+02 -0.25156601034E+02  0.17708087928E+03  0.00000000000E+00 0. -1.
          1    1    1    2  502    0  0.91453979743E+02  0.23225110192E+03  0.35127621336E+02  0.25206815454E+03  0.00000000000E+00 0. -1.
         22    1    3    3    0    0 -0.27248669936E+02 -0.50446839679E+02 -0.42987052733E+01  0.57496543496E+02  0.00000000000E+00 0. -1.
         22    1    3    3    0    0  0.81374300420E+02 -0.27943294817E+03  0.15709035794E+03  0.33072939067E+03  0.00000000000E+00 0. -1.
</event>
<event>
 7    1  0.5553952E-006  0.7555366E+02  0.7818608E-02  0.1487550E+00
          2   -1    0    0  502    0  0.00000000000E+00  0.00000000000E+00  0.42361326569E+03  0.42361326569E+03  0.00000000000E+00 0. -1.
          1   -1    0    0  501    0 -0.00000000000E+00 -0.00000000000E+00 -0.23495910073E+03  0.23495910073E+03  0.00000000000E+00 0. -1.
         25    2    1    2    0    0  0.70446255191E+02 -0.49908700641E+02  0.69196002274E+02  0.16693327278E+03  0.12500031024E+03 0.  0.
          2    1    1    2  501    0 -0.11987475442E+00  0.24417298778E+02 -0.18067855661E+03  0.18232103463E+03  0.00000000000E+00 0. -1.
          1    1    1    2  502    0 -0.70326380437E+02  0.25491401863E+02  0.30013671930E+03  0.30931805901E+03  0.00000000000E+00 0. -1.
         22    1    3    3    0    0  0.33003824643E+02  0.10546400563E+02  0.86984636912E+02  0.93631223770E+02  0.00000000000E+00 0.  1.
         22    1    3    3    0    0  0.37442430548E+02 -0.60455101204E+02 -0.17788634638E+02  0.73302049011E+02  0.00000000000E+00 0.  1.
</event>
<event>
 7    1  0.5553952E-006  0.5840459E+02  0.7818608E-02  0.1456606E+00
          2   -1    0    0  502    0  0.00000000000E+00  0.00000000000E+00  0.13611746192E+04  0.13611746192E+04  0.00000000000E+00 0. -1.
          1   -1    0    0  501    0 -0.00000000000E+00 -0.00000000000E+00 -0.10531702039E+03  0.10531702039E+03  0.00000000000E+00 0. -1.
         25    2    1    2    0    0 -0.34124964942E+02  0.50387604038E+02  0.30350156134E+03  0.33382626270E+03  0.12499340806E+03 0.  0.
          2    1    1    2  501    0  0.56009653273E+02 -0.17624106401E+02 -0.80178439656E+02  0.99379437370E+02  0.00000000000E+00 0. -1.
          1    1    1    2  502    0 -0.21884688332E+02 -0.32763497638E+02  0.10325344771E+04  0.10332859395E+04  0.00000000000E+00 0. -1.
         22    1    3    3    0    0  0.11866648232E+02  0.14671713559E+01  0.24345475881E+03  0.24374820927E+03  0.00000000000E+00 0.  1.
         22    1    3    3    0    0 -0.45991613174E+02  0.48920432683E+02  0.60046802530E+02  0.90078053433E+02  0.00000000000E+00 0.  1.
</event>
<event>
 7    1  0.5553952E-006  0.3995394E+02  0.7818608E-02  0.1604375E+00
          2   -1    0    0  502    0  0.00000000000E+00  0.00000000000E+00  0.19658124176E+04  0.19658124176E+04  0.00000000000E+00 0. -1.
          1   -1    0    0  501    0 -0.00000000000E+00 -0.00000000000E+00 -0.35578062695E+03  0.35578062695E+03  0.00000000000E+00 0. -1.
         25    2    1    2    0    0 -0.57903400515E+01  0.38242888285E+02  0.31418410687E+03  0.34034353857E+03  0.12500409871E+03 0.  0.
          2    1    1    2  501    0  0.21644309930E+02 -0.14256722379E+01 -0.34211221377E+03  0.34279917663E+03  0.00000000000E+00 0. -1.
          1    1    1    2  502    0 -0.15853969879E+02 -0.36817216047E+02  0.16379598975E+04  0.16384503293E+04  0.00000000000E+00 0. -1.
         22    1    3    3    0    0  0.36422889021E+02  0.61623741075E+02  0.11550287647E+03  0.13588608016E+03  0.00000000000E+00 0. -1.
         22    1    3    3    0    0 -0.42213229072E+02 -0.23380852790E+02  0.19868123040E+03  0.20445745841E+03  0.00000000000E+00 0. -1.
</event>
<event>
 7    1  0.5553952E-006  0.5605216E+02  0.7818608E-02  0.1446558E+00
          2   -1    0    0  502    0  0.00000000000E+00  0.00000000000E+00  0.32798762850E+03  0.32798762850E+03  0.00000000000E+00 0. -1.
          1   -1    0    0  501    0 -0.00000000000E+00 -0.00000000000E+00 -0.95481549326E+03  0.95481549326E+03  0.00000000000E+00 0. -1.
         25    2    1    2    0    0 -0.33273408581E+02 -0.43650488655E+02 -0.48589384665E+03  0.50470983608E+03  0.12500681400E+03 0.  0.
          2    1    1    2  501    0 -0.83407642352E+01  0.58550374969E+02 -0.45606188561E+03  0.45988059131E+03  0.00000000000E+00 0. -1.
          1    1    1    2  502    0  0.41614172816E+02 -0.14899886314E+02  0.31512786749E+03  0.31821269438E+03  0.00000000000E+00 0. -1.
         22    1    3    3    0    0 -0.82255200090E+01  0.77935345159E+01 -0.40749124301E+03  0.40764875995E+03  0.00000000000E+00 0.  1.
         22    1    3    3    0    0 -0.25047888572E+02 -0.51444023171E+02 -0.78402603637E+02  0.97061076127E+02  0.00000000000E+00 0.  1.
</event>
<event>
 7    1  0.5553952E-006  0.1658259E+03  0.7818608E-02  0.1229865E+00
          2   -1    0    0  502    0  0.00000000000E+00  0.00000000000E+00  0.29840421898E+03  0.29840421898E+03  0.00000000000E+00 0. -1.
          1   -1    0    0  501    0 -0.00000000000E+00 -0.00000000000E+00 -0.19081301660E+04  0.19081301660E+04  0.00000000000E+00 0. -1.
         25    2    1    2    0    0  0.16316374649E+03  0.74723065212E+02 -0.77296690514E+03  0.80330899636E+03  0.12498624941E+03 0.  0.
          2    1    1    2  501    0 -0.74420981192E+02  0.65900892073E+02 -0.10931350803E+04  0.10976455319E+04  0.00000000000E+00 0. -1.
          1    1    1    2  502    0 -0.88742765299E+02 -0.14062395729E+03  0.25637603839E+03  0.30557985670E+03  0.00000000000E+00 0. -1.
         22    1    3    3    0    0  0.15248676378E+03  0.77872567397E+02 -0.47132017313E+03  0.50145693283E+03  0.00000000000E+00 0. -1.
         22    1    3    3    0    0  0.10676982710E+02 -0.31495021849E+01 -0.30164673201E+03  0.30185206353E+03  0.00000000000E+00 0. -1.
</event>
<event>
 7    1  0.5553952E-006  0.1720220E+03  0.7818608E-02  0.1281939E+00
          2   -1    0    0  502    0  0.00000000000E+00  0.00000000000E+00  0.85113586586E+03  0.85113586586E+03  0.00000000000E+00 0. -1.
          1   -1    0    0  501    0 -0.00000000000E+00 -0.00000000000E+00 -0.10492704668E+04  0.10492704668E+04  0.00000000000E+00 0. -1.
         25    2    1    2    0    0 -0.11778358541E+03  0.18790661386E+01  0.20145247982E+03  0.26473691465E+03  0.12500411382E+03 0.  0.
          2    1    1    2  501    0  0.17289964704E+03 -0.17296948330E+02 -0.10088597876E+04  0.10237145810E+04  0.00000000000E+00 0. -1.
          1    1    1    2  502    0 -0.55116061635E+02  0.15417882191E+02  0.60927270679E+03  0.61195483704E+03  0.00000000000E+00 0. -1.
         22    1    3    3    0    0 -0.42097760616E+02  0.32713618115E+02  0.16830034588E+03  0.17654293722E+03  0.00000000000E+00 0. -1.
         22    1    3    3    0    0 -0.75685824791E+02 -0.30834551977E+02  0.33152133937E+02  0.88193977427E+02  0.00000000000E+00 0. -1.
</event>
<event>
 7    1  0.5553952E-006  0.4330796E+02  0.7818608E-02  0.1515951E+00
          2   -1    0    0  502    0  0.00000000000E+00  0.00000000000E+00  0.16171884540E+04  0.16171884540E+04  0.00000000000E+00 0. -1.
          1   -1    0    0  501    0 -0.00000000000E+00 -0.00000000000E+00 -0.27420935660E+03  0.27420935660E+03  0.00000000000E+00 0. -1.
         25    2    1    2    0    0 -0.59649246973E+02 -0.80676587611E+00  0.53030893799E+02  0.14829811923E+03  0.12498549089E+03 0.  0.
          2    1    1    2  501    0  0.34819361035E+02  0.25561654129E+02 -0.22431228908E+03  0.22843333622E+03  0.00000000000E+00 0. -1.
          1    1    1    2  502    0  0.24829885938E+02 -0.24754888253E+02  0.15142604927E+04  0.15146663552E+04  0.00000000000E+00 0. -1.
         22    1    3    3    0    0 -0.85002592966E+02  0.23079304822E+02  0.67104075993E+02  0.11072963531E+03  0.00000000000E+00 0. -1.
         22    1    3    3    0    0  0.25353345993E+02 -0.23886070698E+02 -0.14073182193E+02  0.37568483912E+02  0.00000000000E+00 0. -1.
</event>
<event>
 7    1  0.5553952E-006  0.1336285E+03  0.7818608E-02  0.1269321E+00
          2   -1    0    0  502    0  0.00000000000E+00  0.00000000000E+00  0.95874196287E+03  0.95874196287E+03  0.00000000000E+00 0. -1.
          1   -1    0    0  501    0 -0.00000000000E+00 -0.00000000000E+00 -0.24017088257E+04  0.24017088257E+04  0.00000000000E+00 0. -1.
         25    2    1    2    0    0  0.11110304963E+03 -0.32855794108E+02  0.17774158501E+03  0.24627699382E+03  0.12504757413E+03 0.  0.
          2    1    1    2  501    0 -0.77860498730E+02  0.10906586866E+03 -0.23632226212E+04  0.23670189645E+04  0.00000000000E+00 0. -1.
          1    1    1    2  502    0 -0.33242550900E+02 -0.76210074550E+02  0.74251417339E+03  0.74715483023E+03  0.00000000000E+00 0. -1.
         22    1    3    3    0    0  0.20133673723E+02  0.43961753926E+02  0.31555760875E+02  0.57738779605E+02  0.00000000000E+00 0.  1.
         22    1    3    3    0    0  0.90969375906E+02 -0.76817548034E+02  0.14618582414E+03  0.18853821421E+03  0.00000000000E+00 0.  1.
</event>
<event>
 7    1  0.5553952E-006  0.9216359E+02  0.7818608E-02  0.1453386E+00
          2   -1    0    0  502    0  0.00000000000E+00  0.00000000000E+00  0.17051360448E+03  0.17051360448E+03  0.00000000000E+00 0. -1.
          1   -1    0    0  501    0 -0.00000000000E+00 -0.00000000000E+00 -0.65334234515E+03  0.65334234515E+03  0.00000000000E+00 0. -1.
         25    2    1    2    0    0  0.12631113714E+02  0.70881745769E+02 -0.12300781724E+03  0.18957724223E+03  0.12499936301E+03 0.  0.
          2    1    1    2  501    0  0.17692843855E+02  0.18451405112E+02 -0.48045606852E+03  0.48113566159E+03  0.00000000000E+00 0. -1.
          1    1    1    2  502    0 -0.30323957569E+02 -0.89333150881E+02  0.12063514509E+03  0.15314304581E+03  0.00000000000E+00 0. -1.
         22    1    3    3    0    0  0.59740111684E+02  0.27544438721E+02 -0.10354142204E+03  0.12267193292E+03  0.00000000000E+00 0. -1.
         22    1    3    3    0    0 -0.47108997970E+02  0.43337307047E+02 -0.19466395201E+02  0.66905309310E+02  0.00000000000E+00 0. -1.
</event>
<event>
 7    1  0.5553952E-006  0.7404346E+02  0.7818608E-02  0.1492828E+00
          2   -1    0    0  502    0  0.00000000000E+00  0.00000000000E+00  0.30457738613E+03  0.30457738613E+03  0.00000000000E+00 0. -1.
          1   -1    0    0  501    0 -0.00000000000E+00 -0.00000000000E+00 -0.48733944512E+03  0.48733944512E+03  0.00000000000E+00 0. -1.
         25    2    1    2    0    0  0.52304817764E+02  0.10199376295E+02  0.27573120249E+02  0.13866186721E+03  0.12500806062E+03 0.  0.
          2    1    1    2  501    0  0.21117719616E+02  0.11438183942E+02 -0.42483165069E+03  0.42550995472E+03  0.00000000000E+00 0. -1.
          1    1    1    2  502    0 -0.73422537380E+02 -0.21637560238E+02  0.21449647145E+03  0.22774500932E+03  0.00000000000E+00 0. -1.
         22    1    3    3    0    0  0.59392758990E+02  0.12640029252E+02 -0.38673517953E+02  0.71992438150E+02  0.00000000000E+00 0.  1.
         22    1    3    3    0    0 -0.70879412254E+01 -0.24406529561E+01  0.66246638202E+02  0.66669429057E+02  0.00000000000E+00 0.  1.
</event>
<event>
 7    1  0.5553952E-006  0.1832190E+03  0.7818608E-02  0.1267390E+00
          2   -1    0    0  502    0  0.00000000000E+00  0.00000000000E+00  0.81385386757E+02  0.81385386757E+02  0.00000000000E+00 0. -1.
          1   -1    0    0  501    0 -0.00000000000E+00 -0.00000000000E+00 -0.22753742570E+04  0.22753742570E+04  0.00000000000E+00 0. -1.
         25    2    1    2    0    0  0.20948645100E+03 -0.84662826090E+02 -0.36125200091E+03  0.44405003627E+03  0.12500023713E+03 0.  0.
          2    1    1    2  501    0 -0.59948165943E+02  0.14960747226E+02 -0.16995551294E+04  0.17006778779E+04  0.00000000000E+00 0. -1.
          1    1    1    2  502    0 -0.14953828506E+03  0.69702078864E+02 -0.13318173996E+03  0.21203172959E+03  0.00000000000E+00 0. -1.
         22    1    3    3    0    0 -0.24841298387E+01 -0.14722582723E+02 -0.96998884883E+02  0.98141270685E+02  0.00000000000E+00 0. -1.
         22    1    3    3    0    0  0.21197058084E+03 -0.69940243367E+02 -0.26425311602E+03  0.34590876559E+03  0.00000000000E+00 0. -1.
</event>
<event>
 7    1  0.5553952E-006  0.3093075E+03  0.7818608E-02  0.1241848E+00
          2   -1    0    0  502    0  0.00000000000E+00  0.00000000000E+00  0.54690624474E+03  0.54690624474E+03  0.00000000000E+00 0. -1.
          1   -1    0    0  501    0 -0.00000000000E+00 -0.00000000000E+00 -0.62993373205E+03  0.62993373205E+03  0.00000000000E+00 0. -1.
         25    2    1    2    0    0 -0.26577710362E+03  0.17856033073E+03 -0.45953040783E+03  0.57386612505E+03  0.12503148901E+03 0.  0.
          2    1    1    2  501    0  0.21966505721E+03 -0.16873438096E+03  0.60562008480E+02  0.28353445214E+03  0.00000000000E+00 0. -1.
          1    1    1    2  502    0  0.46112046407E+02 -0.98259497656E+01  0.31594091204E+03  0.31943939959E+03  0.00000000000E+00 0. -1.
         22    1    3    3    0    0 -0.17487820919E+03  0.53326266531E+02 -0.30210584745E+03  0.35312040696E+03  0.00000000000E+00 0. -1.
         22    1    3    3    0    0 -0.90898894427E+02  0.12523406419E+03 -0.15742456039E+03  0.22074571809E+03  0.00000000000E+00 0. -1.
</event>
<event>
 7    1  0.5553952E-006  0.6025943E+02  0.7818608E-02  0.1438337E+00
          2   -1    0    0  502    0  0.00000000000E+00  0.00000000000E+00  0.99189504410E+01  0.99189504410E+01  0.00000000000E+00 0. -1.
          1   -1    0    0  501    0 -0.00000000000E+00 -0.00000000000E+00 -0.33918529061E+04  0.33918529061E+04  0.00000000000E+00 0. -1.
         25    2    1    2    0    0  0.18780185653E+02 -0.34541747794E+02 -0.10289219126E+04  0.10372324659E+04  0.12500023392E+03 0.  0.
          2    1    1    2  501    0 -0.31843279874E+02 -0.29943898264E+02 -0.21633030822E+04  0.21637446377E+04  0.00000000000E+00 0. -1.
          1    1    1    2  502    0  0.13063094222E+02  0.64485646058E+02 -0.18970896092E+03  0.20079475300E+03  0.00000000000E+00 0. -1.
         22    1    3    3    0    0 -0.12599293125E+02 -0.72181117442E+02 -0.42014538795E+03  0.42648681447E+03  0.00000000000E+00 0.  1.
         22    1    3    3    0    0  0.31379478778E+02  0.37639369648E+02 -0.60877652461E+03  0.61074565144E+03  0.00000000000E+00 0.  1.
</event>
<event>
 7    1  0.1295938E-005  0.7423486E+02  0.7818608E-02  0.1353098E+00
          2   -1    0    0  502    0  0.00000000000E+00  0.00000000000E+00  0.22188697005E+04  0.22188697005E+04  0.00000000000E+00 0. -1.
          1   -1    0    0  501    0 -0.00000000000E+00 -0.00000000000E+00 -0.21235865086E+04  0.21235865086E+04  0.00000000000E+00 0. -1.
         25    2    1    2    0    0  0.70939843221E+01 -0.22894768824E+02 -0.28727146744E+03  0.31420215531E+03  0.12499441324E+03 0.  0.
          2    1    1    2  501    0  0.54743420216E+02  0.55750687582E+02 -0.18214561088E+04  0.18231311904E+04  0.00000000000E+00 0. -1.
          1    1    1    2  502    0 -0.61837404538E+02 -0.32855918759E+02  0.22040107682E+04  0.22051228633E+04  0.00000000000E+00 0. -1.
         22    1    3    3    0    0  0.29229404327E+02  0.32186992054E+02 -0.37322036435E+02  0.57300043093E+02  0.00000000000E+00 0.  1.
         22    1    3    3    0    0 -0.22135420005E+02 -0.55081760878E+02 -0.24994943101E+03  0.25690211222E+03  0.00000000000E+00 0.  1.
</event>
<event>
 7    1  0.5553952E-006  0.9228060E+02  0.7818608E-02  0.1328959E+00
          2   -1    0    0  502    0  0.00000000000E+00  0.00000000000E+00  0.36301733632E+03  0.36301733632E+03  0.00000000000E+00 0. -1.
          1   -1    0    0  501    0 -0.00000000000E+00 -0.00000000000E+00 -0.65765399244E+03  0.65765399244E+03  0.00000000000E+00 0. -1.
         25    2    1    2    0    0  0.67174896166E+02 -0.48328260635E+02 -0.56362896666E+01  0.15002303198E+03  0.12500821938E+03 0.  0.
          2    1    1    2  501    0 -0.92651559742E+02 -0.16237135025E+02 -0.57178466562E+03  0.57947015446E+03  0.00000000000E+00 0. -1.
          1    1    1    2  502    0  0.25476663577E+02  0.64565395660E+02  0.28278429917E+03  0.29117814231E+03  0.00000000000E+00 0. -1.
         22    1    3    3    0    0  0.88026415449E+02 -0.59474194006E+02 -0.35430572989E+02  0.11198729871E+03  0.00000000000E+00 0.  1.
         22    1    3    3    0    0 -0.20851519284E+02  0.11145933370E+02  0.29794283322E+02  0.38035733276E+02  0.00000000000E+00 0.  1.
</event>
<event>
 7    1  0.5553952E-006  0.1581964E+03  0.7818608E-02  0.1232392E+00
          2   -1    0    0  502    0  0.00000000000E+00  0.00000000000E+00  0.24692447780E+04  0.24692447780E+04  0.00000000000E+00 0. -1.
          1   -1    0    0  501    0 -0.00000000000E+00 -0.00000000000E+00 -0.58231477951E+03  0.58231477951E+03  0.00000000000E+00 0. -1.
         25    2    1    2    0    0 -0.56604675258E+02  0.65330221398E+02  0.26883210875E+03  0.30882010792E+03  0.12500811682E+03 0.  0.
          2    1    1    2  501    0  0.20773630466E+02 -0.16031705793E+03 -0.54948972779E+03  0.57277575345E+03  0.00000000000E+00 0. -1.
          1    1    1    2  502    0  0.35831044792E+02  0.94986836532E+02  0.21675876176E+04  0.21699636962E+04  0.00000000000E+00 0. -1.
         22    1    3    3    0    0  0.10992593539E+02  0.80588065226E+02  0.12448196980E+03  0.14869779479E+03  0.00000000000E+00 0.  1.
         22    1    3    3    0    0 -0.67597268797E+02 -0.15257843828E+02  0.14435013895E+03  0.16012231313E+03  0.00000000000E+00 0.  1.
</event>
<event>
 7    1  0.5553952E-006  0.6274041E+02  0.7818608E-02  0.1394010E+00
          2   -1    0    0  502    0  0.00000000000E+00  0.00000000000E+00  0.16378522909E+03  0.16378522909E+03  0.00000000000E+00 0. -1.
          1   -1    0    0  501    0 -0.00000000000E+00 -0.00000000000E+00 -0.41244471035E+03  0.41244471035E+03  0.00000000000E+00 0. -1.
         25    2    1    2    0    0 -0.25171311296E+02 -0.77694468941E+02 -0.24552506307E+02  0.15132704272E+03  0.12500809125E+03 0.  0.
          2    1    1    2  501    0 -0.29678335788E+02  0.55545545342E+02 -0.31236780593E+03  0.31865303608E+03  0.00000000000E+00 0. -1.
          1    1    1    2  502    0  0.54849647084E+02  0.22148923599E+02  0.88260830976E+02  0.10624986064E+03  0.00000000000E+00 0. -1.
         22    1    3    3    0    0 -0.45686055720E+02 -0.15630594787E+01 -0.50692703670E+02  0.68259864105E+02  0.00000000000E+00 0. -1.
         22    1    3    3    0    0  0.20514744424E+02 -0.76131409462E+02  0.26140197364E+02  0.83067178619E+02  0.00000000000E+00 0. -1.
</event>
<event>
 7    1  0.5553952E-006  0.1654256E+03  0.7818608E-02  0.1218572E+00
          2   -1    0    0  502    0  0.00000000000E+00  0.00000000000E+00  0.31213050878E+04  0.31213050878E+04  0.00000000000E+00 0. -1.
          1   -1    0    0  501    0 -0.00000000000E+00 -0.00000000000E+00 -0.40812272188E+03  0.40812272188E+03  0.00000000000E+00 0. -1.
         25    2    1    2    0    0  0.22437234579E+03  0.58734047946E+02  0.74237280263E+03  0.78774013232E+03  0.12499800013E+03 0.  0.
          2    1    1    2  501    0 -0.67534883110E+02 -0.89466240404E+02 -0.37451168881E+03  0.39092732529E+03  0.00000000000E+00 0. -1.
          1    1    1    2  502    0 -0.15683746268E+03  0.30732192458E+02  0.23453212521E+04  0.23507603521E+04  0.00000000000E+00 0. -1.
         22    1    3    3    0    0  0.12841737063E+03  0.44711082397E+02  0.60174898549E+03  0.61692134304E+03  0.00000000000E+00 0. -1.
         22    1    3    3    0    0  0.95954975161E+02  0.14022965549E+02  0.14062381714E+03  0.17081878927E+03  0.00000000000E+00 0. -1.
</event>
<event>
 7    1  0.5553952E-006  0.1623493E+03  0.7818608E-02  0.1282731E+00
          2   -1    0    0  502    0  0.00000000000E+00  0.00000000000E+00  0.96965534249E+03  0.96965534249E+03  0.00000000000E+00 0. -1.
          1   -1    0    0  501    0 -0.00000000000E+00 -0.00000000000E+00 -0.95451998935E+03  0.95451998935E+03  0.00000000000E+00 0. -1.
         25    2    1    2    0    0 -0.13729680716E+03 -0.74802536854E+02 -0.29050732687E+03  0.35279742947E+03  0.12500274596E+03 0.  0.
          2    1    1    2  501    0  0.16586323350E+03  0.21825686138E+02 -0.62081840279E+03  0.64296381083E+03  0.00000000000E+00 0. -1.
          1    1    1    2  502    0 -0.28566426341E+02  0.52976850716E+02  0.92646108280E+03  0.92841409154E+03  0.00000000000E+00 0. -1.
         22    1    3    3    0    0 -0.13753241942E+03 -0.51947656392E+02 -0.29490798870E+03  0.32952154284E+03  0.00000000000E+00 0.  1.
         22    1    3    3    0    0  0.23561225539E+00 -0.22854880462E+02  0.44006618251E+01  0.23275886633E+02  0.00000000000E+00 0.  1.
</event>
<event>
 7    1  0.5553952E-006  0.3015477E+02  0.7818608E-02  0.1608627E+00
          2   -1    0    0  502    0  0.00000000000E+00  0.00000000000E+00  0.66407323698E+03  0.66407323698E+03  0.00000000000E+00 0. -1.
          1   -1    0    0  501    0 -0.00000000000E+00 -0.00000000000E+00 -0.46168372373E+03  0.46168372373E+03  0.00000000000E+00 0. -1.
         25    2    1    2    0    0  0.17468542585E+02  0.48946822545E+02  0.17269937247E+03  0.21945381482E+03  0.12503584353E+03 0.  0.
          2    1    1    2  501    0 -0.21381221305E+02 -0.21201200493E+02 -0.43736900199E+03  0.43840425571E+03  0.00000000000E+00 0. -1.
          1    1    1    2  502    0  0.39126787200E+01 -0.27745622052E+02  0.46705914276E+03  0.46789889019E+03  0.00000000000E+00 0. -1.
         22    1    3    3    0    0  0.30751168554E+02  0.75694469803E+02  0.56144240894E+02  0.99133560976E+02  0.00000000000E+00 0.  1.
         22    1    3    3    0    0 -0.13282625969E+02 -0.26747647258E+02  0.11655513158E+03  0.12032025384E+03  0.00000000000E+00 0.  1.
</event>
<event>
 7    1  0.5553952E-006  0.1417100E+03  0.7818608E-02  0.1342127E+00
          2   -1    0    0  502    0  0.00000000000E+00  0.00000000000E+00  0.18825030287E+03  0.18825030287E+03  0.00000000000E+00 0. -1.
          1   -1    0    0  501    0 -0.00000000000E+00 -0.00000000000E+00 -0.25016597176E+04  0.25016597176E+04  0.00000000000E+00 0. -1.
         25    2    1    2    0    0 -0.84893114889E+02 -0.69292964471E+02 -0.11104407236E+03  0.19991820099E+03  0.12501258016E+03 0.  0.
          2    1    1    2  501    0 -0.33150173410E+02 -0.22908113209E+02 -0.23069541821E+04  0.23073060729E+04  0.00000000000E+00 0. -1.
          1    1    1    2  502    0  0.11804328830E+03  0.92201077681E+02  0.10458883969E+03  0.18268574664E+03  0.00000000000E+00 0. -1.
         22    1    3    3    0    0  0.32751651840E+02 -0.10724406309E+02 -0.28566838261E+02  0.44763242031E+02  0.00000000000E+00 0.  1.
         22    1    3    3    0    0 -0.11764476673E+03 -0.58568558163E+02 -0.82477234098E+02  0.15515495896E+03  0.00000000000E+00 0.  1.
</event>
<event>
 7    1  0.5553952E-006  0.1604156E+03  0.7818608E-02  0.1367751E+00
          2   -1    0    0  502    0  0.00000000000E+00  0.00000000000E+00  0.24268221284E+04  0.24268221284E+04  0.00000000000E+00 0. -1.
          1   -1    0    0  501    0 -0.00000000000E+00 -0.00000000000E+00 -0.10559484784E+03  0.10559484784E+03  0.00000000000E+00 0. -1.
         25    2    1    2    0    0 -0.89983079787E+02 -0.15521240362E+03  0.73085015189E+03  0.76285894650E+03  0.12499593136E+03 0.  0.
          2    1    1    2  501    0  0.95172887003E+02  0.12703353392E+03 -0.19055570590E+02  0.15987029721E+03  0.00000000000E+00 0. -1.
          1    1    1    2  502    0 -0.51898072167E+01  0.28178869699E+02  0.16094326992E+04  0.16096877325E+04  0.00000000000E+00 0. -1.
         22    1    3    3    0    0 -0.66540208413E+02 -0.13870469744E+02  0.15137793125E+03  0.16593754046E+03  0.00000000000E+00 0.  1.
         22    1    3    3    0    0 -0.23442871374E+02 -0.14134193387E+03  0.57947222064E+03  0.59692140604E+03  0.00000000000E+00 0.  1.
</event>
<event>
 7    1  0.5553952E-006  0.1777865E+03  0.7818608E-02  0.1265939E+00
          2   -1    0    0  502    0  0.00000000000E+00  0.00000000000E+00  0.14830002093E+04  0.14830002093E+04  0.00000000000E+00 0. -1.
          1   -1    0    0  501    0 -0.00000000000E+00 -0.00000000000E+00 -0.12377876496E+04  0.12377876496E+04  0.00000000000E+00 0. -1.
         25    2    1    2    0    0 -0.13122164453E+03  0.20110209682E+03  0.19263932193E+03  0.33225843234E+03  0.12499833668E+03 0.  0.
          2    1    1    2  501    0  0.89569985396E+02 -0.15175006436E+03 -0.11604680159E+04  0.11737703694E+04  0.00000000000E+00 0. -1.
          1    1    1    2  502    0  0.41651659133E+02 -0.49352032464E+02  0.12130412536E+04  0.12147590571E+04  0.00000000000E+00 0. -1.
         22    1    3    3    0    0 -0.11383471450E+03  0.14712421974E+03  0.20219667282E+03  0.27474965470E+03  0.00000000000E+00 0.  1.
         22    1    3    3    0    0 -0.17386930027E+02  0.53977877085E+02 -0.95573508874E+01  0.57508777646E+02  0.00000000000E+00 0.  1.
</event>
<event>
 7    1  0.5553952E-006  0.1390155E+03  0.7818608E-02  0.1374421E+00
          2   -1    0    0  502    0  0.00000000000E+00  0.00000000000E+00  0.90396098146E+03  0.90396098146E+03  0.00000000000E+00 0. -1.
          1   -1    0    0  501    0 -0.00000000000E+00 -0.00000000000E+00 -0.23567507723E+03  0.23567507723E+03  0.00000000000E+00 0. -1.
         25    2    1    2    0    0 -0.27913094450E+02  0.10563350385E+03  0.61204926025E+03  0.63416634749E+03  0.12500032536E+03 0.  0.
          2    1    1    2  501    0  0.29752829031E+02 -0.13686977134E+03 -0.20174328659E+03  0.24559910184E+03  0.00000000000E+00 0. -1.
          1    1    1    2  502    0 -0.18397345814E+01  0.31236267484E+02  0.25797993058E+03  0.25987060936E+03  0.00000000000E+00 0. -1.
         22    1    3    3    0    0  0.42867517922E+02  0.62307999911E+02  0.38659889694E+03  0.39392717355E+03  0.00000000000E+00 0.  1.
         22    1    3    3    0    0 -0.70780612372E+02  0.43325503942E+02  0.22545036331E+03  0.24023917394E+03  0.00000000000E+00 0.  1.
</event>
<event>
 7    1  0.5553952E-006  0.5088156E+02  0.7818608E-02  0.1504347E+00
          2   -1    0    0  502    0  0.00000000000E+00  0.00000000000E+00  0.50570716135E+03  0.50570716135E+03  0.00000000000E+00 0. -1.
          1   -1    0    0  501    0 -0.00000000000E+00 -0.00000000000E+00 -0.11778526216E+04  0.11778526216E+04  0.00000000000E+00 0. -1.
         25    2    1    2    0    0 -0.55381375309E+02 -0.61397775340E+02 -0.18393233653E+03  0.23726189767E+03  0.12500128046E+03 0.  0.
          2    1    1    2  501    0  0.19045530196E+02  0.26068147758E+02 -0.96564456179E+03  0.96618409233E+03  0.00000000000E+00 0. -1.
          1    1    1    2  502    0  0.36335845114E+02  0.35329627583E+02  0.47743143802E+03  0.48011379301E+03  0.00000000000E+00 0. -1.
         22    1    3    3    0    0  0.57332163420E+01 -0.65947402833E+02 -0.15687777413E+03  0.17027203448E+03  0.00000000000E+00 0.  1.
         22    1    3    3    0    0 -0.61114591651E+02  0.45496274929E+01 -0.27054562397E+02  0.66989863185E+02  0.00000000000E+00 0.  1.
</event>
<event>
 7    1  0.5553952E-006  0.9275950E+02  0.7818608E-02  0.1465183E+00
          2   -1    0    0  502    0  0.00000000000E+00  0.00000000000E+00  0.12188315894E+04  0.12188315894E+04  0.00000000000E+00 0. -1.
          1   -1    0    0  501    0 -0.00000000000E+00 -0.00000000000E+00 -0.66064674089E+02  0.66064674089E+02  0.00000000000E+00 0. -1.
         25    2    1    2    0    0  0.40418273165E+02 -0.73191472309E+02  0.70493630675E+02  0.16608640005E+03  0.12499884756E+03 0.  0.
          2    1    1    2  501    0 -0.16132332438E+02 -0.16827517458E+02 -0.79327757006E+01  0.24624102502E+02  0.00000000000E+00 0. -1.
          1    1    1    2  502    0 -0.24285940726E+02  0.90018989767E+02  0.10902060603E+04  0.10941857609E+04  0.00000000000E+00 0. -1.
         22    1    3    3    0    0  0.14142679824E+02 -0.36774197862E+01 -0.34492466399E+02  0.37460232877E+02  0.00000000000E+00 0.  1.
         22    1    3    3    0    0  0.26275593341E+02 -0.69514052523E+02  0.10498609707E+03  0.12862616718E+03  0.00000000000E+00 0.  1.
</event>
<event>
 7    1  0.5553952E-006  0.5839170E+02  0.7818608E-02  0.1428843E+00
          2   -1    0    0  502    0  0.00000000000E+00  0.00000000000E+00  0.22366998956E+04  0.22366998956E+04  0.00000000000E+00 0. -1.
          1   -1    0    0  501    0 -0.00000000000E+00 -0.00000000000E+00 -0.61190453875E+03  0.61190453875E+03  0.00000000000E+00 0. -1.
         25    2    1    2    0    0  0.65271102940E+02  0.39594447655E+02  0.18490628474E+03  0.23589104951E+03  0.12500486366E+03 0.  0.
          2    1    1    2  501    0 -0.74850925649E+01 -0.47875588486E+02 -0.58498973942E+03  0.58699326556E+03  0.00000000000E+00 0. -1.
          1    1    1    2  502    0 -0.57786010375E+02  0.82811408307E+01  0.20248788115E+04  0.20257201193E+04  0.00000000000E+00 0. -1.
         22    1    3    3    0    0 -0.35624297493E+02 -0.43468583772E+01  0.54503629656E+02  0.65258190255E+02  0.00000000000E+00 0. -1.
         22    1    3    3    0    0  0.10089540043E+03  0.43941306033E+02  0.13040265508E+03  0.17063285925E+03  0.00000000000E+00 0. -1.
</event>
<event>
 7    1  0.5553952E-006  0.5358667E+02  0.7818608E-02  0.1538354E+00
          2   -1    0    0  502    0  0.00000000000E+00  0.00000000000E+00  0.58064686388E+03  0.58064686388E+03  0.00000000000E+00 0. -1.
          1   -1    0    0  501    0 -0.00000000000E+00 -0.00000000000E+00 -0.10974665102E+04  0.10974665102E+04  0.00000000000E+00 0. -1.
         25    2    1    2    0    0 -0.37718152146E+02  0.53837311406E+02 -0.11971568927E+03  0.18514149640E+03  0.12499764930E+03 0.  0.
          2    1    1    2  501    0  0.13382873319E+02 -0.51695731745E+02 -0.94401068409E+03  0.94551981558E+03  0.00000000000E+00 0. -1.
          1    1    1    2  502    0  0.24335278827E+02 -0.21415796607E+01  0.54690672707E+03  0.54745206208E+03  0.00000000000E+00 0. -1.
         22    1    3    3    0    0 -0.18849640876E+02 -0.27151678754E+02 -0.91564674065E+02  0.97347892412E+02  0.00000000000E+00 0.  1.
         22    1    3    3    0    0 -0.18868511269E+02  0.80988990160E+02 -0.28151015210E+02  0.87793603993E+02  0.00000000000E+00 0.  1.
</event>
<event>
 7    1  0.5553952E-006  0.1017621E+03  0.7818608E-02  0.1399363E+00
          2   -1    0    0  502    0  0.00000000000E+00  0.00000000000E+00  0.19398676828E+03  0.19398676828E+03  0.00000000000E+00 0. -1.
          1   -1    0    0  501    0 -0.00000000000E+00 -0.00000000000E+00 -0.21671712135E+03  0.21671712135E+03  0.00000000000E+00 0. -1.
         25    2    1    2    0    0  0.11698099123E+03  0.26557324265E+02 -0.93962835242E+02  0.19708665202E+03  0.12499716084E+03 0.  0.
          2    1    1    2  501    0 -0.83743326969E+02 -0.37361322740E+02 -0.37751502829E+02  0.99166472230E+02  0.00000000000E+00 0. -1.
          1    1    1    2  502    0 -0.33237664262E+02  0.10803998476E+02  0.10898398500E+03  0.11445076537E+03  0.00000000000E+00 0. -1.
         22    1    3    3    0    0  0.75003170845E+02  0.18158308668E+02 -0.12310938951E+03  0.14529666754E+03  0.00000000000E+00 0. -1.
         22    1    3    3    0    0  0.41977820386E+02  0.83990155967E+01  0.29146554271E+02  0.51789984487E+02  0.00000000000E+00 0. -1.
</event>
<event>
 7    1  0.5553952E-006  0.9167739E+02  0.7818608E-02  0.1372274E+00
          2   -1    0    0  502    0  0.00000000000E+00  0.00000000000E+00  0.86183156341E+03  0.86183156341E+03  0.00000000000E+00 0. -1.
          1   -1    0    0  501    0 -0.00000000000E+00 -0.00000000000E+00 -0.39935720085E+03  0.39935720085E+03  0.00000000000E+00 0. -1.
         25    2    1    2    0    0  0.44861839147E+02  0.97171326855E+02  0.14743943935E+03  0.22094923136E+03  0.12500129274E+03 0.  0.
          2    1    1    2  501    0  0.26550556767E+02 -0.40340523916E+02 -0.35790015028E+03  0.36114374909E+03  0.00000000000E+00 0. -1.
          1    1    1    2  502    0 -0.71412395914E+02 -0.56830802939E+02  0.67293507350E+03  0.67909578382E+03  0.00000000000E+00 0. -1.
         22    1    3    3    0    0 -0.34529742666E+02  0.48163286250E+02  0.19067663883E+02  0.62254165137E+02  0.00000000000E+00 0.  1.
         22    1    3    3    0    0  0.79391581813E+02  0.49008040606E+02  0.12837177546E+03  0.15869506622E+03  0.00000000000E+00 0.  1.
</event>
<event>
 7    1  0.5553952E-006  0.1247920E+03  0.7818608E-02  0.1408262E+00
          2   -1    0    0  502    0  0.00000000000E+00  0.00000000000E+00  0.10745434329E+04  0.10745434329E+04  0.00000000000E+00 0. -1.
          1   -1    0    0  501    0 -0.00000000000E+00 -0.00000000000E+00 -0.56819604482E+03  0.56819604482E+03  0.00000000000E+00 0. -1.
         25    2    1    2    0    0  0.10276076935E+03 -0.87498186979E+02  0.48187382593E+03  0.51579724292E+03  0.12501481210E+03 0.  0.
          2    1    1    2  501    0 -0.78039431059E+02  0.97238672455E+02 -0.54386965313E+03  0.55797823597E+03  0.00000000000E+00 0. -1.
          1    1    1    2  502    0 -0.24721338296E+02 -0.97404854760E+01  0.56834321524E+03  0.56896399881E+03  0.00000000000E+00 0. -1.
         22    1    3    3    0    0  0.12057642273E+03 -0.10412788804E+03  0.42710665968E+03  0.45585237691E+03  0.00000000000E+00 0.  1.
         22    1    3    3    0    0 -0.17815653374E+02  0.16629701063E+02  0.54767166248E+02  0.59944866014E+02  0.00000000000E+00 0.  1.
</event>
<event>
 7    1  0.5553952E-006  0.1144057E+03  0.7818608E-02  0.1388342E+00
          2   -1    0    0  502    0  0.00000000000E+00  0.00000000000E+00  0.14784178160E+04  0.14784178160E+04  0.00000000000E+00 0. -1.
          1   -1    0    0  501    0 -0.00000000000E+00 -0.00000000000E+00 -0.33150576415E+03  0.33150576415E+03  0.00000000000E+00 0. -1.
         25    2    1    2    0    0  0.50248719722E+02  0.12535500506E+03  0.75456450291E+02  0.19888771215E+03  0.12499534002E+03 0.  0.
          2    1    1    2  501    0 -0.19403214304E+02 -0.11117582928E+03 -0.25776164283E+03  0.28138517063E+03  0.00000000000E+00 0. -1.
          1    1    1    2  502    0 -0.30845505417E+02 -0.14179175783E+02  0.13292172444E+04  0.13296506974E+04  0.00000000000E+00 0. -1.
         22    1    3    3    0    0 -0.26588316873E+02  0.70752325801E+02  0.72265841942E+02  0.10457142111E+03  0.00000000000E+00 0.  1.
         22    1    3    3    0    0  0.76837036594E+02  0.54602679257E+02  0.31906083490E+01  0.94316291044E+02  0.00000000000E+00 0.  1.
</event>
<event>
 7    1  0.5553952E-006  0.4758546E+02  0.7818608E-02  0.1529450E+00
          2   -1    0    0  502    0  0.00000000000E+00  0.00000000000E+00  0.13721909767E+03  0.13721909767E+03  0.00000000000E+00 0. -1.
          1   -1    0    0  501    0 -0.00000000000E+00 -0.00000000000E+00 -0.16070409339E+04  0.16070409339E+04  0.00000000000E+00 0. -1.
         25    2    1    2    0    0 -0.27608781592E+02 -0.36871133464E+02 -0.18763672599E+03  0.23011830930E+03  0.12500068011E+03 0.  0.
          2    1    1    2  501    0  0.27031229047E+02 -0.10952037159E+02 -0.13930736408E+04  0.13933789159E+04  0.00000000000E+00 0. -1.
          1    1    1    2  502    0  0.57755254561E+00  0.47823170623E+02  0.11088853053E+03  0.12076280644E+03  0.00000000000E+00 0. -1.
         22    1    3    3    0    0 -0.60954125543E+02  0.28929908900E+01 -0.16017433824E+03  0.17140476495E+03  0.00000000000E+00 0. -1.
         22    1    3    3    0    0  0.33345343950E+02 -0.39764124354E+02 -0.27462387757E+02  0.58713544350E+02  0.00000000000E+00 0. -1.
</event>
<event>
 7    1  0.5553952E-006  0.5585240E+02  0.7818608E-02  0.1459351E+00
          2   -1    0    0  502    0  0.00000000000E+00  0.00000000000E+00  0.17031407105E+04  0.17031407105E+04  0.00000000000E+00 0. -1.
          1   -1    0    0  501    0 -0.00000000000E+00 -0.00000000000E+00 -0.22685813451E+03  0.22685813451E+03  0.00000000000E+00 0. -1.
         25    2    1    2    0    0 -0.90625391813E+02 -0.18211634311E+02  0.13795190981E+03  0.20784675441E+03  0.12499967453E+03 0.  0.
          2    1    1    2  501    0  0.50428631592E+02  0.22109208871E+02 -0.18768848339E+03  0.19559864723E+03  0.00000000000E+00 0. -1.
          1    1    1    2  502    0  0.40196760221E+02 -0.38975745597E+01  0.15260191496E+04  0.15265534434E+04  0.00000000000E+00 0. -1.
         22    1    3    3    0    0 -0.11646327402E+03  0.36317793195E+01  0.82073441645E+02  0.14252345014E+03  0.00000000000E+00 0. -1.
         22    1    3    3    0    0  0.25837882207E+02 -0.21843413630E+02  0.55878468166E+02  0.65323304269E+02  0.00000000000E+00 0. -1.
</event>
<event>
 7    1  0.5553952E-006  0.1891289E+03  0.7818608E-02  0.1363195E+00
          2   -1    0    0  502    0  0.00000000000E+00  0.00000000000E+00  0.24198319783E+04  0.24198319783E+04  0.00000000000E+00 0. -1.
          1   -1    0    0  501    0 -0.00000000000E+00 -0.00000000000E+00 -0.80140415780E+03  0.80140415780E+03  0.00000000000E+00 0. -1.
         25    2    1    2    0    0  0.64736800191E+02 -0.18425219122E+03  0.66137139977E+03  0.70084011983E+03  0.12500008744E+03 0.  0.
          2    1    1    2  501    0  0.19318797912E+02  0.16248302623E+02 -0.77638985499E+03  0.77680012244E+03  0.00000000000E+00 0. -1.
          1    1    1    2  502    0 -0.84055598103E+02  0.16800388860E+03  0.17334462757E+04  0.17435958938E+04  0.00000000000E+00 0. -1.
         22    1    3    3    0    0  0.34676565686E+02 -0.14667500815E+03  0.29450424630E+03  0.33083042985E+03  0.00000000000E+00 0. -1.
         22    1    3    3    0    0  0.30060234505E+02 -0.37577183069E+02  0.36686715347E+03  0.37000968998E+03  0.00000000000E+00 0. -1.
</event>
<event>
 7    1  0.5553952E-006  0.4964522E+02  0.7818608E-02  0.1460024E+00
          2   -1    0    0  502    0  0.00000000000E+00  0.00000000000E+00  0.29048666023E+03  0.29048666023E+03  0.00000000000E+00 0. -1.
          1   -1    0    0  501    0 -0.00000000000E+00 -0.00000000000E+00 -0.37856941050E+03  0.37856941050E+03  0.00000000000E+00 0. -1.
         25    2    1    2    0    0  0.69722850358E+02 -0.52593333067E+01 -0.11812646284E+03  0.18565460456E+03  0.12499933809E+03 0.  0.
          2    1    1    2  501    0 -0.35174141976E+02  0.34424130229E+02 -0.22197171889E+03  0.22736245290E+03  0.00000000000E+00 0. -1.
          1    1    1    2  502    0 -0.34548708382E+02 -0.29164796923E+02  0.25201543145E+03  0.25603901327E+03  0.00000000000E+00 0. -1.
         22    1    3    3    0    0  0.56553812882E+02 -0.38846762794E+02 -0.13056433285E+03  0.14749389731E+03  0.00000000000E+00 0. -1.
         22    1    3    3    0    0  0.13169037476E+02  0.33587429487E+02  0.12437870011E+02  0.38160707252E+02  0.00000000000E+00 0. -1.
</event>
<event>
 7    1  0.5553952E-006  0.1620174E+03  0.7818608E-02  0.1300765E+00
          2   -1    0    0  502    0  0.00000000000E+00  0.00000000000E+00  0.12254441714E+04  0.12254441714E+04  0.00000000000E+00 0. -1.
          1   -1    0    0  501    0 -0.00000000000E+00 -0.00000000000E+00 -0.13786453208E+04  0.13786453208E+04  0.00000000000E+00 0. -1.
         25    2    1    2    0    0  0.20160324079E+02 -0.12615507958E+03  0.36624198951E+03  0.40752911140E+03  0.12500095592E+03 0.  0.
          2    1    1    2  501    0  0.19314389781E+02 -0.47160821890E+02 -0.13480949494E+04  0.13490578866E+04  0.00000000000E+00 0. -1.
          1    1    1    2  502    0 -0.39474713860E+02  0.17331590147E+03  0.82865181049E+03  0.84750249426E+03  0.00000000000E+00 0. -1.
         22    1    3    3    0    0  0.44634546471E+02 -0.11023241863E+02  0.19079966616E+03  0.19626071233E+03  0.00000000000E+00 0. -1.
         22    1    3    3    0    0 -0.24474222392E+02 -0.11513183772E+03  0.17544232336E+03  0.21126839907E+03  0.00000000000E+00 0. -1.
</event>
<event>
 7    1  0.5553952E-006  0.5211341E+02  0.7818608E-02  0.1469205E+00
          2   -1    0    0  502    0  0.00000000000E+00  0.00000000000E+00  0.69329753737E+03  0.69329753737E+03  0.00000000000E+00 0. -1.
          1   -1    0    0  501    0 -0.00000000000E+00 -0.00000000000E+00 -0.22470293666E+03  0.22470293666E+03  0.00000000000E+00 0. -1.
         25    2    1    2    0    0  0.67001675736E+02 -0.27359299886E+02  0.28397274237E+03  0.31859499790E+03  0.12499799373E+03 0.  0.
          2    1    1    2  501    0 -0.29720895447E+02  0.42691041645E+02 -0.20306851812E+03  0.20962509324E+03  0.00000000000E+00 0. -1.
          1    1    1    2  502    0 -0.37280780290E+02 -0.15331741759E+02  0.38769037646E+03  0.38978038289E+03  0.00000000000E+00 0. -1.
         22    1    3    3    0    0 -0.12333621639E+02 -0.56201031763E+02  0.87117779535E+02  0.10440393529E+03  0.00000000000E+00 0. -1.
         22    1    3    3    0    0  0.79335297375E+02  0.28841731876E+02  0.19685496283E+03  0.21419106261E+03  0.00000000000E+00 0. -1.
</event>
<event>
 7    1  0.6278758E-006  0.9749748E+02  0.7818608E-02  0.1314207E+00
          2   -1    0    0  502    0  0.00000000000E+00  0.00000000000E+00  0.87975321529E+03  0.87975321529E+03  0.00000000000E+00 0. -1.
          1   -1    0    0  501    0 -0.00000000000E+00 -0.00000000000E+00 -0.12890458378E+04  0.12890458378E+04  0.00000000000E+00 0. -1.
         25    2    1    2    0    0 -0.18825075704E+01  0.13129611676E+03 -0.19232885474E+03  0.26430664445E+03  0.12500159929E+03 0.  0.
          2    1    1    2  501    0  0.55649603180E+02 -0.79112078212E+02 -0.10568518547E+04  0.10612687888E+04  0.00000000000E+00 0. -1.
          1    1    1    2  502    0 -0.53767095609E+02 -0.52184038547E+02  0.83988808695E+03  0.84322361983E+03  0.00000000000E+00 0. -1.
         22    1    3    3    0    0  0.55122711200E+02  0.90153206301E+02 -0.14555073340E+03  0.17986419847E+03  0.00000000000E+00 0.  1.
         22    1    3    3    0    0 -0.57005218771E+02  0.41142910458E+02 -0.46778121339E+02  0.84442445986E+02  0.00000000000E+00 0.  1.
</event>
<event>
 7    1  0.5553952E-006  0.1167940E+03  0.7818608E-02  0.1281823E+00
          2   -1    0    0  502    0  0.00000000000E+00  0.00000000000E+00  0.85909446510E+02  0.85909446510E+02  0.00000000000E+00 0. -1.
          1   -1    0    0  501    0 -0.00000000000E+00 -0.00000000000E+00 -0.12380688216E+04  0.12380688216E+04  0.00000000000E+00 0. -1.
         25    2    1    2    0    0 -0.15604446808E+03  0.64414866168E+02 -0.98864854422E+02  0.23215996968E+03  0.12499936433E+03 0.  0.
          2    1    1    2  501    0  0.76578953877E+02 -0.35453041139E+02 -0.96809554865E+03  0.97176655922E+03  0.00000000000E+00 0. -1.
          1    1    1    2  502    0  0.79465514198E+02 -0.28961825029E+02 -0.85198972049E+02  0.12005173924E+03  0.00000000000E+00 0. -1.
         22    1    3    3    0    0 -0.43741728920E+02  0.84063840985E+02 -0.32164104768E+02  0.10007296261E+03  0.00000000000E+00 0.  1.
         22    1    3    3    0    0 -0.11230273915E+03 -0.19648974817E+02 -0.66700749654E+02  0.13208700707E+03  0.00000000000E+00 0.  1.
</event>
<event>
 7    1  0.5553952E-006  0.8179173E+02  0.7818608E-02  0.1419051E+00
          2   -1    0    0  502    0  0.00000000000E+00  0.00000000000E+00  0.87597822778E+03  0.87597822778E+03  0.00000000000E+00 0. -1.
          1   -1    0    0  501    0 -0.00000000000E+00 -0.00000000000E+00 -0.15629019596E+03  0.15629019596E+03  0.00000000000E+00 0. -1.
         25    2    1    2    0    0  0.73998045222E+02 -0.54510671799E+02  0.10522545395E+03  0.18746988832E+03  0.12500175530E+03 0.  0.
          2    1    1    2  501    0 -0.79560433369E+02  0.17644377942E+02 -0.10020465708E+03  0.12915943609E+03  0.00000000000E+00 0. -1.
          1    1    1    2  502    0  0.55623881468E+01  0.36866293857E+02  0.71466723495E+03  0.71563909934E+03  0.00000000000E+00 0. -1.
         22    1    3    3    0    0  0.19191988777E+02 -0.85306481437E+02  0.83642685386E+02  0.12100259099E+03  0.00000000000E+00 0. -1.
         22    1    3    3    0    0  0.54806056445E+02  0.30795809639E+02  0.21582768569E+02  0.66467297323E+02  0.00000000000E+00 0. -1.
</event>
<event>
 7    1  0.5831867E-006  0.5199448E+02  0.7818608E-02  0.1452794E+00
          2   -1    0    0  502    0  0.00000000000E+00  0.00000000000E+00  0.11875340610E+04  0.11875340610E+04  0.00000000000E+00 0. -1.
          1   -1    0    0  501    0 -0.00000000000E+00 -0.00000000000E+00 -0.86358629754E+03  0.86358629754E+03  0.00000000000E+00 0. -1.
         25    2    1    2    0    0 -0.55195357308E+02  0.55317069560E+02 -0.13375072224E+03  0.19904887768E+03  0.12499877741E+03 0.  0.
          2    1    1    2  501    0  0.42182542674E+01 -0.45314235059E+02 -0.69585861108E+03  0.69734523744E+03  0.00000000000E+00 0. -1.
          1    1    1    2  502    0  0.50977103040E+02 -0.10002834500E+02  0.11535570968E+04  0.11547262435E+04  0.00000000000E+00 0. -1.
         22    1    3    3    0    0 -0.77524618691E+02  0.27611436727E+02 -0.27137154437E+02  0.86653811758E+02  0.00000000000E+00 0.  1.
         22    1    3    3    0    0  0.22329261383E+02  0.27705632833E+02 -0.10661356780E+03  0.11239506592E+03  0.00000000000E+00 0.  1.
</event>
<event>
 7    1  0.5553952E-006  0.9143155E+02  0.7818608E-02  0.1404570E+00
          2   -1    0    0  502    0  0.00000000000E+00  0.00000000000E+00  0.67131452220E+03  0.67131452220E+03  0.00000000000E+00 0. -1.
          1   -1    0    0  501    0 -0.00000000000E+00 -0.00000000000E+00 -0.21966436440E+04  0.21966436440E+04  0.00000000000E+00 0. -1.
         25    2    1    2    0    0  0.91447197047E+01 -0.76302923666E+02  0.47119663788E+02  0.15413430378E+03  0.12502543272E+03 0.  0.
          2    1    1    2  501    0  0.37089806114E+02 -0.42413092853E+01 -0.21391940485E+04  0.21395197637E+04  0.00000000000E+00 0. -1.
          1    1    1    2  502    0 -0.46234525818E+02  0.80544232951E+02  0.56674526285E+03  0.57430409872E+03  0.00000000000E+00 0. -1.
         22    1    3    3    0    0  0.59979699750E+02 -0.40851884338E+02 -0.55763649929E+01  0.72784178794E+02  0.00000000000E+00 0. -1.
         22    1    3    3    0    0 -0.50834980046E+02 -0.35451039327E+02  0.52696028781E+02  0.81350124984E+02  0.00000000000E+00 0. -1.
</event>
<event>
 7    1  0.5553952E-006  0.7853526E+02  0.7818608E-02  0.1371550E+00
          2   -1    0    0  502    0  0.00000000000E+00  0.00000000000E+00  0.64886666001E+03  0.64886666001E+03  0.00000000000E+00 0. -1.
          1   -1    0    0  501    0 -0.00000000000E+00 -0.00000000000E+00 -0.56782565803E+03  0.56782565803E+03  0.00000000000E+00 0. -1.
         25    2    1    2    0    0 -0.10576934894E+03 -0.52748757701E+02 -0.28031013592E+03  0.32888834833E+03  0.12499674696E+03 0.  0.
          2    1    1    2  501    0  0.71228412715E+02  0.77673137007E+01 -0.25702879009E+03  0.26682881568E+03  0.00000000000E+00 0. -1.
          1    1    1    2  502    0  0.34540936223E+02  0.44981444000E+02  0.61837992800E+03  0.62097515404E+03  0.00000000000E+00 0. -1.
         22    1    3    3    0    0 -0.13321025405E+03 -0.31802757855E+02 -0.23392425737E+03  0.27106631177E+03  0.00000000000E+00 0. -1.
         22    1    3    3    0    0  0.27440905107E+02 -0.20945999847E+02 -0.46385878557E+02  0.57822036562E+02  0.00000000000E+00 0. -1.
</event>
<event>
 7    1  0.5553952E-006  0.1087760E+03  0.7818608E-02  0.1409270E+00
          2   -1    0    0  502    0  0.00000000000E+00  0.00000000000E+00  0.39981174105E+03  0.39981174105E+03  0.00000000000E+00 0. -1.
          1   -1    0    0  501    0 -0.00000000000E+00 -0.00000000000E+00 -0.10347983404E+04  0.10347983404E+04  0.00000000000E+00 0. -1.
         25    2    1    2    0    0  0.45842869081E+02 -0.11767142082E+03 -0.18373676681E+01  0.17769766370E+03  0.12499980736E+03 0.  0.
          2    1    1    2  501    0  0.12333477444E+02  0.27615131785E+02 -0.93556530508E+03  0.93605403169E+03  0.00000000000E+00 0. -1.
          1    1    1    2  502    0 -0.58176346525E+02  0.90056289039E+02  0.30241607338E+03  0.32085838609E+03  0.00000000000E+00 0. -1.
         22    1    3    3    0    0  0.88344759726E+02 -0.93206652759E+02 -0.53343254444E+01  0.12853299856E+03  0.00000000000E+00 0. -1.
         22    1    3    3    0    0 -0.42501890645E+02 -0.24464768065E+02  0.34969577763E+01  0.49164665142E+02  0.00000000000E+00 0. -1.
</event>
<event>
 7    1  0.5553952E-006  0.2241374E+03  0.7818608E-02  0.1200560E+00
          2   -1    0    0  502    0  0.00000000000E+00  0.00000000000E+00  0.83358287305E+03  0.83358287305E+03  0.00000000000E+00 0. -1.
          1   -1    0    0  501    0 -0.00000000000E+00 -0.00000000000E+00 -0.36463159262E+03  0.36463159262E+03  0.00000000000E+00 0. -1.
         25    2    1    2    0    0 -0.15936291792E+03 -0.47749191522E+02  0.17412793500E+03  0.27133458321E+03  0.12500157360E+03 0.  0.
          2    1    1    2  501    0 -0.97760549851E+02  0.22381183773E+02 -0.27959016043E+03  0.29703316364E+03  0.00000000000E+00 0. -1.
          1    1    1    2  502    0  0.25712346777E+03  0.25368007749E+02  0.57441350586E+03  0.62984671882E+03  0.00000000000E+00 0. -1.
         22    1    3    3    0    0 -0.16864658077E+03 -0.11351377519E+02  0.15427520529E+03  0.22884790134E+03  0.00000000000E+00 0. -1.
         22    1    3    3    0    0  0.92836628525E+01 -0.36397814003E+02  0.19852729702E+02  0.42486681875E+02  0.00000000000E+00 0. -1.
</event>
<event>
 7    1  0.5553952E-006  0.1951307E+03  0.7818608E-02  0.1182912E+00
          2   -1    0    0  502    0  0.00000000000E+00  0.00000000000E+00  0.56787414797E+03  0.56787414797E+03  0.00000000000E+00 0. -1.
          1   -1    0    0  501    0 -0.00000000000E+00 -0.00000000000E+00 -0.95654208056E+03  0.95654208056E+03  0.00000000000E+00 0. -1.
         25    2    1    2    0    0  0.42678777257E+02  0.70054959971E+02 -0.39337176941E+03  0.42082818563E+03  0.12500334960E+03 0.  0.
          2    1    1    2  501    0 -0.49955599277E+02  0.13069380848E+03 -0.52171108780E+03  0.54014710275E+03  0.00000000000E+00 0. -1.
          1    1    1    2  502    0  0.72768220202E+01 -0.20074876845E+03  0.52641492462E+03  0.56344094015E+03  0.00000000000E+00 0. -1.
         22    1    3    3    0    0 -0.46003054839E+01 -0.19328665026E+02 -0.64160324481E+01  0.20878830777E+02  0.00000000000E+00 0.  1.
         22    1    3    3    0    0  0.47279082741E+02  0.89383624997E+02 -0.38695573696E+03  0.39994935485E+03  0.00000000000E+00 0.  1.
</event>
<event>
 7    1  0.5553952E-006  0.1352386E+03  0.7818608E-02  0.1361635E+00
          2   -1    0    0  502    0  0.00000000000E+00  0.00000000000E+00  0.51046120841E+03  0.51046120841E+03  0.00000000000E+00 0. -1.
          1   -1    0    0  501    0 -0.00000000000E+00 -0.00000000000E+00 -0.40098058791E+03  0.40098058791E+03  0.00000000000E+00 0. -1.
         25    2    1    2    0    0  0.15788548673E+03 -0.47167768036E+02  0.51159592874E+02  0.21305967492E+03  0.12499798348E+03 0.  0.
          2    1    1    2  501    0 -0.35760915450E+02 -0.63587726203E+00 -0.30759829426E+03  0.30967072520E+03  0.00000000000E+00 0. -1.
          1    1    1    2  502    0 -0.12212457128E+03  0.47803645298E+02  0.36591932188E+03  0.38871139621E+03  0.00000000000E+00 0. -1.
         22    1    3    3    0    0  0.35260702918E+02 -0.62152047222E+02 -0.14863020276E+02  0.72987009227E+02  0.00000000000E+00 0.  1.
         22    1    3    3    0    0  0.12262478381E+03  0.14984279185E+02  0.66022613150E+02  0.14007266569E+03  0.00000000000E+00 0.  1.
</event>
<event>
 7    1  0.5553952E-006  0.6962613E+02  0.7818608E-02  0.1402801E+00
          2   -1    0    0  502    0  0.00000000000E+00  0.00000000000E+00  0.37746104773E+03  0.37746104773E+03  0.00000000000E+00 0. -1.
          1   -1    0    0  501    0 -0.00000000000E+00 -0.00000000000E+00 -0.40460966169E+03  0.40460966169E+03  0.00000000000E+00 0. -1.
         25    2    1    2    0    0 -0.53165477711E+02 -0.18732789447E+02  0.13611039365E+03  0.19320462873E+03  0.12499801551E+03 0.  0.
          2    1    1    2  501    0  0.30768948554E+02  0.63112417688E+02 -0.36981045571E+03  0.37641689470E+03  0.00000000000E+00 0. -1.
          1    1    1    2  502    0  0.22396529157E+02 -0.44379628241E+02  0.20655144810E+03  0.21244918600E+03  0.00000000000E+00 0. -1.
         22    1    3    3    0    0  0.52801508117E+01 -0.43029802266E+02  0.28281277510E+00  0.43353475740E+02  0.00000000000E+00 0. -1.
         22    1    3    3    0    0 -0.58445628523E+02  0.24297012819E+02  0.13582758087E+03  0.14985115299E+03  0.00000000000E+00 0. -1.
</event>
<event>
 7    1  0.5553952E-006  0.8858619E+02  0.7818608E-02  0.1337052E+00
          2   -1    0    0  502    0  0.00000000000E+00  0.00000000000E+00  0.11700269144E+04  0.11700269144E+04  0.00000000000E+00 0. -1.
          1   -1    0    0  501    0 -0.00000000000E+00 -0.00000000000E+00 -0.32166281189E+03  0.32166281189E+03  0.00000000000E+00 0. -1.
         25    2    1    2    0    0  0.25046225226E+02  0.11143549327E+03 -0.12537944654E+03  0.21068876993E+03  0.12499827840E+03 0.  0.
          2    1    1    2  501    0  0.41515974511E+02 -0.53043534237E+02 -0.14441006365E+03  0.15934697721E+03  0.00000000000E+00 0. -1.
          1    1    1    2  502    0 -0.66562199737E+02 -0.58391959028E+02  0.11181536127E+04  0.11216539791E+04  0.00000000000E+00 0. -1.
         22    1    3    3    0    0  0.41225305647E+02 -0.13337728002E+02 -0.36355332175E+02  0.56560860951E+02  0.00000000000E+00 0. -1.
         22    1    3    3    0    0 -0.16179080421E+02  0.12477322127E+03 -0.89024114367E+02  0.15412790898E+03  0.00000000000E+00 0. -1.
</event>
<event>
 7    1  0.5553952E-006  0.5793230E+02  0.7818608E-02  0.1475620E+00
          2   -1    0    0  502    0  0.00000000000E+00  0.00000000000E+00  0.18948600989E+03  0.18948600989E+03  0.00000000000E+00 0. -1.
          1   -1    0    0  501    0 -0.00000000000E+00 -0.00000000000E+00 -0.10163991621E+03  0.10163991621E+03  0.00000000000E+00 0. -1.
         25    2    1    2    0    0 -0.32555476858E+02 -0.83903162593E+00  0.10154057921E+03  0.16430414437E+03  0.12499919833E+03 0.  0.
          2    1    1    2  501    0  0.54461480937E+02  0.27670577797E+02 -0.48287572629E+02  0.77867858914E+02  0.00000000000E+00 0. -1.
          1    1    1    2  502    0 -0.21906004079E+02 -0.26831546171E+02  0.34593087097E+02  0.48953922821E+02  0.00000000000E+00 0. -1.
         22    1    3    3    0    0  0.32290648344E+02  0.92303356208E+00 -0.11235526246E+02  0.34201973795E+02  0.00000000000E+00 0.  1.
         22    1    3    3    0    0 -0.64846125202E+02 -0.17620651880E+01  0.11277610545E+03  0.13010217058E+03  0.00000000000E+00 0.  1.
</event>
<event>
 7    1  0.5553952E-006  0.1059539E+03  0.7818608E-02  0.1321710E+00
          2   -1    0    0  502    0  0.00000000000E+00  0.00000000000E+00  0.50716577487E+03  0.50716577487E+03  0.00000000000E+00 0. -1.
          1   -1    0    0  501    0 -0.00000000000E+00 -0.00000000000E+00 -0.51910795661E+03  0.51910795661E+03  0.00000000000E+00 0. -1.
         25    2    1    2    0    0  0.12869051458E+03 -0.80025844346E+02 -0.90973919022E+02  0.21648723068E+03  0.12500033120E+03 0.  0.
          2    1    1    2  501    0 -0.64240988083E+02  0.78693131788E+02 -0.35589465619E+03  0.37010879460E+03  0.00000000000E+00 0. -1.
          1    1    1    2  502    0 -0.64449526499E+02  0.13327125574E+01  0.43492639347E+03  0.43967770619E+03  0.00000000000E+00 0. -1.
         22    1    3    3    0    0 -0.15030814366E+02 -0.35300726938E+02  0.38956692251E+01  0.38564788883E+02  0.00000000000E+00 0.  1.
         22    1    3    3    0    0  0.14372132895E+03 -0.44725117408E+02 -0.94869588247E+02  0.17792244180E+03  0.00000000000E+00 0.  1.
</event>
<event>
 7    1  0.5553952E-006  0.1229803E+03  0.7818608E-02  0.1306278E+00
          2   -1    0    0  502    0  0.00000000000E+00  0.00000000000E+00  0.24671710375E+04  0.24671710375E+04  0.00000000000E+00 0. -1.
          1   -1    0    0  501    0 -0.00000000000E+00 -0.00000000000E+00 -0.59766279818E+02  0.59766279818E+02  0.00000000000E+00 0. -1.
         25    2    1    2    0    0  0.12227039962E+03  0.80160261047E+02  0.26752301569E+03  0.32949798624E+03  0.12499856376E+03 0.  0.
          2    1    1    2  501    0 -0.11610465455E+03 -0.16627883757E+02  0.93325866241E+02  0.14988827385E+03  0.00000000000E+00 0. -1.
          1    1    1    2  502    0 -0.61657450642E+01 -0.63532377289E+02  0.20465558758E+04  0.20475510572E+04  0.00000000000E+00 0. -1.
         22    1    3    3    0    0  0.92012808589E+02 -0.11525066858E+02  0.16047899100E+03  0.18534478861E+03  0.00000000000E+00 0. -1.
         22    1    3    3    0    0  0.30257591029E+02  0.91685327904E+02  0.10704402468E+03  0.14415319763E+03  0.00000000000E+00 0. -1.
</event>
<event>
 7    1  0.5553952E-006  0.1028241E+03  0.7818608E-02  0.1349672E+00
          2   -1    0    0  502    0  0.00000000000E+00  0.00000000000E+00  0.13898236343E+04  0.13898236343E+04  0.00000000000E+00 0. -1.
          1   -1    0    0  501    0 -0.00000000000E+00 -0.00000000000E+00 -0.23836902061E+03  0.23836902061E+03  0.00000000000E+00 0. -1.
         25    2    1    2    0    0  0.11566897678E+03 -0.55672854993E+02  0.42051331037E+02  0.18404702765E+03  0.12500485979E+03 0.  0.
          2    1    1    2  501    0 -0.13449303200E+02  0.50283425445E+02 -0.16121569150E+03  0.16941017035E+03  0.00000000000E+00 0. -1.
          1    1    1    2  502    0 -0.10221967358E+03  0.53894295487E+01  0.12706189742E+04  0.12747354569E+04  0.00000000000E+00 0. -1.
         22    1    3    3    0    0  0.65487920765E+02 -0.26529744302E+02  0.85963347439E+02  0.11127529915E+03  0.00000000000E+00 0. -1.
         22    1    3    3    0    0  0.50181056016E+02 -0.29143110692E+02 -0.43912016402E+02  0.72771728495E+02  0.00000000000E+00 0. -1.
</event>
<event>
 7    1  0.7624157E-006  0.7624972E+02  0.7818608E-02  0.1361419E+00
          2   -1    0    0  502    0  0.00000000000E+00  0.00000000000E+00  0.24538584067E+04  0.24538584067E+04  0.00000000000E+00 0. -1.
          1   -1    0    0  501    0 -0.00000000000E+00 -0.00000000000E+00 -0.44645219722E+03  0.44645219722E+03  0.00000000000E+00 0. -1.
         25    2    1    2    0    0  0.54746328276E+02 -0.17791117984E+01 -0.20894170606E+03  0.24955645734E+03  0.12498585189E+03 0.  0.
          2    1    1    2  501    0 -0.25204621450E+02  0.72073549081E+02 -0.20987546915E+03  0.22333289496E+03  0.00000000000E+00 0. -1.
          1    1    1    2  502    0 -0.29541706826E+02 -0.70294437282E+02  0.24262233846E+04  0.24274212516E+04  0.00000000000E+00 0. -1.
         22    1    3    3    0    0 -0.31890240664E+01  0.48805865638E+02 -0.37428179903E+02  0.61587750779E+02  0.00000000000E+00 0.  1.
         22    1    3    3    0    0  0.57935352342E+02 -0.50584977437E+02 -0.17151352616E+03  0.18796870657E+03  0.00000000000E+00 0.  1.
</event>
<event>
 7    1  0.5553952E-006  0.6271287E+02  0.7818608E-02  0.1399703E+00
          2   -1    0    0  502    0  0.00000000000E+00  0.00000000000E+00  0.25539801484E+04  0.25539801484E+04  0.00000000000E+00 0. -1.
          1   -1    0    0  501    0 -0.00000000000E+00 -0.00000000000E+00 -0.49457957172E+03  0.49457957172E+03  0.00000000000E+00 0. -1.
         25    2    1    2    0    0  0.31609790968E+02 -0.22778442207E+02  0.17477841690E+03  0.21838403403E+03  0.12500421989E+03 0.  0.
          2    1    1    2  501    0 -0.39701556684E+02 -0.40282353532E+02 -0.47065471440E+03  0.47404086511E+03  0.00000000000E+00 0. -1.
          1    1    1    2  502    0  0.80917657153E+01  0.63060795739E+02  0.23552768742E+04  0.23561348210E+04  0.00000000000E+00 0. -1.
         22    1    3    3    0    0  0.65604412485E+02  0.22481819925E+02  0.12526035140E+03  0.14317655813E+03  0.00000000000E+00 0. -1.
         22    1    3    3    0    0 -0.33994621517E+02 -0.45260262132E+02  0.49518065494E+02  0.75207475896E+02  0.00000000000E+00 0. -1.
</event>
<event>
 7    1  0.5553952E-006  0.3660750E+03  0.7818608E-02  0.1290157E+00
          2   -1    0    0  502    0  0.00000000000E+00  0.00000000000E+00  0.21102608509E+04  0.21102608509E+04  0.00000000000E+00 0. -1.
          1   -1    0    0  501    0 -0.00000000000E+00 -0.00000000000E+00 -0.21116798354E+04  0.21116798354E+04  0.00000000000E+00 0. -1.
         25    2    1    2    0    0 -0.19911918791E+03 -0.29806659134E+03 -0.12983063207E+04  0.13526703507E+04  0.12500252517E+03 0.  0.
          2    1    1    2  501    0  0.16022245265E+02 -0.19046704510E+02 -0.76989663279E+03  0.77029884752E+03  0.00000000000E+00 0. -1.
          1    1    1    2  502    0  0.18309694264E+03  0.31711329585E+03  0.20667839691E+04  0.20989714881E+04  0.00000000000E+00 0. -1.
         22    1    3    3    0    0 -0.27519447645E+02 -0.11658193687E+03 -0.57822631395E+03  0.59050346159E+03  0.00000000000E+00 0.  1.
         22    1    3    3    0    0 -0.17159974026E+03 -0.18148465447E+03 -0.72008000680E+03  0.76216688911E+03  0.00000000000E+00 0.  1.
</event>
<event>
 7    1  0.5553952E-006  0.1071197E+03  0.7818608E-02  0.1385940E+00
          2   -1    0    0  502    0  0.00000000000E+00  0.00000000000E+00  0.32516486161E+03  0.32516486161E+03  0.00000000000E+00 0. -1.
          1   -1    0    0  501    0 -0.00000000000E+00 -0.00000000000E+00 -0.91134233218E+03  0.91134233218E+03  0.00000000000E+00 0. -1.
         25    2    1    2    0    0 -0.89568027188E+01  0.74145034346E+02  0.57375362224E+01  0.14572278458E+03  0.12499800074E+03 0.  0.
          2    1    1    2  501    0 -0.45007786960E+01 -0.10857564296E+03 -0.83644573494E+03  0.84347518917E+03  0.00000000000E+00 0. -1.
          1    1    1    2  502    0  0.13457581415E+02  0.34430608616E+02  0.24453072815E+03  0.24730922004E+03  0.00000000000E+00 0. -1.
         22    1    3    3    0    0  0.57024981817E+02  0.47379564108E+02 -0.14780966225E+01  0.74154274428E+02  0.00000000000E+00 0.  1.
         22    1    3    3    0    0 -0.65981784536E+02  0.26765470239E+02  0.72156328449E+01  0.71568510149E+02  0.00000000000E+00 0.  1.
</event>
<event>
 7    1  0.5553952E-006  0.9132175E+02  0.7818608E-02  0.1402481E+00
          2   -1    0    0  502    0  0.00000000000E+00  0.00000000000E+00  0.15378953900E+02  0.15378953900E+02  0.00000000000E+00 0. -1.
          1   -1    0    0  501    0 -0.00000000000E+00 -0.00000000000E+00 -0.33791125219E+04  0.33791125219E+04  0.00000000000E+00 0. -1.
         25    2    1    2    0    0 -0.30395759698E+02 -0.10419628832E+03 -0.88259252283E+03  0.89798386729E+03  0.12499878343E+03 0.  0.
          2    1    1    2  501    0 -0.48161568260E+01  0.89918114789E+02 -0.24353098735E+04  0.24369740751E+04  0.00000000000E+00 0. -1.
          1    1    1    2  502    0  0.35211916524E+02  0.14278173529E+02 -0.45831171721E+02  0.59533533458E+02  0.00000000000E+00 0. -1.
         22    1    3    3    0    0 -0.58616037533E+02 -0.21021808225E+02 -0.19242906692E+03  0.20225405329E+03  0.00000000000E+00 0.  1.
         22    1    3    3    0    0  0.28220277835E+02 -0.83174480093E+02 -0.69016345591E+03  0.69572981400E+03  0.00000000000E+00 0.  1.
</event>
<event>
 7    1  0.5553952E-006  0.1008888E+03  0.7818608E-02  0.1404149E+00
          2   -1    0    0  502    0  0.00000000000E+00  0.00000000000E+00  0.15921529572E+04  0.15921529572E+04  0.00000000000E+00 0. -1.
          1   -1    0    0  501    0 -0.00000000000E+00 -0.00000000000E+00 -0.81181850796E+03  0.81181850796E+03  0.00000000000E+00 0. -1.
         25    2    1    2    0    0 -0.58057203228E+02 -0.69572251781E+02  0.24789009695E+03  0.29203726231E+03  0.12500130139E+03 0.  0.
          2    1    1    2  501    0  0.86881943027E+02  0.51645880319E+02 -0.78629175175E+03  0.79276130572E+03  0.00000000000E+00 0. -1.
          1    1    1    2  502    0 -0.28824739799E+02  0.17926371462E+02  0.13187361040E+04  0.13191728971E+04  0.00000000000E+00 0. -1.
         22    1    3    3    0    0 -0.45298541359E+02 -0.94413298324E+02  0.24173370580E+03  0.26344072060E+03  0.00000000000E+00 0. -1.
         22    1    3    3    0    0 -0.12758661869E+02  0.24841046542E+02  0.61563911491E+01  0.28596541713E+02  0.00000000000E+00 0. -1.
</event>
<event>
 7    1  0.5553952E-006  0.3942191E+02  0.7818608E-02  0.1526724E+00
          2   -1    0    0  502    0  0.00000000000E+00  0.00000000000E+00  0.95011536850E+02  0.95011536850E+02  0.00000000000E+00 0. -1.
          1   -1    0    0  501    0 -0.00000000000E+00 -0.00000000000E+00 -0.40986641902E+03  0.40986641902E+03  0.00000000000E+00 0. -1.
         25    2    1    2    0    0 -0.26662437539E+02 -0.27791245358E+02 -0.22582672054E+03  0.26097079199E+03  0.12499923066E+03 0.  0.
          2    1    1    2  501    0 -0.12706588899E+02  0.33517931013E+02 -0.15923076868E+03  0.16321564507E+03  0.00000000000E+00 0. -1.
          1    1    1    2  502    0  0.39369026438E+02 -0.57266856552E+01  0.70202607052E+02  0.80691518812E+02  0.00000000000E+00 0. -1.
         22    1    3    3    0    0  0.35681186783E+02 -0.37273305870E+02 -0.41693049217E+02  0.66338199958E+02  0.00000000000E+00 0. -1.
         22    1    3    3    0    0 -0.62343624322E+02  0.94820605117E+01 -0.18413367132E+03  0.19463259203E+03  0.00000000000E+00 0. -1.
</event>
<event>
 7    1  0.5553952E-006  0.7743791E+02  0.7818608E-02  0.1443588E+00
          2   -1    0    0  502    0  0.00000000000E+00  0.00000000000E+00  0.93632436701E+03  0.93632436701E+03  0.00000000000E+00 0. -1.
          1   -1    0    0  501    0 -0.00000000000E+00 -0.00000000000E+00 -0.80100709008E+03  0.80100709008E+03  0.00000000000E+00 0. -1.
         25    2    1    2    0    0 -0.13998374089E+02  0.10352674327E+03  0.10762604397E+03  0.19525015429E+03  0.12500206542E+03 0.  0.
          2    1    1    2  501    0 -0.10167540788E+02 -0.31086387261E+02 -0.75498266974E+03  0.75569079257E+03  0.00000000000E+00 0. -1.
          1    1    1    2  502    0  0.24165914877E+02 -0.72440356007E+02  0.78267390271E+03  0.78639051024E+03  0.00000000000E+00 0. -1.
         22    1    3    3    0    0  0.11478746866E+02  0.11488195385E+03  0.11837745067E+03  0.16535672281E+03  0.00000000000E+00 0.  1.
         22    1    3    3    0    0 -0.25477120955E+02 -0.11355210585E+02 -0.10751406700E+02  0.29893431479E+02  0.00000000000E+00 0.  1.
</event>
<event>
 7    1  0.5553952E-006  0.6325723E+02  0.7818608E-02  0.1529837E+00
          2   -1    0    0  502    0  0.00000000000E+00  0.00000000000E+00  0.25689968884E+04  0.25689968884E+04  0.00000000000E+00 0. -1.
          1   -1    0    0  501    0 -0.00000000000E+00 -0.00000000000E+00 -0.10307468771E+02  0.10307468771E+02  0.00000000000E+00 0. -1.
         25    2    1    2    0    0 -0.53255868243E+02 -0.29032628057E+02  0.18670064295E+04  0.18721691623E+04  0.12500113471E+03 0.  0.
          2    1    1    2  501    0  0.42057845831E+02  0.47834499635E+02  0.12746776766E+03  0.14249573167E+03  0.00000000000E+00 0. -1.
          1    1    1    2  502    0  0.11198022412E+02 -0.18801871578E+02  0.56421522245E+03  0.56463946313E+03  0.00000000000E+00 0. -1.
         22    1    3    3    0    0 -0.93381779161E+01 -0.15792783922E+02  0.34383620370E+02  0.38972386898E+02  0.00000000000E+00 0.  1.
         22    1    3    3    0    0 -0.43917690327E+02 -0.13239844135E+02  0.18326228091E+04  0.18331967754E+04  0.00000000000E+00 0.  1.
</event>
<event>
 7    1  0.5553952E-006  0.3719046E+02  0.7818608E-02  0.1559138E+00
          2   -1    0    0  502    0  0.00000000000E+00  0.00000000000E+00  0.24994059488E+03  0.24994059488E+03  0.00000000000E+00 0. -1.
          1   -1    0    0  501    0 -0.00000000000E+00 -0.00000000000E+00 -0.27622871344E+03  0.27622871344E+03  0.00000000000E+00 0. -1.
         25    2    1    2    0    0 -0.35420840495E+02 -0.17573497509E+02 -0.33131964776E+02  0.13522568125E+03  0.12499917610E+03 0.  0.
          2    1    1    2  501    0  0.43274174992E+00  0.30790694043E+02 -0.18903464121E+03  0.19152636811E+03  0.00000000000E+00 0. -1.
          1    1    1    2  502    0  0.34988098745E+02 -0.13217196535E+02  0.19587848742E+03  0.19941725896E+03  0.00000000000E+00 0. -1.
         22    1    3    3    0    0  0.14288846889E+02  0.41660600648E+02  0.12054272208E+02  0.45662701084E+02  0.00000000000E+00 0.  1.
         22    1    3    3    0    0 -0.49709687384E+02 -0.59234098157E+02 -0.45186236984E+02  0.89562980171E+02  0.00000000000E+00 0.  1.
</event>
<event>
 7    1  0.5553952E-006  0.4367676E+02  0.7818608E-02  0.1576920E+00
          2   -1    0    0  502    0  0.00000000000E+00  0.00000000000E+00  0.54672877647E+02  0.54672877647E+02  0.00000000000E+00 0. -1.
          1   -1    0    0  501    0 -0.00000000000E+00 -0.00000000000E+00 -0.22046311943E+03  0.22046311943E+03  0.00000000000E+00 0. -1.
         25    2    1    2    0    0  0.88360756441E+01 -0.25937335976E+02 -0.71388082726E+02  0.14653268119E+03  0.12499898668E+03 0.  0.
          2    1    1    2  501    0  0.15199184987E+02 -0.17861828764E+02 -0.68342275796E+02  0.72254597169E+02  0.00000000000E+00 0. -1.
          1    1    1    2  502    0 -0.24035260631E+02  0.43799164740E+02 -0.26059883260E+02  0.56348718717E+02  0.00000000000E+00 0. -1.
         22    1    3    3    0    0 -0.25776504176E+02  0.42489196365E+02 -0.17013227271E+02  0.52528181745E+02  0.00000000000E+00 0. -1.
         22    1    3    3    0    0  0.34612579820E+02 -0.68426532341E+02 -0.54374855455E+02  0.94004499445E+02  0.00000000000E+00 0. -1.
</event>
<event>
 7    1  0.5553952E-006  0.4396851E+03  0.7818608E-02  0.1234119E+00
          2   -1    0    0  502    0  0.00000000000E+00  0.00000000000E+00  0.12401209201E+04  0.12401209201E+04  0.00000000000E+00 0. -1.
          1   -1    0    0  501    0 -0.00000000000E+00 -0.00000000000E+00 -0.37740761969E+03  0.37740761969E+03  0.00000000000E+00 0. -1.
         25    2    1    2    0    0 -0.61274587583E+02  0.42818207569E+03  0.49539248213E+03  0.66942779350E+03  0.12500157732E+03 0.  0.
          2    1    1    2  501    0  0.97025359039E+02 -0.43127888314E+03 -0.12111423454E+03  0.45834926982E+03  0.00000000000E+00 0. -1.
          1    1    1    2  502    0 -0.35750771456E+02  0.30968074462E+01  0.48843505280E+03  0.48975147644E+03  0.00000000000E+00 0. -1.
         22    1    3    3    0    0 -0.33314183146E+02  0.39448933060E+03  0.48178805514E+03  0.62357950321E+03  0.00000000000E+00 0.  1.
         22    1    3    3    0    0 -0.27960404437E+02  0.33692745095E+02  0.13604426989E+02  0.45848290284E+02  0.00000000000E+00 0.  1.
</event>
<event>
 7    1  0.5553952E-006  0.9756838E+02  0.7818608E-02  0.1362725E+00
          2   -1    0    0  502    0  0.00000000000E+00  0.00000000000E+00  0.47578408404E+03  0.47578408404E+03  0.00000000000E+00 0. -1.
          1   -1    0    0  501    0 -0.00000000000E+00 -0.00000000000E+00 -0.88916564120E+03  0.88916564120E+03  0.00000000000E+00 0. -1.
         25    2    1    2    0    0  0.85285159381E+01  0.10124236604E+03 -0.88326310027E+02  0.18370947829E+03  0.12499953242E+03 0.  0.
          2    1    1    2  501    0  0.39261093767E+02 -0.89866372706E+02 -0.74852939739E+03  0.75492625944E+03  0.00000000000E+00 0. -1.
          1    1    1    2  502    0 -0.47789609705E+02 -0.11375993338E+02  0.42347415025E+03  0.42631398751E+03  0.00000000000E+00 0. -1.
         22    1    3    3    0    0  0.66793927468E+02  0.58901718182E+02 -0.48322269644E+02  0.10132069332E+03  0.00000000000E+00 0. -1.
         22    1    3    3    0    0 -0.58265411530E+02  0.42340647862E+02 -0.40004040383E+02  0.82388784971E+02  0.00000000000E+00 0. -1.
</event>
<event>
 7    1  0.5553952E-006  0.6703579E+02  0.7818608E-02  0.1433990E+00
          2   -1    0    0  502    0  0.00000000000E+00  0.00000000000E+00  0.25928457013E+03  0.25928457013E+03  0.00000000000E+00 0. -1.
          1   -1    0    0  501    0 -0.00000000000E+00 -0.00000000000E+00 -0.65416854379E+03  0.65416854379E+03  0.00000000000E+00 0. -1.
         25    2    1    2    0    0  0.61240755504E+02 -0.71138202197E+02  0.17509361378E+03  0.23471787528E+03  0.12499453365E+03 0.  0.
          2    1    1    2  501    0 -0.19649689821E+02  0.35524489998E+02 -0.60972451363E+03  0.61107453083E+03  0.00000000000E+00 0. -1.
          1    1    1    2  502    0 -0.41591065683E+02  0.35613712200E+02  0.39746926187E+02  0.67660707820E+02  0.00000000000E+00 0. -1.
         22    1    3    3    0    0  0.39679002381E+02 -0.57651619167E+02  0.19188010199E+03  0.20424521038E+03  0.00000000000E+00 0. -1.
         22    1    3    3    0    0  0.21561753124E+02 -0.13486583030E+02 -0.16786488210E+02  0.30472664899E+02  0.00000000000E+00 0. -1.
</event>
<event>
 7    1  0.5553952E-006  0.7766595E+02  0.7818608E-02  0.1381981E+00
          2   -1    0    0  502    0  0.00000000000E+00  0.00000000000E+00  0.15157496989E+04  0.15157496989E+04  0.00000000000E+00 0. -1.
          1   -1    0    0  501    0 -0.00000000000E+00 -0.00000000000E+00 -0.11855327472E+03  0.11855327472E+03  0.00000000000E+00 0. -1.
         25    2    1    2    0    0  0.19796244970E+02  0.97477051049E+02  0.34254339211E+02  0.16337644141E+03  0.12499934023E+03 0.  0.
          2    1    1    2  501    0 -0.46507741910E+02 -0.24678205432E+02 -0.39826558247E+02  0.66016199699E+02  0.00000000000E+00 0. -1.
          1    1    1    2  502    0  0.26711496940E+02 -0.72798845618E+02  0.14027686433E+04  0.14049103326E+04  0.00000000000E+00 0. -1.
         22    1    3    3    0    0  0.26847103184E+02  0.46878836433E+01 -0.37154837543E+02  0.46078467371E+02  0.00000000000E+00 0. -1.
         22    1    3    3    0    0 -0.70508582142E+01  0.92789167406E+02  0.71409176754E+02  0.11729797404E+03  0.00000000000E+00 0. -1.
</event>
<event>
 7    1  0.5553952E-006  0.9154074E+02  0.7818608E-02  0.1379922E+00
          2   -1    0    0  502    0  0.00000000000E+00  0.00000000000E+00  0.85221400073E+03  0.85221400073E+03  0.00000000000E+00 0. -1.
          1   -1    0    0  501    0 -0.00000000000E+00 -0.00000000000E+00 -0.19713796219E+04  0.19713796219E+04  0.00000000000E+00 0. -1.
         25    2    1    2    0    0 -0.29456343719E+02 -0.64447136232E+02  0.18651673963E+02  0.14489322614E+03  0.12500020994E+03 0.  0.
          2    1    1    2  501    0 -0.44620141647E+02  0.85119505521E+01 -0.19051913177E+04  0.19057327639E+04  0.00000000000E+00 0. -1.
          1    1    1    2  502    0  0.74076485366E+02  0.55935185680E+02  0.76737402252E+03  0.77296763264E+03  0.00000000000E+00 0. -1.
         22    1    3    3    0    0 -0.26075398928E+02  0.19888235423E+02  0.45711547282E+02  0.56258456186E+02  0.00000000000E+00 0.  1.
         22    1    3    3    0    0 -0.33809447906E+01 -0.84335371655E+02 -0.27059873319E+02  0.88634769949E+02  0.00000000000E+00 0.  1.
</event>
<event>
 7    1  0.5553952E-006  0.1032741E+03  0.7818608E-02  0.1275155E+00
          2   -1    0    0  502    0  0.00000000000E+00  0.00000000000E+00  0.94447881640E+02  0.94447881640E+02  0.00000000000E+00 0. -1.
          1   -1    0    0  501    0 -0.00000000000E+00 -0.00000000000E+00 -0.55446595084E+03  0.55446595084E+03  0.00000000000E+00 0. -1.
         25    2    1    2    0    0 -0.41736344438E+01 -0.24275612474E+02 -0.29324518154E+03  0.31972625446E+03  0.12500166684E+03 0.  0.
          2    1    1    2  501    0  0.72740896754E+02 -0.71078977763E+02 -0.18424129989E+03  0.21044789314E+03  0.00000000000E+00 0. -1.
          1    1    1    2  502    0 -0.68567262310E+02  0.95354590237E+02  0.17468412227E+02  0.11873968488E+03  0.00000000000E+00 0. -1.
         22    1    3    3    0    0 -0.44784264320E+02  0.33935841912E+02 -0.11992753472E+03  0.13243823195E+03  0.00000000000E+00 0. -1.
         22    1    3    3    0    0  0.40610629876E+02 -0.58211454386E+02 -0.17331764682E+03  0.18728802252E+03  0.00000000000E+00 0. -1.
</event>
<event>
 7    1  0.5553952E-006  0.2056257E+03  0.7818608E-02  0.1189431E+00
          2   -1    0    0  502    0  0.00000000000E+00  0.00000000000E+00  0.12067575041E+04  0.12067575041E+04  0.00000000000E+00 0. -1.
          1   -1    0    0  501    0 -0.00000000000E+00 -0.00000000000E+00 -0.12541705758E+04  0.12541705758E+04  0.00000000000E+00 0. -1.
         25    2    1    2    0    0 -0.55763199542E+02 -0.11207233115E+03 -0.11068505825E+03  0.20867753560E+03  0.12500155964E+03 0.  0.
          2    1    1    2  501    0  0.10782707145E+02  0.22707969762E+03 -0.10793213532E+04  0.11030031910E+04  0.00000000000E+00 0. -1.
          1    1    1    2  502    0  0.44980492398E+02 -0.11500736648E+03  0.11425933397E+04  0.11492473533E+04  0.00000000000E+00 0. -1.
         22    1    3    3    0    0  0.32807855067E+02 -0.15165204490E+02  0.12301558795E+01  0.36164237373E+02  0.00000000000E+00 0. -1.
         22    1    3    3    0    0 -0.88571054609E+02 -0.96907126655E+02 -0.11191521413E+03  0.17251329823E+03  0.00000000000E+00 0. -1.
</event>
<event>
 7    1  0.5553952E-006  0.6348091E+02  0.7818608E-02  0.1472383E+00
          2   -1    0    0  502    0  0.00000000000E+00  0.00000000000E+00  0.14406695017E+04  0.14406695017E+04  0.00000000000E+00 0. -1.
          1   -1    0    0  501    0 -0.00000000000E+00 -0.00000000000E+00 -0.21950819220E+02  0.21950819220E+02  0.00000000000E+00 0. -1.
         25    2    1    2    0    0  0.41029515679E+02 -0.40545038314E+02  0.43738847442E+03  0.45854168805E+03  0.12499792332E+03 0.  0.
          2    1    1    2  501    0 -0.23787676817E+02 -0.21921092490E+02  0.15136351611E+02  0.35714100919E+02  0.00000000000E+00 0. -1.
          1    1    1    2  502    0 -0.17241838862E+02  0.62466130804E+02  0.96619385648E+03  0.96836453198E+03  0.00000000000E+00 0. -1.
         22    1    3    3    0    0  0.17336756159E+02  0.13546154507E+02  0.55584765466E+01  0.22692687755E+02  0.00000000000E+00 0.  1.
         22    1    3    3    0    0  0.23692759520E+02 -0.54091192821E+02  0.43182999788E+03  0.43584900030E+03  0.00000000000E+00 0.  1.
</event>
<event>
 7    1  0.5553952E-006  0.4159573E+02  0.7818608E-02  0.1534086E+00
          2   -1    0    0  502    0  0.00000000000E+00  0.00000000000E+00  0.11200997555E+04  0.11200997555E+04  0.00000000000E+00 0. -1.
          1   -1    0    0  501    0 -0.00000000000E+00 -0.00000000000E+00 -0.41932203200E+03  0.41932203200E+03  0.00000000000E+00 0. -1.
         25    2    1    2    0    0 -0.64707101989E+02 -0.30919088256E+02  0.66275006660E+02  0.15861407852E+03  0.12499220108E+03 0.  0.
          2    1    1    2  501    0  0.32894045181E+02  0.24980352798E+02 -0.37174856916E+03  0.37403614117E+03  0.00000000000E+00 0. -1.
          1    1    1    2  502    0  0.31813056808E+02  0.59387354581E+01  0.10062512860E+04  0.10067715678E+04  0.00000000000E+00 0. -1.
         22    1    3    3    0    0 -0.84796983203E+02  0.31878190804E+01  0.41604880782E+01  0.84958814798E+02  0.00000000000E+00 0. -1.
         22    1    3    3    0    0  0.20089881214E+02 -0.34106907337E+02  0.62114518582E+02  0.73655263722E+02  0.00000000000E+00 0. -1.
</event>
<event>
 7    1  0.5553952E-006  0.6219392E+02  0.7818608E-02  0.1434109E+00
          2   -1    0    0  502    0  0.00000000000E+00  0.00000000000E+00  0.27269386866E+04  0.27269386866E+04  0.00000000000E+00 0. -1.
          1   -1    0    0  501    0 -0.00000000000E+00 -0.00000000000E+00 -0.32682273769E+03  0.32682273769E+03  0.00000000000E+00 0. -1.
         25    2    1    2    0    0  0.11894868925E+02  0.11355978722E+02  0.20814976776E+04  0.20853125552E+04  0.12500170077E+03 0.  0.
          2    1    1    2  501    0  0.54620850773E+02  0.29742999220E+02 -0.31953097910E+03  0.32552746420E+03  0.00000000000E+00 0. -1.
          1    1    1    2  502    0 -0.66515719699E+02 -0.41098977942E+02  0.63814925051E+03  0.64292140491E+03  0.00000000000E+00 0. -1.
         22    1    3    3    0    0  0.31062679267E+02  0.34123211016E+02  0.29670683470E+03  0.30027359080E+03  0.00000000000E+00 0. -1.
         22    1    3    3    0    0 -0.19167810342E+02 -0.22767232294E+02  0.17847908428E+04  0.17850389644E+04  0.00000000000E+00 0. -1.
</event>
<event>
 7    1  0.5553952E-006  0.8842928E+02  0.7818608E-02  0.1327645E+00
          2   -1    0    0  502    0  0.00000000000E+00  0.00000000000E+00  0.16689000665E+04  0.16689000665E+04  0.00000000000E+00 0. -1.
          1   -1    0    0  501    0 -0.00000000000E+00 -0.00000000000E+00 -0.30183408618E+03  0.30183408618E+03  0.00000000000E+00 0. -1.
         25    2    1    2    0    0 -0.64364723618E+01 -0.29862214475E+02  0.11381354810E+04  0.11453865922E+04  0.12499956998E+03 0.  0.
          2    1    1    2  501    0 -0.55057940609E+02  0.69712353987E+02 -0.28895609141E+03  0.30230251717E+03  0.00000000000E+00 0. -1.
          1    1    1    2  502    0  0.61494412970E+02 -0.39850139512E+02  0.51788659075E+03  0.52304504331E+03  0.00000000000E+00 0. -1.
         22    1    3    3    0    0  0.14745902730E+00 -0.12410709339E+02  0.11175067172E+04  0.11175756397E+04  0.00000000000E+00 0.  1.
         22    1    3    3    0    0 -0.65839313891E+01 -0.17451505136E+02  0.20628763773E+02  0.27810952498E+02  0.00000000000E+00 0.  1.
</event>
<event>
 7    1  0.5553952E-006  0.7286073E+02  0.7818608E-02  0.1415477E+00
          2   -1    0    0  502    0  0.00000000000E+00  0.00000000000E+00  0.56908932616E+03  0.56908932616E+03  0.00000000000E+00 0. -1.
          1   -1    0    0  501    0 -0.00000000000E+00 -0.00000000000E+00 -0.40564594106E+02  0.40564594106E+02  0.00000000000E+00 0. -1.
         25    2    1    2    0    0 -0.65528956982E+01  0.40563009179E+02  0.38925135370E+03  0.41088851628E+03  0.12499783315E+03 0.  0.
          2    1    1    2  501    0  0.40930308355E+02 -0.66434317140E+02  0.34146726979E+02  0.85175158346E+02  0.00000000000E+00 0. -1.
          1    1    1    2  502    0 -0.34377412656E+02  0.25871307961E+02  0.10512665137E+03  0.11359024564E+03  0.00000000000E+00 0. -1.
         22    1    3    3    0    0 -0.13336314823E+00  0.14079909912E+02  0.38257302711E+03  0.38283205551E+03  0.00000000000E+00 0.  1.
         22    1    3    3    0    0 -0.64195325500E+01  0.26483099267E+02  0.66783265910E+01  0.28056460771E+02  0.00000000000E+00 0.  1.
</event>
<event>
 7    1  0.5553952E-006  0.1095621E+03  0.7818608E-02  0.1286908E+00
          2   -1    0    0  502    0  0.00000000000E+00  0.00000000000E+00  0.12358624564E+04  0.12358624564E+04  0.00000000000E+00 0. -1.
          1   -1    0    0  501    0 -0.00000000000E+00 -0.00000000000E+00 -0.81496385717E+03  0.81496385717E+03  0.00000000000E+00 0. -1.
         25    2    1    2    0    0  0.27685351268E+02  0.10466511569E+03  0.10615057383E+03  0.19650897822E+03  0.12500627616E+03 0.  0.
          2    1    1    2  501    0 -0.96565933132E+02 -0.53611814079E+02 -0.76411326381E+03  0.77205458743E+03  0.00000000000E+00 0. -1.
          1    1    1    2  502    0  0.68880581863E+02 -0.51053301611E+02  0.10788612892E+04  0.10822627479E+04  0.00000000000E+00 0. -1.
         22    1    3    3    0    0 -0.22426431363E+02  0.38919654955E+02  0.10459065043E+03  0.11382832917E+03  0.00000000000E+00 0.  1.
         22    1    3    3    0    0  0.50111782631E+02  0.65745460735E+02  0.15599234015E+01  0.82680649047E+02  0.00000000000E+00 0.  1.
</event>
<event>
 7    1  0.5553952E-006  0.1211970E+03  0.7818608E-02  0.1350698E+00
          2   -1    0    0  502    0  0.00000000000E+00  0.00000000000E+00  0.55585101262E+03  0.55585101262E+03  0.00000000000E+00 0. -1.
          1   -1    0    0  501    0 -0.00000000000E+00 -0.00000000000E+00 -0.31168237651E+03  0.31168237651E+03  0.00000000000E+00 0. -1.
         25    2    1    2    0    0 -0.39770879053E+02 -0.72496582766E+02  0.47282589486E+03  0.49601514056E+03  0.12501686079E+03 0.  0.
          2    1    1    2  501    0  0.77665845649E+02  0.94411314024E+02 -0.27911737796E+03  0.30471624583E+03  0.00000000000E+00 0. -1.
          1    1    1    2  502    0 -0.37894966596E+02 -0.21914731258E+02  0.50460119203E+02  0.66802002735E+02  0.00000000000E+00 0. -1.
         22    1    3    3    0    0  0.43692054099E+02 -0.36473561899E+02  0.22353668230E+03  0.23066851680E+03  0.00000000000E+00 0. -1.
         22    1    3    3    0    0 -0.83462933152E+02 -0.36023020867E+02  0.24928921256E+03  0.26534662376E+03  0.00000000000E+00 0. -1.
</event>
<event>
 7    1  0.5553952E-006  0.4466144E+02  0.7818608E-02  0.1569656E+00
          2   -1    0    0  502    0  0.00000000000E+00  0.00000000000E+00  0.73814152933E+03  0.73814152933E+03  0.00000000000E+00 0. -1.
          1   -1    0    0  501    0 -0.00000000000E+00 -0.00000000000E+00 -0.54300308207E+02  0.54300308207E+02  0.00000000000E+00 0. -1.
         25    2    1    2    0    0 -0.43427312225E+02 -0.46019159378E+01  0.37003033394E+03  0.39300705476E+03  0.12499995193E+03 0.  0.
          2    1    1    2  501    0  0.40560933470E+02 -0.19224291949E+02 -0.30513222483E+02  0.54275403924E+02  0.00000000000E+00 0. -1.
          1    1    1    2  502    0  0.28663787549E+01  0.23826207887E+02  0.34432410967E+03  0.34515937886E+03  0.00000000000E+00 0. -1.
         22    1    3    3    0    0  0.48836591091E+01  0.35269312446E+02  0.28595261726E+03  0.28816084717E+03  0.00000000000E+00 0.  1.
         22    1    3    3    0    0 -0.48310971334E+02 -0.39871228384E+02  0.84077716680E+02  0.10484620759E+03  0.00000000000E+00 0.  1.
</event>
<event>
 7    1  0.5553952E-006  0.1375552E+03  0.7818608E-02  0.1217326E+00
          2   -1    0    0  502    0  0.00000000000E+00  0.00000000000E+00  0.13501431458E+04  0.13501431458E+04  0.00000000000E+00 0. -1.
          1   -1    0    0  501    0 -0.00000000000E+00 -0.00000000000E+00 -0.11067290589E+03  0.11067290589E+03  0.00000000000E+00 0. -1.
         25    2    1    2    0    0 -0.94604352763E+02  0.16339734859E+03  0.22038749676E+03  0.31598108890E+03  0.12499889091E+03 0.  0.
          2    1    1    2  501    0  0.13297392243E+03 -0.31208556482E+02  0.22061627467E+02  0.13835733971E+03  0.00000000000E+00 0. -1.
          1    1    1    2  502    0 -0.38369569672E+02 -0.13218879211E+03  0.99702111572E+03  0.10064776231E+04  0.00000000000E+00 0. -1.
         22    1    3    3    0    0  0.13308406623E+02  0.37154346153E+02  0.10921422992E+03  0.11612625518E+03  0.00000000000E+00 0.  1.
         22    1    3    3    0    0 -0.10791275939E+03  0.12624300244E+03  0.11117326683E+03  0.19985483372E+03  0.00000000000E+00 0.  1.
</event>
<event>
 7    1  0.5553952E-006  0.6001005E+02  0.7818608E-02  0.1443104E+00
          2   -1    0    0  502    0  0.00000000000E+00  0.00000000000E+00  0.96324107323E+03  0.96324107323E+03  0.00000000000E+00 0. -1.
          1   -1    0    0  501    0 -0.00000000000E+00 -0.00000000000E+00 -0.41764208843E+03  0.41764208843E+03  0.00000000000E+00 0. -1.
         25    2    1    2    0    0 -0.57688884054E+02 -0.36550133615E+02 -0.87850206754E+02  0.16734831736E+03  0.12499552347E+03 0.  0.
          2    1    1    2  501    0  0.60131691741E+02 -0.57372786462E+01 -0.28640516327E+03  0.29270574689E+03  0.00000000000E+00 0. -1.
          1    1    1    2  502    0 -0.24428076862E+01  0.42287412261E+02  0.91985435482E+03  0.92082909740E+03  0.00000000000E+00 0. -1.
         22    1    3    3    0    0 -0.13174586808E+02 -0.71388734415E+01  0.32452860406E+02  0.35745229054E+02  0.00000000000E+00 0. -1.
         22    1    3    3    0    0 -0.44514297247E+02 -0.29411260174E+02 -0.12030306716E+03  0.13160308831E+03  0.00000000000E+00 0. -1.
</event>
<event>
 7    1  0.5553952E-006  0.9329696E+02  0.7818608E-02  0.1356595E+00
          2   -1    0    0  502    0  0.00000000000E+00  0.00000000000E+00  0.27913531222E+03  0.27913531222E+03  0.00000000000E+00 0. -1.
          1   -1    0    0  501    0 -0.00000000000E+00 -0.00000000000E+00 -0.74977375877E+03  0.74977375877E+03  0.00000000000E+00 0. -1.
         25    2    1    2    0    0 -0.12641496776E+03  0.63767823021E+01 -0.29705040962E+03  0.34624465295E+03  0.12500002565E+03 0.  0.
          2    1    1    2  501    0  0.39093813585E+02 -0.37383631067E+02 -0.41789165610E+03  0.42137785700E+03  0.00000000000E+00 0. -1.
          1    1    1    2  502    0  0.87321154172E+02  0.31006848765E+02  0.24430361917E+03  0.26128656104E+03  0.00000000000E+00 0. -1.
         22    1    3    3    0    0 -0.13759748624E+03  0.38196628336E+02 -0.25580788002E+03  0.29296710074E+03  0.00000000000E+00 0. -1.
         22    1    3    3    0    0  0.11182518484E+02 -0.31819846034E+02 -0.41242529603E+02  0.53277552209E+02  0.00000000000E+00 0. -1.
</event>
<event>
 7    1  0.8632409E-006  0.6573797E+02  0.7818608E-02  0.1387427E+00
          2   -1    0    0  502    0  0.00000000000E+00  0.00000000000E+00  0.17118688792E+04  0.17118688792E+04  0.00000000000E+00 0. -1.
          1   -1    0    0  501    0 -0.00000000000E+00 -0.00000000000E+00 -0.33490278501E+03  0.33490278501E+03  0.00000000000E+00 0. -1.
         25    2    1    2    0    0  0.14674306092E+02  0.30876063228E+01 -0.50471482125E+02  0.13563763862E+03  0.12500131972E+03 0.  0.
          2    1    1    2  501    0  0.83107565908E+01  0.58935798841E+02 -0.23751965608E+03  0.24486339883E+03  0.00000000000E+00 0. -1.
          1    1    1    2  502    0 -0.22985062683E+02 -0.62023405163E+02  0.16649572324E+04  0.16662706267E+04  0.00000000000E+00 0. -1.
         22    1    3    3    0    0  0.53806781932E+02 -0.28032295029E+02  0.50996839406E+01  0.60885023796E+02  0.00000000000E+00 0.  1.
         22    1    3    3    0    0 -0.39132475840E+02  0.31119901351E+02 -0.55571166065E+02  0.74752614826E+02  0.00000000000E+00 0.  1.
</event>
<event>
 7    1  0.5553952E-006  0.5459304E+02  0.7818608E-02  0.1515864E+00
          2   -1    0    0  502    0  0.00000000000E+00  0.00000000000E+00  0.11789274792E+04  0.11789274792E+04  0.00000000000E+00 0. -1.
          1   -1    0    0  501    0 -0.00000000000E+00 -0.00000000000E+00 -0.16281732858E+03  0.16281732858E+03  0.00000000000E+00 0. -1.
         25    2    1    2    0    0 -0.34445215100E+01  0.46837859762E+02  0.43798528458E+03  0.45788829306E+03  0.12499971833E+03 0.  0.
          2    1    1    2  501    0 -0.27828158194E+02 -0.34362827639E+00 -0.15051451682E+03  0.15306581670E+03  0.00000000000E+00 0. -1.
          1    1    1    2  502    0  0.31272679704E+02 -0.46494231486E+02  0.72863938288E+03  0.73079069804E+03  0.00000000000E+00 0. -1.
         22    1    3    3    0    0  0.32592550901E+02  0.61278235882E+02  0.39017804693E+03  0.39630317293E+03  0.00000000000E+00 0. -1.
         22    1    3    3    0    0 -0.36037072411E+02 -0.14440376120E+02  0.47807237646E+02  0.61585120133E+02  0.00000000000E+00 0. -1.
</event>
<event>
 7    1  0.5553952E-006  0.5609199E+02  0.7818608E-02  0.1432006E+00
          2   -1    0    0  502    0  0.00000000000E+00  0.00000000000E+00  0.12063484737E+04  0.12063484737E+04  0.00000000000E+00 0. -1.
          1   -1    0    0  501    0 -0.00000000000E+00 -0.00000000000E+00 -0.34785353411E+03  0.34785353411E+03  0.00000000000E+00 0. -1.
         25    2    1    2    0    0 -0.93269013832E+01  0.15721973343E+01  0.11858699458E+03  0.17256413555E+03  0.12500417073E+03 0.  0.
          2    1    1    2  501    0 -0.45434949654E+02 -0.19004456133E+02 -0.31819076887E+03  0.32197961022E+03  0.00000000000E+00 0. -1.
          1    1    1    2  502    0  0.54761851037E+02  0.17432258799E+02  0.10580987139E+04  0.10596582620E+04  0.00000000000E+00 0. -1.
         22    1    3    3    0    0  0.25808240176E+02 -0.43936607796E+02  0.99839342989E+02  0.11209096830E+03  0.00000000000E+00 0. -1.
         22    1    3    3    0    0 -0.35135141559E+02  0.45508805130E+02  0.18747651591E+02  0.60473167247E+02  0.00000000000E+00 0. -1.
</event>
<event>
 7    1  0.5553952E-006  0.8546288E+02  0.7818608E-02  0.1342526E+00
          2   -1    0    0  502    0  0.00000000000E+00  0.00000000000E+00  0.54886614788E+03  0.54886614788E+03  0.00000000000E+00 0. -1.
          1   -1    0    0  501    0 -0.00000000000E+00 -0.00000000000E+00 -0.47204743580E+03  0.47204743580E+03  0.00000000000E+00 0. -1.
         25    2    1    2    0    0 -0.33288854548E+02  0.13581896401E+02 -0.47860008820E+02  0.13857823415E+03  0.12498292199E+03 0.  0.
          2    1    1    2  501    0  0.89953812225E+02  0.21385784232E+02 -0.37092671335E+03  0.38227695036E+03  0.00000000000E+00 0. -1.
          1    1    1    2  502    0 -0.56664957677E+02 -0.34967680633E+02  0.49560543425E+03  0.50005839916E+03  0.00000000000E+00 0. -1.
         22    1    3    3    0    0 -0.88834909463E+01  0.68922156223E+02 -0.27953402055E+02  0.74903756356E+02  0.00000000000E+00 0.  1.
         22    1    3    3    0    0 -0.24405363601E+02 -0.55340259822E+02 -0.19906606765E+02  0.63674477796E+02  0.00000000000E+00 0.  1.
</event>
<event>
 7    1  0.5553952E-006  0.1501396E+03  0.7818608E-02  0.1308603E+00
          2   -1    0    0  502    0  0.00000000000E+00  0.00000000000E+00  0.61396763576E+03  0.61396763576E+03  0.00000000000E+00 0. -1.
          1   -1    0    0  501    0 -0.00000000000E+00 -0.00000000000E+00 -0.88361178566E+03  0.88361178566E+03  0.00000000000E+00 0. -1.
         25    2    1    2    0    0  0.10268064356E+03 -0.81035997491E+02 -0.40373081373E+03  0.44241772456E+03  0.12499890241E+03 0.  0.
          2    1    1    2  501    0 -0.10240443534E+03  0.13222368632E+03 -0.44418634701E+03  0.47462751971E+03  0.00000000000E+00 0. -1.
          1    1    1    2  502    0 -0.27620822092E+00 -0.51187688829E+02  0.57827301083E+03  0.58053417714E+03  0.00000000000E+00 0. -1.
         22    1    3    3    0    0 -0.11066203097E+02  0.12849987535E+02 -0.56206542178E+01  0.17865463455E+02  0.00000000000E+00 0.  1.
         22    1    3    3    0    0  0.11374684666E+03 -0.93885985026E+02 -0.39811015951E+03  0.42455226111E+03  0.00000000000E+00 0.  1.
</event>
<event>
 7    1  0.5553952E-006  0.1560021E+03  0.7818608E-02  0.1343221E+00
          2   -1    0    0  502    0  0.00000000000E+00  0.00000000000E+00  0.28952287623E+03  0.28952287623E+03  0.00000000000E+00 0. -1.
          1   -1    0    0  501    0 -0.00000000000E+00 -0.00000000000E+00 -0.16339783867E+04  0.16339783867E+04  0.00000000000E+00 0. -1.
         25    2    1    2    0    0  0.25147878602E+02 -0.12052751461E+03 -0.74373247916E+03  0.76414682802E+03  0.12499230635E+03 0.  0.
          2    1    1    2  501    0 -0.75536894160E+01 -0.35464100603E+02 -0.85756879953E+03  0.85833502001E+03  0.00000000000E+00 0. -1.
          1    1    1    2  502    0 -0.17594189186E+02  0.15599161522E+03  0.25684576820E+03  0.30101941491E+03  0.00000000000E+00 0. -1.
         22    1    3    3    0    0 -0.11166286634E+01 -0.44588808816E+02 -0.55322454570E+02  0.71063230372E+02  0.00000000000E+00 0.  1.
         22    1    3    3    0    0  0.26264507266E+02 -0.75938705796E+02 -0.68841002459E+03  0.69308359765E+03  0.00000000000E+00 0.  1.
</event>
<event>
 7    1  0.5553952E-006  0.1280141E+03  0.7818608E-02  0.1285534E+00
          2   -1    0    0  502    0  0.00000000000E+00  0.00000000000E+00  0.76377354778E+02  0.76377354778E+02  0.00000000000E+00 0. -1.
          1   -1    0    0  501    0 -0.00000000000E+00 -0.00000000000E+00 -0.38047134860E+04  0.38047134860E+04  0.00000000000E+00 0. -1.
         25    2    1    2    0    0  0.58752948061E+02  0.80619369550E+02 -0.40134463598E+03  0.43203517729E+03  0.12500194372E+03 0.  0.
          2    1    1    2  501    0  0.67551411565E+02 -0.31025183338E+02 -0.33116666368E+04  0.33125008179E+04  0.00000000000E+00 0. -1.
          1    1    1    2  502    0 -0.12630435963E+03 -0.49594186213E+02 -0.15324858424E+02  0.13655484558E+03  0.00000000000E+00 0. -1.
         22    1    3    3    0    0  0.82093671593E+02  0.38618151935E+02 -0.14365881159E+03  0.16990758288E+03  0.00000000000E+00 0.  1.
         22    1    3    3    0    0 -0.23340723532E+02  0.42001217615E+02 -0.25768582439E+03  0.26212759440E+03  0.00000000000E+00 0.  1.
</event>
<event>
 7    1  0.5553952E-006  0.1040984E+03  0.7818608E-02  0.1390456E+00
          2   -1    0    0  502    0  0.00000000000E+00  0.00000000000E+00  0.25408262548E+03  0.25408262548E+03  0.00000000000E+00 0. -1.
          1   -1    0    0  501    0 -0.00000000000E+00 -0.00000000000E+00 -0.24721172092E+04  0.24721172092E+04  0.00000000000E+00 0. -1.
         25    2    1    2    0    0 -0.57673277767E+02  0.12126823960E+03 -0.84101597771E+03  0.86079346509E+03  0.12500128744E+03 0.  0.
          2    1    1    2  501    0  0.33436175418E+02 -0.93735440682E+02 -0.16182977203E+04  0.16213549341E+04  0.00000000000E+00 0. -1.
          1    1    1    2  502    0  0.24237102349E+02 -0.27532798917E+02  0.24127911434E+03  0.24405143548E+03  0.00000000000E+00 0. -1.
         22    1    3    3    0    0  0.20271748975E+02  0.76357378709E+02 -0.56478337135E+03  0.57028207902E+03  0.00000000000E+00 0. -1.
         22    1    3    3    0    0 -0.77945026742E+02  0.44910860890E+02 -0.27623260636E+03  0.29051138607E+03  0.00000000000E+00 0. -1.
</event>
<event>
 7    1  0.5553952E-006  0.1272645E+03  0.7818608E-02  0.1304585E+00
          2   -1    0    0  502    0  0.00000000000E+00  0.00000000000E+00  0.25636660462E+03  0.25636660462E+03  0.00000000000E+00 0. -1.
          1   -1    0    0  501    0 -0.00000000000E+00 -0.00000000000E+00 -0.10013072209E+04  0.10013072209E+04  0.00000000000E+00 0. -1.
         25    2    1    2    0    0  0.18901354036E+02 -0.75302912183E+02 -0.74085821560E+02  0.16474524960E+03  0.12499799416E+03 0.  0.
          2    1    1    2  501    0  0.40157922837E+02 -0.48079323775E+02 -0.85846409422E+03  0.86074669979E+03  0.00000000000E+00 0. -1.
          1    1    1    2  502    0 -0.59059276873E+02  0.12338223596E+03  0.18760929951E+03  0.23218187612E+03  0.00000000000E+00 0. -1.
         22    1    3    3    0    0 -0.42882322223E+02 -0.57042152507E+02 -0.70353684299E+02  0.10021148445E+03  0.00000000000E+00 0. -1.
         22    1    3    3    0    0  0.61783676258E+02 -0.18260759676E+02 -0.37321372611E+01  0.64533765150E+02  0.00000000000E+00 0. -1.
</event>
<event>
 7    1  0.5553952E-006  0.1527421E+03  0.7818608E-02  0.1301860E+00
          2   -1    0    0  502    0  0.00000000000E+00  0.00000000000E+00  0.13881032776E+04  0.13881032776E+04  0.00000000000E+00 0. -1.
          1   -1    0    0  501    0 -0.00000000000E+00 -0.00000000000E+00 -0.10244394602E+04  0.10244394602E+04  0.00000000000E+00 0. -1.
         25    2    1    2    0    0 -0.13967106280E+03  0.11913539890E+03  0.13245876304E+03  0.25859599191E+03  0.12500125626E+03 0.  0.
          2    1    1    2  501    0  0.13704884486E+03 -0.65684095060E+02 -0.95475745744E+03  0.96677742462E+03  0.00000000000E+00 0. -1.
          1    1    1    2  502    0  0.26222179433E+01 -0.53451303845E+02  0.11859625118E+04  0.11871693212E+04  0.00000000000E+00 0. -1.
         22    1    3    3    0    0 -0.12529140958E+02 -0.30229128081E+01 -0.21139084744E+02  0.24758398147E+02  0.00000000000E+00 0.  1.
         22    1    3    3    0    0 -0.12714192184E+03  0.12215831171E+03  0.15359784779E+03  0.23383759376E+03  0.00000000000E+00 0.  1.
</event>
<event>
 7    1  0.5553952E-006  0.5261925E+02  0.7818608E-02  0.1536315E+00
          2   -1    0    0  502    0  0.00000000000E+00  0.00000000000E+00  0.11025125052E+04  0.11025125052E+04  0.00000000000E+00 0. -1.
          1   -1    0    0  501    0 -0.00000000000E+00 -0.00000000000E+00 -0.11976406933E+02  0.11976406933E+02  0.00000000000E+00 0. -1.
         25    2    1    2    0    0  0.16067722506E+02 -0.32656689641E+02  0.52215007428E+03  0.53813572296E+03  0.12499890067E+03 0.  0.
          2    1    1    2  501    0 -0.19985862045E+02  0.57562339614E+02  0.26471760826E+03  0.27163996346E+03  0.00000000000E+00 0. -1.
          1    1    1    2  502    0  0.39181395395E+01 -0.24905649973E+02  0.30366841571E+03  0.30471322571E+03  0.00000000000E+00 0. -1.
         22    1    3    3    0    0  0.13662107409E+02 -0.63331976287E+02  0.13475810378E+03  0.14952370693E+03  0.00000000000E+00 0. -1.
         22    1    3    3    0    0  0.24056150970E+01  0.30675286647E+02  0.38739197050E+03  0.38861201603E+03  0.00000000000E+00 0. -1.
</event>
<event>
 7    1  0.5553952E-006  0.9394039E+02  0.7818608E-02  0.1410437E+00
          2   -1    0    0  502    0  0.00000000000E+00  0.00000000000E+00  0.24119916808E+04  0.24119916808E+04  0.00000000000E+00 0. -1.
          1   -1    0    0  501    0 -0.00000000000E+00 -0.00000000000E+00 -0.53366863993E+02  0.53366863993E+02  0.00000000000E+00 0. -1.
         25    2    1    2    0    0  0.44004317379E+01 -0.98011636999E+02  0.58674002150E+03  0.60787822301E+03  0.12500574543E+03 0.  0.
          2    1    1    2  501    0  0.29224144043E+02  0.89428410024E+02  0.92855368762E+01  0.94539474874E+02  0.00000000000E+00 0. -1.
          1    1    1    2  502    0 -0.33624575781E+02  0.85832269749E+01  0.17625992584E+04  0.17629408469E+04  0.00000000000E+00 0. -1.
         22    1    3    3    0    0 -0.54888427151E+02 -0.18122322082E+02  0.17542488737E+03  0.18470259636E+03  0.00000000000E+00 0. -1.
         22    1    3    3    0    0  0.59288858889E+02 -0.79889314917E+02  0.41131513414E+03  0.42317562666E+03  0.00000000000E+00 0. -1.
</event>
<event>
 7    1  0.5553952E-006  0.3617715E+03  0.7818608E-02  0.1262920E+00
          2   -1    0    0  502    0  0.00000000000E+00  0.00000000000E+00  0.28256084590E+04  0.28256084590E+04  0.00000000000E+00 0. -1.
          1   -1    0    0  501    0 -0.00000000000E+00 -0.00000000000E+00 -0.19300158927E+04  0.19300158927E+04  0.00000000000E+00 0. -1.
         25    2    1    2    0    0 -0.68313948577E+02  0.34530860028E+03 -0.31901048865E+03  0.49122133959E+03  0.12500355034E+03 0.  0.
          2    1    1    2  501    0  0.29206885836E+02  0.14671816447E+02 -0.15127574374E+04  0.15131104945E+04  0.00000000000E+00 0. -1.
          1    1    1    2  502    0  0.39107062742E+02 -0.35998041673E+03  0.27273604923E+04  0.27512925176E+04  0.00000000000E+00 0. -1.
         22    1    3    3    0    0 -0.44515325508E+01  0.43744151329E+02 -0.11088894955E+03  0.11928841540E+03  0.00000000000E+00 0. -1.
         22    1    3    3    0    0 -0.63862416026E+02  0.30156444895E+03 -0.20812153910E+03  0.37193292418E+03  0.00000000000E+00 0. -1.
</event>
<event>
 7    1  0.5553952E-006  0.8386943E+02  0.7818608E-02  0.1422868E+00
          2   -1    0    0  502    0  0.00000000000E+00  0.00000000000E+00  0.36976012511E+03  0.36976012511E+03  0.00000000000E+00 0. -1.
          1   -1    0    0  501    0 -0.00000000000E+00 -0.00000000000E+00 -0.43808409419E+03  0.43808409419E+03  0.00000000000E+00 0. -1.
         25    2    1    2    0    0 -0.33852496046E+02  0.86041212870E+02 -0.13542199620E+03  0.20618771791E+03  0.12500070465E+03 0.  0.
          2    1    1    2  501    0 -0.24265170309E+02 -0.25650908003E+02 -0.26081881894E+03  0.26319806968E+03  0.00000000000E+00 0. -1.
          1    1    1    2  502    0  0.58117666355E+02 -0.60390304867E+02  0.32791684606E+03  0.33845843171E+03  0.00000000000E+00 0. -1.
         22    1    3    3    0    0  0.31544046102E+02 -0.79859561214E+01 -0.55189621342E+01  0.33003958592E+02  0.00000000000E+00 0.  1.
         22    1    3    3    0    0 -0.65396542149E+02  0.94027168991E+02 -0.12990303406E+03  0.17318375932E+03  0.00000000000E+00 0.  1.
</event>
<event>
 7    1  0.5553952E-006  0.1042832E+03  0.7818608E-02  0.1277306E+00
          2   -1    0    0  502    0  0.00000000000E+00  0.00000000000E+00  0.54145830458E+03  0.54145830458E+03  0.00000000000E+00 0. -1.
          1   -1    0    0  501    0 -0.00000000000E+00 -0.00000000000E+00 -0.73211740776E+03  0.73211740776E+03  0.00000000000E+00 0. -1.
         25    2    1    2    0    0  0.90593746300E+01  0.16929741923E+03 -0.90324068183E+02  0.22918696658E+03  0.12499815970E+03 0.  0.
          2    1    1    2  501    0 -0.58753641418E+02 -0.79264607933E+02 -0.56241492031E+03  0.57100386254E+03  0.00000000000E+00 0. -1.
          1    1    1    2  502    0  0.49694266788E+02 -0.90032811298E+02  0.46207988531E+03  0.47338488323E+03  0.00000000000E+00 0. -1.
         22    1    3    3    0    0  0.60218489970E+02  0.13803680384E+03 -0.61677853171E+02  0.16274084712E+03  0.00000000000E+00 0. -1.
         22    1    3    3    0    0 -0.51159115340E+02  0.31260615393E+02 -0.28646215011E+02  0.66446119462E+02  0.00000000000E+00 0. -1.
</event>
<event>
 7    1  0.5553952E-006  0.1504559E+03  0.7818608E-02  0.1240253E+00
          2   -1    0    0  502    0  0.00000000000E+00  0.00000000000E+00  0.10494718485E+04  0.10494718485E+04  0.00000000000E+00 0. -1.
          1   -1    0    0  501    0 -0.00000000000E+00 -0.00000000000E+00 -0.40361138781E+03  0.40361138781E+03  0.00000000000E+00 0. -1.
         25    2    1    2    0    0 -0.75741644082E+02  0.21610680417E+03  0.11300311026E+03  0.28430884344E+03  0.12499147200E+03 0.  0.
          2    1    1    2  501    0  0.82879864832E+01 -0.14431980446E+03 -0.29846848001E+03  0.33163282443E+03  0.00000000000E+00 0. -1.
          1    1    1    2  502    0  0.67453657599E+02 -0.71786999715E+02  0.83132583048E+03  0.83714156848E+03  0.00000000000E+00 0. -1.
         22    1    3    3    0    0 -0.54153439880E+02  0.20580550382E+02  0.99464265561E+00  0.57940861392E+02  0.00000000000E+00 0.  1.
         22    1    3    3    0    0 -0.21588204202E+02  0.19552625379E+03  0.11200846760E+03  0.22636798205E+03  0.00000000000E+00 0.  1.
</event>
<event>
 7    1  0.5553952E-006  0.5220574E+02  0.7818608E-02  0.1501943E+00
          2   -1    0    0  502    0  0.00000000000E+00  0.00000000000E+00  0.72241588390E+03  0.72241588390E+03  0.00000000000E+00 0. -1.
          1   -1    0    0  501    0 -0.00000000000E+00 -0.00000000000E+00 -0.17451938949E+03  0.17451938949E+03  0.00000000000E+00 0. -1.
         25    2    1    2    0    0  0.12290893225E+01  0.25094186854E+02  0.28607074186E+02  0.13066856287E+03  0.12499871901E+03 0.  0.
          2    1    1    2  501    0 -0.21269019886E+02 -0.50026025091E+02 -0.11708513255E+03  0.12908873947E+03  0.00000000000E+00 0. -1.
          1    1    1    2  502    0  0.20039930563E+02  0.24931838237E+02  0.63637455278E+03  0.63717797106E+03  0.00000000000E+00 0. -1.
         22    1    3    3    0    0 -0.13640768284E+01 -0.48345151191E+02  0.30465500612E+02  0.57159960434E+02  0.00000000000E+00 0. -1.
         22    1    3    3    0    0  0.25931661509E+01  0.73439338045E+02 -0.18584264260E+01  0.73508602435E+02  0.00000000000E+00 0. -1.
</event>
<event>
 7    1  0.5553952E-006  0.9138259E+02  0.7818608E-02  0.1393176E+00
          2   -1    0    0  502    0  0.00000000000E+00  0.00000000000E+00  0.60306032979E+03  0.60306032979E+03  0.00000000000E+00 0. -1.
          1   -1    0    0  501    0 -0.00000000000E+00 -0.00000000000E+00 -0.81862847467E+03  0.81862847467E+03  0.00000000000E+00 0. -1.
         25    2    1    2    0    0 -0.13627937859E+02 -0.54558598917E+02 -0.25834158862E+03  0.29245008903E+03  0.12499726700E+03 0.  0.
          2    1    1    2  501    0 -0.32378299801E+02 -0.24963300116E+02 -0.53885270841E+03  0.54040148224E+03  0.00000000000E+00 0. -1.
          1    1    1    2  502    0  0.46006237660E+02  0.79521899033E+02  0.58162615215E+03  0.58883723319E+03  0.00000000000E+00 0. -1.
         22    1    3    3    0    0  0.12179917954E+02 -0.88070517043E+02 -0.21099175461E+03  0.22895913803E+03  0.00000000000E+00 0.  1.
         22    1    3    3    0    0 -0.25807855814E+02  0.33511918126E+02 -0.47349834007E+02  0.63490950999E+02  0.00000000000E+00 0.  1.
</event>
<event>
 7    1  0.5553952E-006  0.9828514E+02  0.7818608E-02  0.1475949E+00
          2   -1    0    0  502    0  0.00000000000E+00  0.00000000000E+00  0.12650937610E+04  0.12650937610E+04  0.00000000000E+00 0. -1.
          1   -1    0    0  501    0 -0.00000000000E+00 -0.00000000000E+00 -0.68238394236E+03  0.68238394236E+03  0.00000000000E+00 0. -1.
         25    2    1    2    0    0 -0.45642966029E+02  0.68409337451E+02  0.54073649424E+02  0.15909511631E+03  0.12499671465E+03 0.  0.
          2    1    1    2  501    0  0.43750268913E+02 -0.88690374125E+02 -0.62590105962E+03  0.63366568861E+03  0.00000000000E+00 0. -1.
          1    1    1    2  502    0  0.18926971157E+01  0.20281036674E+02  0.11545372288E+04  0.11547168984E+04  0.00000000000E+00 0. -1.
         22    1    3    3    0    0 -0.88483686797E+02  0.36192419380E+02  0.28876442069E+02  0.99865424229E+02  0.00000000000E+00 0. -1.
         22    1    3    3    0    0  0.42840720768E+02  0.32216918071E+02  0.25197207354E+02  0.59229692084E+02  0.00000000000E+00 0. -1.
</event>
<event>
 7    1  0.5553952E-006  0.6615710E+02  0.7818608E-02  0.1479119E+00
          2   -1    0    0  502    0  0.00000000000E+00  0.00000000000E+00  0.14978717116E+04  0.14978717116E+04  0.00000000000E+00 0. -1.
          1   -1    0    0  501    0 -0.00000000000E+00 -0.00000000000E+00 -0.21757878571E+04  0.21757878571E+04  0.00000000000E+00 0. -1.
         25    2    1    2    0    0  0.41114835559E+02 -0.24376073320E+02  0.63725828073E+03  0.65115914910E+03  0.12500199375E+03 0.  0.
          2    1    1    2  501    0  0.27864150114E+02  0.99540991537E+01 -0.21672819171E+04  0.21674838876E+04  0.00000000000E+00 0. -1.
          1    1    1    2  502    0 -0.68978985673E+02  0.14421974167E+02  0.85210749088E+03  0.85501653190E+03  0.00000000000E+00 0. -1.
         22    1    3    3    0    0  0.70824134634E+02 -0.39685597182E+02  0.25896826817E+03  0.27139559427E+03  0.00000000000E+00 0.  1.
         22    1    3    3    0    0 -0.29709299075E+02  0.15309523862E+02  0.37829001256E+03  0.37976355483E+03  0.00000000000E+00 0.  1.
</event>
<event>
 7    1  0.5553952E-006  0.8721731E+02  0.7818608E-02  0.1348756E+00
          2   -1    0    0  502    0  0.00000000000E+00  0.00000000000E+00  0.58634149901E+03  0.58634149901E+03  0.00000000000E+00 0. -1.
          1   -1    0    0  501    0 -0.00000000000E+00 -0.00000000000E+00 -0.52975981801E+03  0.52975981801E+03  0.00000000000E+00 0. -1.
         25    2    1    2    0    0 -0.15968242638E+02  0.76899750328E+02  0.13810480283E+03  0.20215333484E+03  0.12499791138E+03 0.  0.
          2    1    1    2  501    0 -0.45848970209E+02 -0.74989168485E+02 -0.49151782244E+03  0.49931480375E+03  0.00000000000E+00 0. -1.
          1    1    1    2  502    0  0.61817212847E+02 -0.19105818421E+01  0.40999470061E+03  0.41463317843E+03  0.00000000000E+00 0. -1.
         22    1    3    3    0    0 -0.56536379703E+02  0.17892392268E+02  0.11050542393E+03  0.12541111852E+03  0.00000000000E+00 0. -1.
         22    1    3    3    0    0  0.40568137064E+02  0.59007358060E+02  0.27599378903E+02  0.76742216321E+02  0.00000000000E+00 0. -1.
</event>
<event>
 7    1  0.5553952E-006  0.1536735E+03  0.7818608E-02  0.1314958E+00
          2   -1    0    0  502    0  0.00000000000E+00  0.00000000000E+00  0.23293376237E+04  0.23293376237E+04  0.00000000000E+00 0. -1.
          1   -1    0    0  501    0 -0.00000000000E+00 -0.00000000000E+00 -0.12820902709E+04  0.12820902709E+04  0.00000000000E+00 0. -1.
         25    2    1    2    0    0 -0.11529293547E+03 -0.92971739191E+02  0.11574206746E+04  0.11735350432E+04  0.12500269825E+03 0.  0.
          2    1    1    2  501    0  0.25509773528E+02 -0.39732107791E+02 -0.12680773693E+04  0.12689561077E+04  0.00000000000E+00 0. -1.
          1    1    1    2  502    0  0.89783161942E+02  0.13270384698E+03  0.11579040476E+04  0.11689367436E+04  0.00000000000E+00 0. -1.
         22    1    3    3    0    0 -0.15652851784E+02 -0.50948594213E+02  0.75370398314E+03  0.75558617326E+03  0.00000000000E+00 0.  1.
         22    1    3    3    0    0 -0.99640083686E+02 -0.42023144977E+02  0.40371669141E+03  0.41794886998E+03  0.00000000000E+00 0.  1.
</event>
<event>
 7    1  0.5553952E-006  0.2185731E+03  0.7818608E-02  0.1197567E+00
          2   -1    0    0  502    0  0.00000000000E+00  0.00000000000E+00  0.11721180622E+04  0.11721180622E+04  0.00000000000E+00 0. -1.
          1   -1    0    0  501    0 -0.00000000000E+00 -0.00000000000E+00 -0.21983277298E+03  0.21983277298E+03  0.00000000000E+00 0. -1.
         25    2    1    2    0    0  0.13292131613E+03  0.14566137649E+02  0.57773446976E+03  0.60603846491E+03  0.12500101903E+03 0.  0.
          2    1    1    2  501    0 -0.22525977421E+03  0.37987996439E+02 -0.13503611128E+03  0.26536730224E+03  0.00000000000E+00 0. -1.
          1    1    1    2  502    0  0.92338458075E+02 -0.52554134088E+02  0.50958693080E+03  0.52054506807E+03  0.00000000000E+00 0. -1.
         22    1    3    3    0    0  0.87588264585E+02 -0.46749741745E+02  0.23851208036E+03  0.25835103043E+03  0.00000000000E+00 0.  1.
         22    1    3    3    0    0  0.45333051546E+02  0.61315879395E+02  0.33922238940E+03  0.34768743448E+03  0.00000000000E+00 0.  1.
</event>
<event>
 7    1  0.5553952E-006  0.6122794E+02  0.7818608E-02  0.1424873E+00
          2   -1    0    0  502    0  0.00000000000E+00  0.00000000000E+00  0.28540073601E+02  0.28540073601E+02  0.00000000000E+00 0. -1.
          1   -1    0    0  501    0 -0.00000000000E+00 -0.00000000000E+00 -0.37438473346E+04  0.37438473346E+04  0.00000000000E+00 0. -1.
         25    2    1    2    0    0 -0.10919396969E+02  0.29431739907E+02 -0.17279469837E+03  0.21556685774E+03  0.12500240728E+03 0.  0.
          2    1    1    2  501    0  0.57885825072E+02 -0.21503845993E+02 -0.34669420932E+04  0.34674919843E+04  0.00000000000E+00 0. -1.
          1    1    1    2  502    0 -0.46966428103E+02 -0.79278939139E+01 -0.75570469505E+02  0.89328566158E+02  0.00000000000E+00 0. -1.
         22    1    3    3    0    0  0.30239440038E+02 -0.12539609698E+02  0.32599399949E+00  0.32737926282E+02  0.00000000000E+00 0. -1.
         22    1    3    3    0    0 -0.41158837007E+02  0.41971349605E+02 -0.17312069237E+03  0.18282893146E+03  0.00000000000E+00 0. -1.
</event>
<event>
 7    1  0.5553952E-006  0.8839402E+02  0.7818608E-02  0.1372491E+00
          2   -1    0    0  502    0  0.00000000000E+00  0.00000000000E+00  0.25359143968E+04  0.25359143968E+04  0.00000000000E+00 0. -1.
          1   -1    0    0  501    0 -0.00000000000E+00 -0.00000000000E+00 -0.24833484133E+03  0.24833484133E+03  0.00000000000E+00 0. -1.
         25    2    1    2    0    0  0.36650107457E+02 -0.13457255754E+02  0.62181844463E+03  0.63545850505E+03  0.12500002180E+03 0.  0.
          2    1    1    2  501    0 -0.83770093601E+02  0.30175203112E+02 -0.23296802548E+03  0.24940343293E+03  0.00000000000E+00 0. -1.
          1    1    1    2  502    0  0.47119986144E+02 -0.16717947359E+02  0.18987291363E+04  0.18993873002E+04  0.00000000000E+00 0. -1.
         22    1    3    3    0    0  0.10037327340E+01  0.26358961847E+02  0.51819552576E+03  0.51886646188E+03  0.00000000000E+00 0. -1.
         22    1    3    3    0    0  0.35646374723E+02 -0.39816217601E+02  0.10362291887E+03  0.11659204317E+03  0.00000000000E+00 0. -1.
</event>
<event>
 7    1  0.5553952E-006  0.7001558E+02  0.7818608E-02  0.1418291E+00
          2   -1    0    0  502    0  0.00000000000E+00  0.00000000000E+00  0.22242229970E+04  0.22242229970E+04  0.00000000000E+00 0. -1.
          1   -1    0    0  501    0 -0.00000000000E+00 -0.00000000000E+00 -0.71956226542E+02  0.71956226542E+02  0.00000000000E+00 0. -1.
         25    2    1    2    0    0  0.36545960872E+02  0.93163051858E+01  0.69780192017E+03  0.70991570882E+03  0.12502157028E+03 0.  0.
          2    1    1    2  501    0  0.22744264594E+02  0.37443687120E+02 -0.57570268859E+02  0.72344088449E+02  0.00000000000E+00 0. -1.
          1    1    1    2  502    0 -0.59290225466E+02 -0.46759992306E+02  0.15120351191E+04  0.15139194263E+04  0.00000000000E+00 0. -1.
         22    1    3    3    0    0  0.45603507811E+02  0.26186250799E+02  0.11126407127E+03  0.12306540217E+03  0.00000000000E+00 0.  1.
         22    1    3    3    0    0 -0.90575469389E+01 -0.16869945613E+02  0.58653784890E+03  0.58685030665E+03  0.00000000000E+00 0.  1.
</event>
<event>
 7    1  0.5553952E-006  0.8282558E+02  0.7818608E-02  0.1387837E+00
          2   -1    0    0  502    0  0.00000000000E+00  0.00000000000E+00  0.39755788986E+04  0.39755788986E+04  0.00000000000E+00 0. -1.
          1   -1    0    0  501    0 -0.00000000000E+00 -0.00000000000E+00 -0.48207531172E+02  0.48207531172E+02  0.00000000000E+00 0. -1.
         25    2    1    2    0    0 -0.11756910570E+03 -0.40335443096E+02  0.15691183853E+04  0.15789890762E+04  0.12499821276E+03 0.  0.
          2    1    1    2  501    0  0.70502430632E+02  0.41600117152E+02 -0.41114022526E+01  0.81963809700E+02  0.00000000000E+00 0. -1.
          1    1    1    2  502    0  0.47066675071E+02 -0.12646740562E+01  0.23623643844E+04  0.23628335439E+04  0.00000000000E+00 0. -1.
         22    1    3    3    0    0 -0.12581781517E+03 -0.59218797147E+02  0.15098611136E+04  0.15162511570E+04  0.00000000000E+00 0.  1.
         22    1    3    3    0    0  0.82487094693E+01  0.18883354051E+02  0.59257271663E+02  0.62737919260E+02  0.00000000000E+00 0.  1.
</event>
<event>
 7    1  0.5553952E-006  0.7562399E+02  0.7818608E-02  0.1407020E+00
          2   -1    0    0  502    0  0.00000000000E+00  0.00000000000E+00  0.11471865132E+04  0.11471865132E+04  0.00000000000E+00 0. -1.
          1   -1    0    0  501    0 -0.00000000000E+00 -0.00000000000E+00 -0.23632249646E+03  0.23632249646E+03  0.00000000000E+00 0. -1.
         25    2    1    2    0    0 -0.53739710557E+02  0.17934201824E+01 -0.57054374033E+02  0.14754755537E+03  0.12499562654E+03 0.  0.
          2    1    1    2  501    0  0.74784306821E+02  0.37160573425E+02 -0.12051927462E+03  0.14662365539E+03  0.00000000000E+00 0. -1.
          1    1    1    2  502    0 -0.21044596264E+02 -0.38953993607E+02  0.10884376654E+04  0.10893377989E+04  0.00000000000E+00 0. -1.
         22    1    3    3    0    0 -0.54247048054E+02  0.24315615156E+02 -0.89864484363E+02  0.10774793229E+03  0.00000000000E+00 0. -1.
         22    1    3    3    0    0  0.50733749691E+00 -0.22522194974E+02  0.32810110330E+02  0.39799623084E+02  0.00000000000E+00 0. -1.
</event>
<event>
 7    1  0.5553952E-006  0.1188765E+03  0.7818608E-02  0.1347342E+00
          2   -1    0    0  502    0  0.00000000000E+00  0.00000000000E+00  0.12284703898E+03  0.12284703898E+03  0.00000000000E+00 0. -1.
          1   -1    0    0  501    0 -0.00000000000E+00 -0.00000000000E+00 -0.20590224587E+04  0.20590224587E+04  0.00000000000E+00 0. -1.
         25    2    1    2    0    0  0.65405592201E+02  0.14284548025E+03 -0.95505428996E+03  0.97592849410E+03  0.12500002448E+03 0.  0.
          2    1    1    2  501    0 -0.35662443028E+02 -0.28941197284E+02 -0.10620759870E+04  0.10630685796E+04  0.00000000000E+00 0. -1.
          1    1    1    2  502    0 -0.29743149173E+02 -0.11390428297E+03  0.80954857285E+02  0.14287242393E+03  0.00000000000E+00 0. -1.
         22    1    3    3    0    0  0.46492006016E+02  0.93427029754E+01 -0.47301671864E+03  0.47538785096E+03  0.00000000000E+00 0.  1.
         22    1    3    3    0    0  0.18913586185E+02  0.13350277728E+03 -0.48203757131E+03  0.50054064315E+03  0.00000000000E+00 0.  1.
</event>
<event>
 7    1  0.5553952E-006  0.4960898E+02  0.7818608E-02  0.1518288E+00
          2   -1    0    0  502    0  0.00000000000E+00  0.00000000000E+00  0.11870899599E+03  0.11870899599E+03  0.00000000000E+00 0. -1.
          1   -1    0    0  501    0 -0.00000000000E+00 -0.00000000000E+00 -0.62630349200E+03  0.62630349200E+03  0.00000000000E+00 0. -1.
         25    2    1    2    0    0 -0.24285347460E+02 -0.10853898738E+02 -0.14860222720E+03  0.19600284646E+03  0.12500763446E+03 0.  0.
          2    1    1    2  501    0  0.31959049048E+02  0.39992402299E+02 -0.45012390501E+03  0.45302571993E+03  0.00000000000E+00 0. -1.
          1    1    1    2  502    0 -0.76737015880E+01 -0.29138503561E+02  0.91131636205E+02  0.95983921587E+02  0.00000000000E+00 0. -1.
         22    1    3    3    0    0  0.84269680100E+01  0.24180493469E+02  0.12087621428E+02  0.28316437735E+02  0.00000000000E+00 0.  1.
         22    1    3    3    0    0 -0.32712315470E+02 -0.35034392207E+02 -0.16068984863E+03  0.16768640873E+03  0.00000000000E+00 0.  1.
</event>
<event>
 7    1  0.5553952E-006  0.1317315E+03  0.7818608E-02  0.1300130E+00
          2   -1    0    0  502    0  0.00000000000E+00  0.00000000000E+00  0.78782170855E+03  0.78782170855E+03  0.00000000000E+00 0. -1.
          1   -1    0    0  501    0 -0.00000000000E+00 -0.00000000000E+00 -0.36793106525E+03  0.36793106525E+03  0.00000000000E+00 0. -1.
         25    2    1    2    0    0  0.92147068357E+02 -0.16791540358E+03 -0.91735579297E+00  0.22871971226E+03  0.12500080108E+03 0.  0.
          2    1    1    2  501    0 -0.28903822798E+02  0.56031311036E+02 -0.24292417533E+03  0.25097229678E+03  0.00000000000E+00 0. -1.
          1    1    1    2  502    0 -0.63243245560E+02  0.11188409254E+03  0.66373217443E+03  0.67606076476E+03  0.00000000000E+00 0. -1.
         22    1    3    3    0    0  0.26697615264E+02 -0.91340342550E+02 -0.59458602806E+02  0.11221027709E+03  0.00000000000E+00 0. -1.
         22    1    3    3    0    0  0.65449453093E+02 -0.76575061026E+02  0.58541247013E+02  0.11650943517E+03  0.00000000000E+00 0. -1.
</event>
<event>
 7    1  0.5553952E-006  0.6617175E+02  0.7818608E-02  0.1480055E+00
          2   -1    0    0  502    0  0.00000000000E+00  0.00000000000E+00  0.17769617700E+03  0.17769617700E+03  0.00000000000E+00 0. -1.
          1   -1    0    0  501    0 -0.00000000000E+00 -0.00000000000E+00 -0.38488624805E+03  0.38488624805E+03  0.00000000000E+00 0. -1.
         25    2    1    2    0    0 -0.12337413773E+02  0.67153357865E+02  0.64698580787E+02  0.15643815558E+03  0.12500081966E+03 0.  0.
          2    1    1    2  501    0  0.29304840727E+02 -0.21977130724E+01 -0.32139114174E+03  0.32273188504E+03  0.00000000000E+00 0. -1.
          1    1    1    2  502    0 -0.16967426954E+02 -0.64955644792E+02  0.49502489912E+02  0.83412384424E+02  0.00000000000E+00 0. -1.
         22    1    3    3    0    0 -0.46297819251E+02  0.73563416659E+02  0.45145504254E+01  0.87037035240E+02  0.00000000000E+00 0.  1.
         22    1    3    3    0    0  0.33960405477E+02 -0.64100587939E+01  0.60184030361E+02  0.69401120340E+02  0.00000000000E+00 0.  1.
</event>
<event>
 7    1  0.5553952E-006  0.1020869E+03  0.7818608E-02  0.1363148E+00
          2   -1    0    0  502    0  0.00000000000E+00  0.00000000000E+00  0.17553039726E+04  0.17553039726E+04  0.00000000000E+00 0. -1.
          1   -1    0    0  501    0 -0.00000000000E+00 -0.00000000000E+00 -0.28840363522E+03  0.28840363522E+03  0.00000000000E+00 0. -1.
         25    2    1    2    0    0  0.46539948374E+02  0.11759252303E+03 -0.22053656968E+03  0.28329414307E+03  0.12500089865E+03 0.  0.
          2    1    1    2  501    0  0.21451675086E+02 -0.41577090696E+02 -0.19316449818E+02  0.50615749212E+02  0.00000000000E+00 0. -1.
          1    1    1    2  502    0 -0.67991623460E+02 -0.76015432337E+02  0.17067533568E+04  0.17097977155E+04  0.00000000000E+00 0. -1.
         22    1    3    3    0    0  0.31607951105E+02  0.59693677202E+02 -0.14938383906E+02  0.69177691379E+02  0.00000000000E+00 0. -1.
         22    1    3    3    0    0  0.14931997269E+02  0.57898845831E+02 -0.20559818578E+03  0.21411645169E+03  0.00000000000E+00 0. -1.
</event>
<event>
 7    1  0.5553952E-006  0.1864044E+03  0.7818608E-02  0.1267376E+00
          2   -1    0    0  502    0  0.00000000000E+00  0.00000000000E+00  0.24286835686E+04  0.24286835686E+04  0.00000000000E+00 0. -1.
          1   -1    0    0  501    0 -0.00000000000E+00 -0.00000000000E+00 -0.14421491785E+04  0.14421491785E+04  0.00000000000E+00 0. -1.
         25    2    1    2    0    0 -0.15679458563E+03 -0.71163716681E+02  0.80292925383E+03  0.83064580096E+03  0.12501297273E+03 0.  0.
          2    1    1    2  501    0 -0.36841180810E+02  0.48290462413E+02 -0.14217436386E+04  0.14230404826E+04  0.00000000000E+00 0. -1.
          1    1    1    2  502    0  0.19363576644E+03  0.22873254269E+02  0.16053487748E+04  0.16171464635E+04  0.00000000000E+00 0. -1.
         22    1    3    3    0    0 -0.15777869748E+02 -0.32192898487E+02  0.40656197330E+03  0.40813963544E+03  0.00000000000E+00 0. -1.
         22    1    3    3    0    0 -0.14101671589E+03 -0.38970818194E+02  0.39636728053E+03  0.42250616552E+03  0.00000000000E+00 0. -1.
</event>
<event>
 7    1  0.5553952E-006  0.1068409E+03  0.7818608E-02  0.1382310E+00
          2   -1    0    0  502    0  0.00000000000E+00  0.00000000000E+00  0.34868321312E+03  0.34868321312E+03  0.00000000000E+00 0. -1.
          1   -1    0    0  501    0 -0.00000000000E+00 -0.00000000000E+00 -0.59128475611E+03  0.59128475611E+03  0.00000000000E+00 0. -1.
         25    2    1    2    0    0 -0.13568350469E+03 -0.18817445739E+01 -0.68364394652E+02  0.19675624365E+03  0.12500309817E+03 0.  0.
          2    1    1    2  501    0  0.32946948607E+02 -0.19273931576E+02 -0.44821701175E+03  0.44983938854E+03  0.00000000000E+00 0. -1.
          1    1    1    2  502    0  0.10273655608E+03  0.21155676150E+02  0.27397986341E+03  0.29337233704E+03  0.00000000000E+00 0. -1.
         22    1    3    3    0    0 -0.34329905757E+02  0.16951874871E+02  0.34199678014E+02  0.51337378850E+02  0.00000000000E+00 0.  1.
         22    1    3    3    0    0 -0.10135359893E+03 -0.18833619445E+02 -0.10256407267E+03  0.14541886480E+03  0.00000000000E+00 0.  1.
</event>
<event>
 7    1  0.5553952E-006  0.1298779E+03  0.7818608E-02  0.1242128E+00
          2   -1    0    0  502    0  0.00000000000E+00  0.00000000000E+00  0.87685943901E+03  0.87685943901E+03  0.00000000000E+00 0. -1.
          1   -1    0    0  501    0 -0.00000000000E+00 -0.00000000000E+00 -0.10321248800E+03  0.10321248800E+03  0.00000000000E+00 0. -1.
         25    2    1    2    0    0 -0.10621331589E+02  0.42157463398E+01  0.11767649473E+03  0.17205620931E+03  0.12499998619E+03 0.  0.
          2    1    1    2  501    0 -0.67585465162E+02  0.11090745232E+03 -0.75105654947E+01  0.13009483724E+03  0.00000000000E+00 0. -1.
          1    1    1    2  502    0  0.78206796751E+02 -0.11512319866E+03  0.66348102177E+03  0.67792088047E+03  0.00000000000E+00 0. -1.
         22    1    3    3    0    0 -0.50758417090E+02  0.31701397254E+02  0.10646958381E+03  0.12213585784E+03  0.00000000000E+00 0. -1.
         22    1    3    3    0    0  0.40137085501E+02 -0.27485650914E+02  0.11206910922E+02  0.49920351473E+02  0.00000000000E+00 0. -1.
</event>
<event>
 7    1  0.5553952E-006  0.6195656E+02  0.7818608E-02  0.1443763E+00
          2   -1    0    0  502    0  0.00000000000E+00  0.00000000000E+00  0.13109856954E+04  0.13109856954E+04  0.00000000000E+00 0. -1.
          1   -1    0    0  501    0 -0.00000000000E+00 -0.00000000000E+00 -0.79405761772E+02  0.79405761772E+02  0.00000000000E+00 0. -1.
         25    2    1    2    0    0 -0.48088566945E+02  0.34775190040E+02  0.44071668751E+03  0.46192121655E+03  0.12497274717E+03 0.  0.
          2    1    1    2  501    0  0.16226987915E+02 -0.60302668326E+02 -0.54038543412E+02  0.82582632061E+02  0.00000000000E+00 0. -1.
          1    1    1    2  502    0  0.31861579029E+02  0.25527478286E+02  0.84490178953E+03  0.84588760856E+03  0.00000000000E+00 0. -1.
         22    1    3    3    0    0  0.12890682755E+02 -0.23053607938E+02  0.27351596552E+03  0.27478832205E+03  0.00000000000E+00 0. -1.
         22    1    3    3    0    0 -0.60979249699E+02  0.57828797978E+02  0.16720072199E+03  0.18713289450E+03  0.00000000000E+00 0. -1.
</event>
<event>
 7    1  0.5553952E-006  0.9190908E+02  0.7818608E-02  0.1390030E+00
          2   -1    0    0  502    0  0.00000000000E+00  0.00000000000E+00  0.67319291064E+03  0.67319291064E+03  0.00000000000E+00 0. -1.
          1   -1    0    0  501    0 -0.00000000000E+00 -0.00000000000E+00 -0.42844660187E+03  0.42844660187E+03  0.00000000000E+00 0. -1.
         25    2    1    2    0    0  0.63078183280E+02  0.10916426323E+03 -0.27821986045E+03  0.33004517148E+03  0.12501132308E+03 0.  0.
          2    1    1    2  501    0 -0.35511008497E+02 -0.21837412925E+02 -0.11746810033E+03  0.12464613481E+03  0.00000000000E+00 0. -1.
          1    1    1    2  502    0 -0.27567174784E+02 -0.87326850302E+02  0.64043426955E+03  0.64694820621E+03  0.00000000000E+00 0. -1.
         22    1    3    3    0    0  0.49366404937E+02  0.68436689450E+02 -0.50573965384E+02  0.98378597134E+02  0.00000000000E+00 0.  1.
         22    1    3    3    0    0  0.13711778343E+02  0.40727573777E+02 -0.22764589506E+03  0.23166657435E+03  0.00000000000E+00 0.  1.
</event>
<event>
 7    1  0.5553952E-006  0.7863068E+02  0.7818608E-02  0.1441793E+00
          2   -1    0    0  502    0  0.00000000000E+00  0.00000000000E+00  0.34963994461E+02  0.34963994461E+02  0.00000000000E+00 0. -1.
          1   -1    0    0  501    0 -0.00000000000E+00 -0.00000000000E+00 -0.62136637804E+03  0.62136637804E+03  0.00000000000E+00 0. -1.
         25    2    1    2    0    0  0.10084267877E+03 -0.18460004750E+02 -0.35311325087E+03  0.38835856838E+03  0.12499356806E+03 0.  0.
          2    1    1    2  501    0 -0.71036856144E+02  0.51461235716E+01 -0.22245203914E+03  0.23357574197E+03  0.00000000000E+00 0. -1.
          1    1    1    2  502    0 -0.29805822628E+02  0.13313881179E+02 -0.10837093569E+02  0.34396062153E+02  0.00000000000E+00 0. -1.
         22    1    3    3    0    0  0.28254450849E+02 -0.58460208449E+02 -0.23678024582E+03  0.24552147518E+03  0.00000000000E+00 0.  1.
         22    1    3    3    0    0  0.72588227924E+02  0.40000203699E+02 -0.11633300505E+03  0.14283709319E+03  0.00000000000E+00 0.  1.
</event>
<event>
 7    1  0.5553952E-006  0.1506394E+03  0.7818608E-02  0.1202000E+00
          2   -1    0    0  502    0  0.00000000000E+00  0.00000000000E+00  0.18561614480E+04  0.18561614480E+04  0.00000000000E+00 0. -1.
          1   -1    0    0  501    0 -0.00000000000E+00 -0.00000000000E+00 -0.79850710536E+03  0.79850710536E+03  0.00000000000E+00 0. -1.
         25    2    1    2    0    0  0.65631697420E+02 -0.13290174924E+02  0.65649539690E+02  0.15626494043E+03  0.12499888435E+03 0.  0.
          2    1    1    2  501    0 -0.15594296943E+02  0.15537636856E+03 -0.74180448464E+03  0.75806259072E+03  0.00000000000E+00 0. -1.
          1    1    1    2  502    0 -0.50037400477E+02 -0.14208619364E+03  0.17338092876E+04  0.17403410222E+04  0.00000000000E+00 0. -1.
         22    1    3    3    0    0  0.58633367416E+02 -0.62166566425E+02  0.64173329558E+02  0.10686800261E+03  0.00000000000E+00 0.  1.
         22    1    3    3    0    0  0.69983300039E+01  0.48876391501E+02  0.14762101316E+01  0.49396937814E+02  0.00000000000E+00 0.  1.
</event>
<event>
 7    1  0.5553952E-006  0.4877971E+02  0.7818608E-02  0.1469786E+00
          2   -1    0    0  502    0  0.00000000000E+00  0.00000000000E+00  0.10398679269E+04  0.10398679269E+04  0.00000000000E+00 0. -1.
          1   -1    0    0  501    0 -0.00000000000E+00 -0.00000000000E+00 -0.10168348821E+04  0.10168348821E+04  0.00000000000E+00 0. -1.
         25    2    1    2    0    0  0.39855288623E+02 -0.93024394024E+01 -0.59856553708E+02  0.14450872721E+03  0.12499994323E+03 0.  0.
          2    1    1    2  501    0 -0.17561549949E+02  0.45938676479E+02 -0.91352954562E+03  0.91485244753E+03  0.00000000000E+00 0. -1.
          1    1    1    2  502    0 -0.22293738674E+02 -0.36636237076E+02  0.99641914413E+03  0.99734163427E+03  0.00000000000E+00 0. -1.
         22    1    3    3    0    0  0.44880584964E+01 -0.10362051770E+02  0.38426049447E+02  0.40050918367E+02  0.00000000000E+00 0. -1.
         22    1    3    3    0    0  0.35367230127E+02  0.10596123678E+01 -0.98282603154E+02  0.10445780884E+03  0.00000000000E+00 0. -1.
</event>
<event>
 7    1  0.5553952E-006  0.1143652E+03  0.7818608E-02  0.1254369E+00
          2   -1    0    0  502    0  0.00000000000E+00  0.00000000000E+00  0.15395097590E+03  0.15395097590E+03  0.00000000000E+00 0. -1.
          1   -1    0    0  501    0 -0.00000000000E+00 -0.00000000000E+00 -0.46489452782E+03  0.46489452782E+03  0.00000000000E+00 0. -1.
         25    2    1    2    0    0 -0.37577863640E+02  0.51241331686E+02 -0.10650609602E+03  0.17608616596E+03  0.12500007777E+03 0.  0.
          2    1    1    2  501    0  0.14775489286E+03 -0.28609930279E+02 -0.27249585610E+03  0.31129411827E+03  0.00000000000E+00 0. -1.
          1    1    1    2  502    0 -0.11017702922E+03 -0.22631401407E+02  0.68058400204E+02  0.13146521949E+03  0.00000000000E+00 0. -1.
         22    1    3    3    0    0 -0.91895895954E+01 -0.35129934559E+02 -0.34360188629E+00  0.36313618951E+02  0.00000000000E+00 0.  1.
         22    1    3    3    0    0 -0.28388274044E+02  0.86371266245E+02 -0.10616249414E+03  0.13977254701E+03  0.00000000000E+00 0.  1.
</event>
<event>
 7    1  0.5553952E-006  0.5924405E+02  0.7818608E-02  0.1544081E+00
          2   -1    0    0  502    0  0.00000000000E+00  0.00000000000E+00  0.34976502446E+04  0.34976502446E+04  0.00000000000E+00 0. -1.
          1   -1    0    0  501    0 -0.00000000000E+00 -0.00000000000E+00 -0.12059140603E+02  0.12059140603E+02  0.00000000000E+00 0. -1.
         25    2    1    2    0    0  0.30568476031E+02  0.23514289290E+02  0.39364413904E+03  0.41480982494E+03  0.12499651651E+03 0.  0.
          2    1    1    2  501    0  0.17664749300E+02  0.11882136461E+02  0.95029403974E+02  0.97384886683E+02  0.00000000000E+00 0. -1.
          1    1    1    2  502    0 -0.48233225330E+02 -0.35396425751E+02  0.29969175610E+04  0.29975146736E+04  0.00000000000E+00 0. -1.
         22    1    3    3    0    0  0.48848550090E+02  0.22891606803E+02  0.39281327786E+03  0.39650028723E+03  0.00000000000E+00 0.  1.
         22    1    3    3    0    0 -0.18280074059E+02  0.62268248635E+00  0.83086118133E+00  0.18309537717E+02  0.00000000000E+00 0.  1.
</event>
<event>
 7    1  0.5553952E-006  0.2783849E+02  0.7818608E-02  0.1656949E+00
          2   -1    0    0  502    0  0.00000000000E+00  0.00000000000E+00  0.13939894187E+04  0.13939894187E+04  0.00000000000E+00 0. -1.
          1   -1    0    0  501    0 -0.00000000000E+00 -0.00000000000E+00 -0.33917096715E+02  0.33917096715E+02  0.00000000000E+00 0. -1.
         25    2    1    2    0    0 -0.28359670258E+02  0.46066225586E+00  0.49298220257E+03  0.50937336572E+03  0.12500116221E+03 0.  0.
          2    1    1    2  501    0  0.99235685465E+01  0.20710057836E+02 -0.20329034407E+02  0.30670072517E+02  0.00000000000E+00 0. -1.
          1    1    1    2  502    0  0.18436101711E+02 -0.21170720092E+02  0.88741915385E+03  0.88786307720E+03  0.00000000000E+00 0. -1.
         22    1    3    3    0    0 -0.62950464379E+02  0.22972868374E+02  0.15479588138E+03  0.16867803218E+03  0.00000000000E+00 0.  1.
         22    1    3    3    0    0  0.34590794121E+02 -0.22512206118E+02  0.33818632119E+03  0.34069533355E+03  0.00000000000E+00 0.  1.
</event>
<event>
 7    1  0.5553952E-006  0.8795216E+02  0.7818608E-02  0.1409500E+00
          2   -1    0    0  502    0  0.00000000000E+00  0.00000000000E+00  0.13723967620E+04  0.13723967620E+04  0.00000000000E+00 0. -1.
          1   -1    0    0  501    0 -0.00000000000E+00 -0.00000000000E+00 -0.53087071895E+02  0.53087071895E+02  0.00000000000E+00 0. -1.
         25    2    1    2    0    0 -0.21514638943E+02  0.69421865239E+02  0.24154450664E+03  0.28151568622E+03  0.12500023134E+03 0.  0.
          2    1    1    2  501    0 -0.37308893569E+02 -0.14650608261E+01 -0.20117589317E+02  0.42412466829E+02  0.00000000000E+00 0. -1.
          1    1    1    2  502    0  0.58823532512E+02 -0.67956804413E+02  0.10978827728E+04  0.11015556809E+04  0.00000000000E+00 0. -1.
         22    1    3    3    0    0 -0.45465819467E+02  0.47825709670E+02  0.24034971879E+03  0.24924370918E+03  0.00000000000E+00 0.  1.
         22    1    3    3    0    0  0.23951180523E+02  0.21596155569E+02  0.11947878546E+01  0.32271977036E+02  0.00000000000E+00 0.  1.
</event>
<event>
 7    1  0.5553952E-006  0.1133009E+03  0.7818608E-02  0.1292062E+00
          2   -1    0    0  502    0  0.00000000000E+00  0.00000000000E+00  0.14064692041E+03  0.14064692041E+03  0.00000000000E+00 0. -1.
          1   -1    0    0  501    0 -0.00000000000E+00 -0.00000000000E+00 -0.16815219421E+04  0.16815219421E+04  0.00000000000E+00 0. -1.
         25    2    1    2    0    0 -0.41961121669E+02  0.48213173041E+02 -0.50107924197E+03  0.52037756657E+03  0.12500863680E+03 0.  0.
          2    1    1    2  501    0  0.11969747369E+03 -0.62280442227E+02 -0.11545862993E+04  0.11624439175E+04  0.00000000000E+00 0. -1.
          1    1    1    2  502    0 -0.77736352017E+02  0.14067269186E+02  0.11479051961E+03  0.13934737844E+03  0.00000000000E+00 0. -1.
         22    1    3    3    0    0  0.40155568402E+02  0.33612099344E+02 -0.13235351308E+03  0.14233655652E+03  0.00000000000E+00 0. -1.
         22    1    3    3    0    0 -0.82116690070E+02  0.14601073697E+02 -0.36872572888E+03  0.37804101005E+03  0.00000000000E+00 0. -1.
</event>
<event>
 7    1  0.5553952E-006  0.8057696E+02  0.7818608E-02  0.1404914E+00
          2   -1    0    0  502    0  0.00000000000E+00  0.00000000000E+00  0.31821130447E+04  0.31821130447E+04  0.00000000000E+00 0. -1.
          1   -1    0    0  501    0 -0.00000000000E+00 -0.00000000000E+00 -0.96741582349E+02  0.96741582349E+02  0.00000000000E+00 0. -1.
         25    2    1    2    0    0  0.55927811831E+02 -0.10495695857E+03  0.51459436856E+03  0.54274836037E+03  0.12499814094E+03 0.  0.
          2    1    1    2  501    0 -0.47253453159E+02  0.63611038504E+02 -0.63466077290E+02  0.10152436171E+03  0.00000000000E+00 0. -1.
          1    1    1    2  502    0 -0.86743586720E+01  0.41345920062E+02  0.26342431711E+04  0.26345819050E+04  0.00000000000E+00 0. -1.
         22    1    3    3    0    0  0.39164004920E+02 -0.11640022837E+03  0.26217610290E+03  0.28951535603E+03  0.00000000000E+00 0. -1.
         22    1    3    3    0    0  0.16763806912E+02  0.11443269802E+02  0.25241826566E+03  0.25323300434E+03  0.00000000000E+00 0. -1.
</event>
<event>
 7    1  0.5553952E-006  0.5691542E+02  0.7818608E-02  0.1436566E+00
          2   -1    0    0  502    0  0.00000000000E+00  0.00000000000E+00  0.10569657582E+04  0.10569657582E+04  0.00000000000E+00 0. -1.
          1   -1    0    0  501    0 -0.00000000000E+00 -0.00000000000E+00 -0.28576240287E+03  0.28576240287E+03  0.00000000000E+00 0. -1.
         25    2    1    2    0    0 -0.45101804272E+02  0.81093844492E+02  0.30884902199E+03  0.34586753325E+03  0.12500499112E+03 0.  0.
          2    1    1    2  501    0  0.45173137406E+02 -0.34196389896E+02 -0.26348510496E+03  0.26950771039E+03  0.00000000000E+00 0. -1.
          1    1    1    2  502    0 -0.71333134413E-01 -0.46897454596E+02  0.72583943827E+03  0.72735291742E+03  0.00000000000E+00 0. -1.
         22    1    3    3    0    0 -0.54411397578E+02 -0.16113355982E+02  0.92814264239E+02  0.10878753639E+03  0.00000000000E+00 0. -1.
         22    1    3    3    0    0  0.93095933057E+01  0.97207200474E+02  0.21603475776E+03  0.23707999686E+03  0.00000000000E+00 0. -1.
</event>
<event>
 7    1  0.5553952E-006  0.3045384E+02  0.7818608E-02  0.1597577E+00
          2   -1    0    0  502    0  0.00000000000E+00  0.00000000000E+00  0.16723186048E+04  0.16723186048E+04  0.00000000000E+00 0. -1.
          1   -1    0    0  501    0 -0.00000000000E+00 -0.00000000000E+00 -0.57604939474E+03  0.57604939474E+03  0.00000000000E+00 0. -1.
         25    2    1    2    0    0 -0.32944917243E+02  0.21344161362E+02 -0.71931205657E+01  0.13121203570E+03  0.12499566605E+03 0.  0.
          2    1    1    2  501    0  0.46328656246E+01 -0.30131161992E+02 -0.50625182535E+03  0.50716886836E+03  0.00000000000E+00 0. -1.
          1    1    1    2  502    0  0.28312051619E+02  0.87870006304E+01  0.16097141560E+04  0.16099870955E+04  0.00000000000E+00 0. -1.
         22    1    3    3    0    0 -0.20806571194E+02  0.63015372713E+02 -0.39389360604E+02  0.77171058901E+02  0.00000000000E+00 0.  1.
         22    1    3    3    0    0 -0.12138346050E+02 -0.41671211352E+02  0.32196240038E+02  0.54040976795E+02  0.00000000000E+00 0.  1.
</event>
<event>
 7    1  0.5553952E-006  0.7023418E+02  0.7818608E-02  0.1440620E+00
          2   -1    0    0  502    0  0.00000000000E+00  0.00000000000E+00  0.45645749742E+03  0.45645749742E+03  0.00000000000E+00 0. -1.
          1   -1    0    0  501    0 -0.00000000000E+00 -0.00000000000E+00 -0.53404975492E+03  0.53404975492E+03  0.00000000000E+00 0. -1.
         25    2    1    2    0    0 -0.16726096145E+02  0.71426336735E+02  0.23014361976E+03  0.27197942393E+03  0.12500094981E+03 0.  0.
          2    1    1    2  501    0 -0.19922745065E+02 -0.67413348542E+02 -0.50904236200E+03  0.51387313769E+03  0.00000000000E+00 0. -1.
          1    1    1    2  502    0  0.36648841210E+02 -0.40129881924E+01  0.20130648474E+03  0.20465469072E+03  0.00000000000E+00 0. -1.
         22    1    3    3    0    0 -0.38709943298E+02  0.10029234818E+03  0.18605358070E+03  0.21487891870E+03  0.00000000000E+00 0. -1.
         22    1    3    3    0    0  0.21983847153E+02 -0.28866011443E+02  0.44090039067E+02  0.57100505227E+02  0.00000000000E+00 0. -1.
</event>
<event>
 7    1  0.5553952E-006  0.5892676E+02  0.7818608E-02  0.1546818E+00
          2   -1    0    0  502    0  0.00000000000E+00  0.00000000000E+00  0.39613629211E+04  0.39613629211E+04  0.00000000000E+00 0. -1.
          1   -1    0    0  501    0 -0.00000000000E+00 -0.00000000000E+00 -0.22217623517E+03  0.22217623517E+03  0.00000000000E+00 0. -1.
         25    2    1    2    0    0  0.33382315451E+02 -0.63329638834E+02 -0.31544299086E+02  0.14746185571E+03  0.12499973578E+03 0.  0.
          2    1    1    2  501    0  0.65110542738E+01  0.19995197550E+02 -0.13161625750E+03  0.13328556183E+03  0.00000000000E+00 0. -1.
          1    1    1    2  502    0 -0.39893369725E+02  0.43334441284E+02  0.39023472425E+04  0.39027917387E+04  0.00000000000E+00 0. -1.
         22    1    3    3    0    0  0.50986840599E+02 -0.13148020924E+02 -0.65746705571E+02  0.84232758841E+02  0.00000000000E+00 0.  1.
         22    1    3    3    0    0 -0.17604525148E+02 -0.50181617910E+02  0.34202406486E+02  0.63229096872E+02  0.00000000000E+00 0.  1.
</event>
<event>
 7    1  0.5553952E-006  0.1840093E+03  0.7818608E-02  0.1345352E+00
          2   -1    0    0  502    0  0.00000000000E+00  0.00000000000E+00  0.17265751270E+04  0.17265751270E+04  0.00000000000E+00 0. -1.
          1   -1    0    0  501    0 -0.00000000000E+00 -0.00000000000E+00 -0.15273013609E+04  0.15273013609E+04  0.00000000000E+00 0. -1.
         25    2    1    2    0    0 -0.14452237598E+03  0.15525103505E+03  0.77803014949E+03  0.81605489852E+03  0.12500033136E+03 0.  0.
          2    1    1    2  501    0  0.13222502525E+03 -0.12768759247E+03 -0.15024412628E+04  0.15136437251E+04  0.00000000000E+00 0. -1.
          1    1    1    2  502    0  0.12297350731E+02 -0.27563442582E+02  0.92368487944E+03  0.92417786422E+03  0.00000000000E+00 0. -1.
         22    1    3    3    0    0 -0.80494711320E+02  0.13390952366E+02  0.38030837262E+03  0.38896423286E+03  0.00000000000E+00 0.  1.
         22    1    3    3    0    0 -0.64027664659E+02  0.14186008269E+03  0.39772177687E+03  0.42709066567E+03  0.00000000000E+00 0.  1.
</event>
<event>
 7    1  0.5553952E-006  0.2479458E+03  0.7818608E-02  0.1219985E+00
          2   -1    0    0  502    0  0.00000000000E+00  0.00000000000E+00  0.13552002602E+04  0.13552002602E+04  0.00000000000E+00 0. -1.
          1   -1    0    0  501    0 -0.00000000000E+00 -0.00000000000E+00 -0.31979482455E+03  0.31979482455E+03  0.00000000000E+00 0. -1.
         25    2    1    2    0    0  0.27240779376E+03 -0.14730340438E+03  0.26421281995E+03  0.42583979749E+03  0.12500727923E+03 0.  0.
          2    1    1    2  501    0 -0.69667713295E+02  0.23998626725E+02 -0.21892866255E+03  0.23099628492E+03  0.00000000000E+00 0. -1.
          1    1    1    2  502    0 -0.20274008047E+03  0.12330477765E+03  0.99012127826E+03  0.10181590024E+04  0.00000000000E+00 0. -1.
         22    1    3    3    0    0  0.18667024663E+03 -0.13812898975E+03  0.12947882915E+03  0.26587622306E+03  0.00000000000E+00 0.  1.
         22    1    3    3    0    0  0.85737547126E+02 -0.91744146299E+01  0.13473399079E+03  0.15996357443E+03  0.00000000000E+00 0.  1.
</event>
<event>
 7    1  0.5553952E-006  0.8382978E+02  0.7818608E-02  0.1398557E+00
          2   -1    0    0  502    0  0.00000000000E+00  0.00000000000E+00  0.14548695063E+04  0.14548695063E+04  0.00000000000E+00 0. -1.
          1   -1    0    0  501    0 -0.00000000000E+00 -0.00000000000E+00 -0.16730703478E+03  0.16730703478E+03  0.00000000000E+00 0. -1.
         25    2    1    2    0    0 -0.27671473659E+01 -0.11469237388E+03  0.86287782173E+03  0.87940071489E+03  0.12500193750E+03 0.  0.
          2    1    1    2  501    0  0.13785004360E+02  0.40411171385E+02 -0.15370829637E+03  0.15952845982E+03  0.00000000000E+00 0. -1.
          1    1    1    2  502    0 -0.11017856994E+02  0.74281202491E+02  0.57839294621E+03  0.58324736642E+03  0.00000000000E+00 0. -1.
         22    1    3    3    0    0  0.47361846315E+02 -0.60522925813E+01  0.31604456093E+03  0.31963094223E+03  0.00000000000E+00 0. -1.
         22    1    3    3    0    0 -0.50128993681E+02 -0.10864008129E+03  0.54683326080E+03  0.55976977266E+03  0.00000000000E+00 0. -1.
</event>
<event>
 7    1  0.5555280E-006  0.1049125E+03  0.7818608E-02  0.1307587E+00
          2   -1    0    0  502    0  0.00000000000E+00  0.00000000000E+00  0.18323163509E+04  0.18323163509E+04  0.00000000000E+00 0. -1.
          1   -1    0    0  501    0 -0.00000000000E+00 -0.00000000000E+00 -0.57022707910E+03  0.57022707910E+03  0.00000000000E+00 0. -1.
         25    2    1    2    0    0 -0.16366723428E+03 -0.45863240579E+02 -0.10110158964E+03  0.23396874565E+03  0.12501776714E+03 0.  0.
          2    1    1    2  501    0  0.73614686482E+02 -0.68834320946E+01 -0.39774017620E+03  0.40455376833E+03  0.00000000000E+00 0. -1.
          1    1    1    2  502    0  0.90052547795E+02  0.52746672674E+02  0.17609310376E+04  0.17640209160E+04  0.00000000000E+00 0. -1.
         22    1    3    3    0    0 -0.14828542638E+02  0.28009317638E+02 -0.51659199897E+02  0.60605944307E+02  0.00000000000E+00 0. -1.
         22    1    3    3    0    0 -0.14883869164E+03 -0.73872558218E+02 -0.49442389740E+02  0.17336280134E+03  0.00000000000E+00 0. -1.
</event>
<event>
 7    1  0.5553952E-006  0.6881621E+02  0.7818608E-02  0.1406521E+00
          2   -1    0    0  502    0  0.00000000000E+00  0.00000000000E+00  0.82538227573E+03  0.82538227573E+03  0.00000000000E+00 0. -1.
          1   -1    0    0  501    0 -0.00000000000E+00 -0.00000000000E+00 -0.20417764360E+03  0.20417764360E+03  0.00000000000E+00 0. -1.
         25    2    1    2    0    0 -0.40414958797E+02 -0.88178774682E+02 -0.89104265274E+02  0.18158870496E+03  0.12500408986E+03 0.  0.
          2    1    1    2  501    0 -0.91072688938E+00  0.62138510664E+02 -0.53863508607E+02  0.82239294078E+02  0.00000000000E+00 0. -1.
          1    1    1    2  502    0  0.41325685687E+02  0.26040264018E+02  0.76417240601E+03  0.76573192029E+03  0.00000000000E+00 0. -1.
         22    1    3    3    0    0 -0.54443338892E+02 -0.11540002162E+03 -0.71429572613E+02  0.14623072859E+03  0.00000000000E+00 0.  1.
         22    1    3    3    0    0  0.14028380095E+02  0.27221246936E+02 -0.17674692661E+02  0.35357976377E+02  0.00000000000E+00 0.  1.
</event>
<event>
 7    1  0.5553952E-006  0.2834869E+02  0.7818608E-02  0.1622911E+00
          2   -1    0    0  502    0  0.00000000000E+00  0.00000000000E+00  0.11874813355E+04  0.11874813355E+04  0.00000000000E+00 0. -1.
          1   -1    0    0  501    0 -0.00000000000E+00 -0.00000000000E+00 -0.15662317794E+02  0.15662317794E+02  0.00000000000E+00 0. -1.
         25    2    1    2    0    0  0.31522001742E+02  0.21189159503E+02  0.75937744624E+03  0.77053348464E+03  0.12500051209E+03 0.  0.
          2    1    1    2  501    0 -0.49724327155E+01 -0.27954146723E+02  0.11339690702E+02  0.30573648643E+02  0.00000000000E+00 0. -1.
          1    1    1    2  502    0 -0.26549569027E+02  0.67649872204E+01  0.40110188075E+03  0.40203652000E+03  0.00000000000E+00 0. -1.
         22    1    3    3    0    0  0.57045995536E+02  0.32029517725E+02  0.19916246479E+03  0.20963259049E+03  0.00000000000E+00 0.  1.
         22    1    3    3    0    0 -0.25523993794E+02 -0.10840358222E+02  0.56021498144E+03  0.56090089415E+03  0.00000000000E+00 0.  1.
</event>
<event>
 7    1  0.5553952E-006  0.5040439E+02  0.7818608E-02  0.1454071E+00
          2   -1    0    0  502    0  0.00000000000E+00  0.00000000000E+00  0.23093417108E+03  0.23093417108E+03  0.00000000000E+00 0. -1.
          1   -1    0    0  501    0 -0.00000000000E+00 -0.00000000000E+00 -0.35887014723E+03  0.35887014723E+03  0.00000000000E+00 0. -1.
         25    2    1    2    0    0  0.11706002239E+02 -0.30704209727E+02  0.15698513139E+03  0.20334553556E+03  0.12500118547E+03 0.  0.
          2    1    1    2  501    0 -0.40496761898E+02 -0.30010243294E+02 -0.31049662931E+03  0.31456121700E+03  0.00000000000E+00 0. -1.
          1    1    1    2  502    0  0.28790759659E+02  0.60714453022E+02  0.25575521759E+02  0.71897565750E+02  0.00000000000E+00 0. -1.
         22    1    3    3    0    0 -0.35261524326E+02  0.33613808245E+02  0.48272317048E+02  0.68581920327E+02  0.00000000000E+00 0.  1.
         22    1    3    3    0    0  0.46967526564E+02 -0.64318017973E+02  0.10871281435E+03  0.13476361523E+03  0.00000000000E+00 0.  1.
</event>
<event>
 7    1  0.5553952E-006  0.4460736E+03  0.7818608E-02  0.1257851E+00
          2   -1    0    0  502    0  0.00000000000E+00  0.00000000000E+00  0.40539503031E+03  0.40539503031E+03  0.00000000000E+00 0. -1.
          1   -1    0    0  501    0 -0.00000000000E+00 -0.00000000000E+00 -0.10694851217E+04  0.10694851217E+04  0.00000000000E+00 0. -1.
         25    2    1    2    0    0  0.45777172263E+03 -0.64747384588E+02 -0.23829215935E+03  0.53493479707E+03  0.12499964021E+03 0.  0.
          2    1    1    2  501    0 -0.43193225836E+03  0.75166814990E+02 -0.61135400469E+03  0.75230927479E+03  0.00000000000E+00 0. -1.
          1    1    1    2  502    0 -0.25839464275E+02 -0.10419430402E+02  0.18555607269E+03  0.18763608010E+03  0.00000000000E+00 0. -1.
         22    1    3    3    0    0  0.43137572933E+03 -0.78275202032E+02 -0.24802938885E+03  0.50371679032E+03  0.00000000000E+00 0. -1.
         22    1    3    3    0    0  0.26395993301E+02  0.13527817443E+02  0.97372295042E+01  0.31218006751E+02  0.00000000000E+00 0. -1.
</event>
<event>
 7    1  0.5553952E-006  0.7791698E+02  0.7818608E-02  0.1403965E+00
          2   -1    0    0  502    0  0.00000000000E+00  0.00000000000E+00  0.41768524765E+03  0.41768524765E+03  0.00000000000E+00 0. -1.
          1   -1    0    0  501    0 -0.00000000000E+00 -0.00000000000E+00 -0.63129846471E+03  0.63129846471E+03  0.00000000000E+00 0. -1.
         25    2    1    2    0    0  0.11112228449E+03  0.48921138345E+02  0.19658106322E+03  0.26270358608E+03  0.12501047888E+03 0.  0.
          2    1    1    2  501    0 -0.71478833012E+02 -0.29795995163E+02 -0.59310944217E+03  0.59814365774E+03  0.00000000000E+00 0. -1.
          1    1    1    2  502    0 -0.39643451483E+02 -0.19125143182E+02  0.18291516189E+03  0.18813646855E+03  0.00000000000E+00 0. -1.
         22    1    3    3    0    0  0.12367745267E+03  0.73254621764E+01  0.10934283469E+03  0.16524415328E+03  0.00000000000E+00 0.  1.
         22    1    3    3    0    0 -0.12555168172E+02  0.41595676169E+02  0.87238228533E+02  0.97459432798E+02  0.00000000000E+00 0.  1.
</event>
<event>
 7    1  0.5553952E-006  0.5621935E+02  0.7818608E-02  0.1477295E+00
          2   -1    0    0  502    0  0.00000000000E+00  0.00000000000E+00  0.27920727670E+04  0.27920727670E+04  0.00000000000E+00 0. -1.
          1   -1    0    0  501    0 -0.00000000000E+00 -0.00000000000E+00 -0.25432186027E+04  0.25432186027E+04  0.00000000000E+00 0. -1.
         25    2    1    2    0    0  0.36341417349E+02 -0.57987268745E+02  0.93509230748E+03  0.94588879574E+03  0.12499907376E+03 0.  0.
          2    1    1    2  501    0 -0.11146449328E+01  0.56207472809E+02 -0.25373409904E+04  0.25379637161E+04  0.00000000000E+00 0. -1.
          1    1    1    2  502    0 -0.35226772416E+02  0.17797959354E+01  0.18511028473E+04  0.18514388578E+04  0.00000000000E+00 0. -1.
         22    1    3    3    0    0  0.10647494220E+01  0.50063145027E+01  0.69865707568E+03  0.69867582345E+03  0.00000000000E+00 0.  1.
         22    1    3    3    0    0  0.35276667927E+02 -0.62993583247E+02  0.23643523181E+03  0.24721297229E+03  0.00000000000E+00 0.  1.
</event>
<event>
 7    1  0.5553952E-006  0.6808441E+02  0.7818608E-02  0.1418991E+00
          2   -1    0    0  502    0  0.00000000000E+00  0.00000000000E+00  0.31410544606E+03  0.31410544606E+03  0.00000000000E+00 0. -1.
          1   -1    0    0  501    0 -0.00000000000E+00 -0.00000000000E+00 -0.70097584122E+03  0.70097584122E+03  0.00000000000E+00 0. -1.
         25    2    1    2    0    0 -0.60943615847E+02  0.21724287765E+02 -0.54921838896E+03  0.56696712769E+03  0.12499926444E+03 0.  0.
          2    1    1    2  501    0  0.46837386447E+02 -0.64256504608E+02 -0.12997943085E+03  0.15237221400E+03  0.00000000000E+00 0. -1.
          1    1    1    2  502    0  0.14106229399E+02  0.42532216843E+02  0.29232742465E+03  0.29574194559E+03  0.00000000000E+00 0. -1.
         22    1    3    3    0    0 -0.59211841404E+02  0.15633606256E+02 -0.55501440671E+03  0.55838288249E+03  0.00000000000E+00 0. -1.
         22    1    3    3    0    0 -0.17317744429E+01  0.60906815086E+01  0.57960177407E+01  0.85842451975E+01  0.00000000000E+00 0. -1.
</event>
<event>
 7    1  0.5553952E-006  0.7606294E+02  0.7818608E-02  0.1513956E+00
          2   -1    0    0  502    0  0.00000000000E+00  0.00000000000E+00  0.39746501425E+03  0.39746501425E+03  0.00000000000E+00 0. -1.
          1   -1    0    0  501    0 -0.00000000000E+00 -0.00000000000E+00 -0.17363181378E+03  0.17363181378E+03  0.00000000000E+00 0. -1.
         25    2    1    2    0    0  0.17531249489E+02 -0.90157320673E+02 -0.58549596932E+02  0.16579679623E+03  0.12499934063E+03 0.  0.
          2    1    1    2  501    0  0.73318987039E+01  0.18857916581E+02 -0.55504932535E+02  0.59077705542E+02  0.00000000000E+00 0. -1.
          1    1    1    2  502    0 -0.24863148193E+02  0.71299404092E+02  0.33788772993E+03  0.34622232626E+03  0.00000000000E+00 0. -1.
         22    1    3    3    0    0 -0.52597844474E+01  0.31066221678E+02 -0.15828568726E+02  0.35260729568E+02  0.00000000000E+00 0.  1.
         22    1    3    3    0    0  0.22791033937E+02 -0.12122354235E+03 -0.42721028206E+02  0.13053606666E+03  0.00000000000E+00 0.  1.
</event>
<event>
 7    1  0.5553952E-006  0.4901965E+02  0.7818608E-02  0.1513629E+00
          2   -1    0    0  502    0  0.00000000000E+00  0.00000000000E+00  0.12375103994E+04  0.12375103994E+04  0.00000000000E+00 0. -1.
          1   -1    0    0  501    0 -0.00000000000E+00 -0.00000000000E+00 -0.32630033063E+02  0.32630033063E+02  0.00000000000E+00 0. -1.
         25    2    1    2    0    0  0.16029994502E+02 -0.15900900726E+02  0.26737536671E+03  0.29601604568E+03  0.12500445277E+03 0.  0.
          2    1    1    2  501    0 -0.45752017467E+02  0.26226745234E+02  0.20501013181E+02  0.56580745924E+02  0.00000000000E+00 0. -1.
          1    1    1    2  502    0  0.29722022965E+02 -0.10325844508E+02  0.91700398640E+03  0.91754364081E+03  0.00000000000E+00 0. -1.
         22    1    3    3    0    0  0.74435287768E+01  0.47111398842E+02  0.48234228700E+02  0.67833847302E+02  0.00000000000E+00 0. -1.
         22    1    3    3    0    0  0.85864657251E+01 -0.63012299569E+02  0.21914113800E+03  0.22818219838E+03  0.00000000000E+00 0. -1.
</event>
<event>
 7    1  0.5553952E-006  0.1236838E+03  0.7818608E-02  0.1286292E+00
          2   -1    0    0  502    0  0.00000000000E+00  0.00000000000E+00  0.12874765550E+04  0.12874765550E+04  0.00000000000E+00 0. -1.
          1   -1    0    0  501    0 -0.00000000000E+00 -0.00000000000E+00 -0.56410535704E+03  0.56410535704E+03  0.00000000000E+00 0. -1.
         25    2    1    2    0    0 -0.14576261262E+03 -0.75903907303E+02 -0.28253677922E+03  0.34994201507E+03  0.12499695964E+03 0.  0.
          2    1    1    2  501    0  0.72660990641E+02 -0.23577560722E+02 -0.23885336721E+03  0.25077171283E+03  0.00000000000E+00 0. -1.
          1    1    1    2  502    0  0.73101621975E+02  0.99481468024E+02  0.12447613444E+04  0.12508681841E+04  0.00000000000E+00 0. -1.
         22    1    3    3    0    0 -0.13513693166E+03 -0.20248189991E+02 -0.24919009416E+03  0.28419655614E+03  0.00000000000E+00 0.  1.
         22    1    3    3    0    0 -0.10625680959E+02 -0.55655717312E+02 -0.33346685060E+02  0.65745458929E+02  0.00000000000E+00 0.  1.
</event>
<event>
 7    1  0.5553952E-006  0.5034863E+02  0.7818608E-02  0.1473260E+00
          2   -1    0    0  502    0  0.00000000000E+00  0.00000000000E+00  0.36462159123E+03  0.36462159123E+03  0.00000000000E+00 0. -1.
          1   -1    0    0  501    0 -0.00000000000E+00 -0.00000000000E+00 -0.13006224143E+03  0.13006224143E+03  0.00000000000E+00 0. -1.
         25    2    1    2    0    0  0.16764603698E+02  0.88060449760E+02  0.13640390195E+02  0.15442270886E+03  0.12499847207E+03 0.  0.
          2    1    1    2  501    0 -0.70624006521E+01 -0.39910696710E+02 -0.50318731324E+02  0.64612041733E+02  0.00000000000E+00 0. -1.
          1    1    1    2  502    0 -0.97022030458E+01 -0.48149753051E+02  0.27123769093E+03  0.27564908207E+03  0.00000000000E+00 0. -1.
         22    1    3    3    0    0  0.20491869079E+02  0.81379676630E+02  0.62708839611E+02  0.10476147685E+03  0.00000000000E+00 0.  1.
         22    1    3    3    0    0 -0.37272653809E+01  0.66807731302E+01 -0.49068449416E+02  0.49661232012E+02  0.00000000000E+00 0.  1.
</event>
<event>
 7    1  0.5553952E-006  0.5577224E+02  0.7818608E-02  0.1532180E+00
          2   -1    0    0  502    0  0.00000000000E+00  0.00000000000E+00  0.10667322173E+03  0.10667322173E+03  0.00000000000E+00 0. -1.
          1   -1    0    0  501    0 -0.00000000000E+00 -0.00000000000E+00 -0.62568557086E+03  0.62568557086E+03  0.00000000000E+00 0. -1.
         25    2    1    2    0    0 -0.20606956994E+02  0.30359376515E+02 -0.75251669878E+02  0.15044678614E+03  0.12500033288E+03 0.  0.
          2    1    1    2  501    0 -0.23247690755E+02  0.75427018812E+01 -0.50032545567E+03  0.50092205888E+03  0.00000000000E+00 0. -1.
          1    1    1    2  502    0  0.43854647749E+02 -0.37902078396E+02  0.56564776425E+02  0.80989947573E+02  0.00000000000E+00 0. -1.
         22    1    3    3    0    0  0.28625669697E+02 -0.46944061191E+01 -0.84468923717E+02  0.89311060281E+02  0.00000000000E+00 0.  1.
         22    1    3    3    0    0 -0.49232626691E+02  0.35053782634E+02  0.92172538392E+01  0.61135725858E+02  0.00000000000E+00 0.  1.
</event>
<event>
 7    1  0.5553952E-006  0.1106825E+03  0.7818608E-02  0.1373114E+00
          2   -1    0    0  502    0  0.00000000000E+00  0.00000000000E+00  0.20334473752E+03  0.20334473752E+03  0.00000000000E+00 0. -1.
          1   -1    0    0  501    0 -0.00000000000E+00 -0.00000000000E+00 -0.30842713560E+03  0.30842713560E+03  0.00000000000E+00 0. -1.
         25    2    1    2    0    0  0.61748138525E+02  0.11575132632E+03  0.92749659606E+02  0.20356953649E+03  0.12500741847E+03 0.  0.
          2    1    1    2  501    0 -0.30381150519E+02 -0.25594671457E+02 -0.20840852657E+03  0.21216082452E+03  0.00000000000E+00 0. -1.
          1    1    1    2  502    0 -0.31366988007E+02 -0.90156654867E+02  0.10576468882E+02  0.96041512105E+02  0.00000000000E+00 0. -1.
         22    1    3    3    0    0 -0.24494519922E+02  0.86863890806E+02  0.45166934611E+02  0.10092258922E+03  0.00000000000E+00 0.  1.
         22    1    3    3    0    0  0.86242658447E+02  0.28887435518E+02  0.47582724995E+02  0.10264694727E+03  0.00000000000E+00 0.  1.
</event>
<event>
 7    1  0.5553952E-006  0.1281104E+03  0.7818608E-02  0.1352027E+00
          2   -1    0    0  502    0  0.00000000000E+00  0.00000000000E+00  0.73599808672E+03  0.73599808672E+03  0.00000000000E+00 0. -1.
          1   -1    0    0  501    0 -0.00000000000E+00 -0.00000000000E+00 -0.50875639643E+02  0.50875639643E+02  0.00000000000E+00 0. -1.
         25    2    1    2    0    0 -0.12005877000E+03  0.15697034834E+02  0.20014589689E+03  0.26522106809E+03  0.12499331886E+03 0.  0.
          2    1    1    2  501    0  0.13348782367E+01  0.40925539517E+02  0.38502676186E+02  0.56206207470E+02  0.00000000000E+00 0. -1.
          1    1    1    2  502    0  0.11872389176E+03 -0.56622574351E+02  0.44647387401E+03  0.46544645081E+03  0.00000000000E+00 0. -1.
         22    1    3    3    0    0 -0.12409011629E+03  0.52015057319E+02  0.17551044621E+03  0.22115116974E+03  0.00000000000E+00 0.  1.
         22    1    3    3    0    0  0.40313462912E+01 -0.36318022486E+02  0.24635450675E+02  0.44069898345E+02  0.00000000000E+00 0.  1.
</event>
<event>
 7    1  0.8233680E-006  0.7335576E+02  0.7818608E-02  0.1353837E+00
          2   -1    0    0  502    0  0.00000000000E+00  0.00000000000E+00  0.15184099353E+04  0.15184099353E+04  0.00000000000E+00 0. -1.
          1   -1    0    0  501    0 -0.00000000000E+00 -0.00000000000E+00 -0.13080729742E+04  0.13080729742E+04  0.00000000000E+00 0. -1.
         25    2    1    2    0    0  0.11213985475E+03 -0.73810529406E+02 -0.14423649178E+03  0.23335072347E+03  0.12500021323E+03 0.  0.
          2    1    1    2  501    0 -0.40923851481E+02  0.57308535509E+02 -0.11172636732E+04  0.11194807481E+04  0.00000000000E+00 0. -1.
          1    1    1    2  502    0 -0.71216003271E+02  0.16501993897E+02  0.14718371261E+04  0.14736514379E+04  0.00000000000E+00 0. -1.
         22    1    3    3    0    0  0.10410242276E+03 -0.10697384553E+03 -0.11937317161E+03  0.19112998758E+03  0.00000000000E+00 0. -1.
         22    1    3    3    0    0  0.80374319933E+01  0.33163316123E+02 -0.24863320178E+02  0.42220735896E+02  0.00000000000E+00 0. -1.
</event>
<event>
 7    1  0.5553952E-006  0.6222658E+02  0.7818608E-02  0.1390480E+00
          2   -1    0    0  502    0  0.00000000000E+00  0.00000000000E+00  0.17929905732E+02  0.17929905732E+02  0.00000000000E+00 0. -1.
          1   -1    0    0  501    0 -0.00000000000E+00 -0.00000000000E+00 -0.31432273869E+04  0.31432273869E+04  0.00000000000E+00 0. -1.
         25    2    1    2    0    0 -0.25981679437E+02 -0.54096906653E+01 -0.55914499715E+03  0.57356146905E+03  0.12500127408E+03 0.  0.
          2    1    1    2  501    0 -0.28312355284E+01 -0.61286152083E+02 -0.24488348711E+04  0.24496032810E+04  0.00000000000E+00 0. -1.
          1    1    1    2  502    0  0.28812914966E+02  0.66695842749E+02 -0.11731761290E+03  0.13799254258E+03  0.00000000000E+00 0. -1.
         22    1    3    3    0    0 -0.75008754674E+02 -0.15258826872E+02 -0.29815206576E+03  0.30782105092E+03  0.00000000000E+00 0.  1.
         22    1    3    3    0    0  0.49027075237E+02  0.98491362065E+01 -0.26099293139E+03  0.26574041813E+03  0.00000000000E+00 0.  1.
</event>
<event>
 7    1  0.5553952E-006  0.3919819E+02  0.7818608E-02  0.1589273E+00
          2   -1    0    0  502    0  0.00000000000E+00  0.00000000000E+00  0.53480861524E+03  0.53480861524E+03  0.00000000000E+00 0. -1.
          1   -1    0    0  501    0 -0.00000000000E+00 -0.00000000000E+00 -0.10520329296E+04  0.10520329296E+04  0.00000000000E+00 0. -1.
         25    2    1    2    0    0  0.23546816863E+02 -0.53588982989E+02 -0.42240681794E+02  0.14434579401E+03  0.12500080547E+03 0.  0.
          2    1    1    2  501    0 -0.43447091323E+01  0.38825567767E+02 -0.95803812950E+03  0.95883437505E+03  0.00000000000E+00 0. -1.
          1    1    1    2  502    0 -0.19202107730E+02  0.14763415222E+02  0.48305449696E+03  0.48366137576E+03  0.00000000000E+00 0. -1.
         22    1    3    3    0    0 -0.42599532029E+02 -0.33964138293E+02  0.12940193748E+02  0.55997602032E+02  0.00000000000E+00 0. -1.
         22    1    3    3    0    0  0.66146348891E+02 -0.19624844696E+02 -0.55180875543E+02  0.88348191983E+02  0.00000000000E+00 0. -1.
</event>
<event>
 7    1  0.5553952E-006  0.9755661E+02  0.7818608E-02  0.1298333E+00
          2   -1    0    0  502    0  0.00000000000E+00  0.00000000000E+00  0.87229675210E+02  0.87229675210E+02  0.00000000000E+00 0. -1.
          1   -1    0    0  501    0 -0.00000000000E+00 -0.00000000000E+00 -0.54972462436E+03  0.54972462436E+03  0.00000000000E+00 0. -1.
         25    2    1    2    0    0  0.75560921107E+01 -0.36263006134E+02 -0.34347384901E+02  0.13482626801E+03  0.12500511811E+03 0.  0.
          2    1    1    2  501    0 -0.91613745687E+02  0.56912460217E+02 -0.39496978630E+03  0.40943038311E+03  0.00000000000E+00 0. -1.
          1    1    1    2  502    0  0.84057653576E+02 -0.20649454083E+02 -0.33177777951E+02  0.92697648451E+02  0.00000000000E+00 0. -1.
         22    1    3    3    0    0 -0.84819780473E+01 -0.28548767051E+02  0.44748355023E+02  0.53753058787E+02  0.00000000000E+00 0.  1.
         22    1    3    3    0    0  0.16038070158E+02 -0.77142390834E+01 -0.79095739924E+02  0.81073209219E+02  0.00000000000E+00 0.  1.
</event>
<event>
 7    1  0.5553952E-006  0.6491708E+02  0.7818608E-02  0.1400075E+00
          2   -1    0    0  502    0  0.00000000000E+00  0.00000000000E+00  0.37985731184E+04  0.37985731184E+04  0.00000000000E+00 0. -1.
          1   -1    0    0  501    0 -0.00000000000E+00 -0.00000000000E+00 -0.40931241973E+02  0.40931241973E+02  0.00000000000E+00 0. -1.
         25    2    1    2    0    0  0.69544815799E+01  0.12677032250E+02  0.34396228812E+04  0.34419240432E+04  0.12500593009E+03 0.  0.
          2    1    1    2  501    0  0.91815490969E+01 -0.64710084686E+02 -0.90709822699E+01  0.65984684763E+02  0.00000000000E+00 0. -1.
          1    1    1    2  502    0 -0.16136030677E+02  0.52033052436E+02  0.32708997745E+03  0.33159563233E+03  0.00000000000E+00 0. -1.
         22    1    3    3    0    0  0.10002949063E+02 -0.34954488449E+02  0.28910836604E+04  0.28913122637E+04  0.00000000000E+00 0.  1.
         22    1    3    3    0    0 -0.30484674827E+01  0.47631520699E+02  0.54853922085E+03  0.55061177950E+03  0.00000000000E+00 0.  1.
</event>
<event>
 7    1  0.5553952E-006  0.4223441E+02  0.7818608E-02  0.1495986E+00
          2   -1    0    0  502    0  0.00000000000E+00  0.00000000000E+00  0.82868312165E+02  0.82868312165E+02  0.00000000000E+00 0. -1.
          1   -1    0    0  501    0 -0.00000000000E+00 -0.00000000000E+00 -0.18589320027E+04  0.18589320027E+04  0.00000000000E+00 0. -1.
         25    2    1    2    0    0 -0.55607601944E+02 -0.15867953651E+02 -0.17606956180E+03  0.22354111411E+03  0.12500456695E+03 0.  0.
          2    1    1    2  501    0  0.35313942246E+02 -0.21209604138E+02 -0.16512835629E+04  0.16517973020E+04  0.00000000000E+00 0. -1.
          1    1    1    2  502    0  0.20293659698E+02  0.37077557789E+02  0.51289434217E+02  0.66461898693E+02  0.00000000000E+00 0. -1.
         22    1    3    3    0    0 -0.48523956497E+02  0.14254714059E+02 -0.62893698066E+01  0.50963981395E+02  0.00000000000E+00 0. -1.
         22    1    3    3    0    0 -0.70836454462E+01 -0.30122667711E+02 -0.16978019200E+03  0.17257713272E+03  0.00000000000E+00 0. -1.
</event>
<event>
 7    1  0.5553952E-006  0.1103316E+03  0.7818608E-02  0.1364842E+00
          2   -1    0    0  502    0  0.00000000000E+00  0.00000000000E+00  0.59913178604E+03  0.59913178604E+03  0.00000000000E+00 0. -1.
          1   -1    0    0  501    0 -0.00000000000E+00 -0.00000000000E+00 -0.14518200198E+04  0.14518200198E+04  0.00000000000E+00 0. -1.
         25    2    1    2    0    0 -0.82478911734E+02  0.58260248588E+02  0.54915087426E+02  0.16981616652E+03  0.12499934455E+03 0.  0.
          2    1    1    2  501    0 -0.26841113709E+02 -0.33184014373E+02 -0.13875761508E+04  0.13882324008E+04  0.00000000000E+00 0. -1.
          1    1    1    2  502    0  0.10932002544E+03 -0.25076234214E+02  0.47997282959E+03  0.49290323861E+03  0.00000000000E+00 0. -1.
         22    1    3    3    0    0 -0.73980329577E+02  0.36345004432E+02  0.93494225519E+02  0.12464035750E+03  0.00000000000E+00 0.  1.
         22    1    3    3    0    0 -0.84985821569E+01  0.21915244155E+02 -0.38579138093E+02  0.45175809025E+02  0.00000000000E+00 0.  1.
</event>
<event>
 7    1  0.1159547E-005  0.8014395E+02  0.7818608E-02  0.1372480E+00
          2   -1    0    0  502    0  0.00000000000E+00  0.00000000000E+00  0.14455731355E+04  0.14455731355E+04  0.00000000000E+00 0. -1.
          1   -1    0    0  501    0 -0.00000000000E+00 -0.00000000000E+00 -0.98542990543E+03  0.98542990543E+03  0.00000000000E+00 0. -1.
         25    2    1    2    0    0  0.96896358091E+02  0.74024677327E+02 -0.33177974767E+03  0.37492856091E+03  0.12500027102E+03 0.  0.
          2    1    1    2  501    0 -0.72129367940E+02 -0.24749037086E+02 -0.62923894318E+03  0.63384288918E+03  0.00000000000E+00 0. -1.
          1    1    1    2  502    0 -0.24766990151E+02 -0.49275640241E+02  0.14211619209E+04  0.14222315909E+04  0.00000000000E+00 0. -1.
         22    1    3    3    0    0  0.56339001926E+02  0.10469978265E+03 -0.26924443684E+03  0.29432752911E+03  0.00000000000E+00 0.  1.
         22    1    3    3    0    0  0.40557356165E+02 -0.30675105324E+02 -0.62535310835E+02  0.80601031798E+02  0.00000000000E+00 0.  1.
</event>
<event>
 7    1  0.5553952E-006  0.1021569E+03  0.7818608E-02  0.1335803E+00
          2   -1    0    0  502    0  0.00000000000E+00  0.00000000000E+00  0.46682964276E+03  0.46682964276E+03  0.00000000000E+00 0. -1.
          1   -1    0    0  501    0 -0.00000000000E+00 -0.00000000000E+00 -0.24965603837E+03  0.24965603837E+03  0.00000000000E+00 0. -1.
         25    2    1    2    0    0 -0.33227150033E+02  0.11970786635E+03 -0.17421114352E+03  0.24780748397E+03  0.12500003928E+03 0.  0.
          2    1    1    2  501    0 -0.97990410232E+01 -0.79265598461E+02  0.74350681803E+01  0.80214316323E+02  0.00000000000E+00 0. -1.
          1    1    1    2  502    0  0.43026191056E+02 -0.40442267884E+02  0.38394967973E+03  0.38846388083E+03  0.00000000000E+00 0. -1.
         22    1    3    3    0    0 -0.72941481209E+00  0.13550889386E+03 -0.15814336152E+03  0.20826069038E+03  0.00000000000E+00 0.  1.
         22    1    3    3    0    0 -0.32497735221E+02 -0.15801027519E+02 -0.16067781995E+02  0.39546793592E+02  0.00000000000E+00 0.  1.
</event>
<event>
 7    1  0.5553952E-006  0.1149940E+03  0.7818608E-02  0.1284619E+00
          2   -1    0    0  502    0  0.00000000000E+00  0.00000000000E+00  0.16906027747E+04  0.16906027747E+04  0.00000000000E+00 0. -1.
          1   -1    0    0  501    0 -0.00000000000E+00 -0.00000000000E+00 -0.25432609773E+02  0.25432609773E+02  0.00000000000E+00 0. -1.
         25    2    1    2    0    0 -0.83759274770E+02  0.25425265832E+02  0.55757528115E+03  0.57808200066E+03  0.12500618018E+03 0.  0.
          2    1    1    2  501    0  0.13489229827E+03  0.40549528679E+02  0.37434708882E+03  0.39996992302E+03  0.00000000000E+00 0. -1.
          1    1    1    2  502    0 -0.51133023501E+02 -0.65974794511E+02  0.73324779491E+03  0.73798346075E+03  0.00000000000E+00 0. -1.
         22    1    3    3    0    0 -0.94279644083E+02  0.12616968647E+02  0.55267078758E+03  0.56079661075E+03  0.00000000000E+00 0. -1.
         22    1    3    3    0    0  0.10520369313E+02  0.12808297185E+02  0.49044935777E+01  0.17285389915E+02  0.00000000000E+00 0. -1.
</event>
<event>
 7    1  0.5553952E-006  0.8855775E+02  0.7818608E-02  0.1358212E+00
          2   -1    0    0  502    0  0.00000000000E+00  0.00000000000E+00  0.16584565410E+04  0.16584565410E+04  0.00000000000E+00 0. -1.
          1   -1    0    0  501    0 -0.00000000000E+00 -0.00000000000E+00 -0.51070928695E+03  0.51070928695E+03  0.00000000000E+00 0. -1.
         25    2    1    2    0    0 -0.57860972700E+02  0.74184198948E+01  0.48406394831E+03  0.50333411884E+03  0.12499761607E+03 0.  0.
          2    1    1    2  501    0  0.62256321595E+02 -0.63460257278E+02 -0.49644522205E+03  0.50434205886E+03  0.00000000000E+00 0. -1.
          1    1    1    2  502    0 -0.43953488943E+01  0.56041837383E+02  0.11601285278E+04  0.11614896503E+04  0.00000000000E+00 0. -1.
         22    1    3    3    0    0 -0.48182231574E+02 -0.12815942836E+02  0.57190543723E+02  0.75871826929E+02  0.00000000000E+00 0.  1.
         22    1    3    3    0    0 -0.96787411267E+01  0.20234362731E+02  0.42687340458E+03  0.42746229191E+03  0.00000000000E+00 0.  1.
</event>
<event>
 7    1  0.5553952E-006  0.5953910E+02  0.7818608E-02  0.1518813E+00
          2   -1    0    0  502    0  0.00000000000E+00  0.00000000000E+00  0.73414009391E+03  0.73414009391E+03  0.00000000000E+00 0. -1.
          1   -1    0    0  501    0 -0.00000000000E+00 -0.00000000000E+00 -0.21795785286E+03  0.21795785286E+03  0.00000000000E+00 0. -1.
         25    2    1    2    0    0  0.64839063603E+02  0.31603419528E+02  0.29617954884E+03  0.32946382876E+03  0.12498483513E+03 0.  0.
          2    1    1    2  501    0 -0.23204355817E+02  0.93529568273E+01 -0.19850281005E+03  0.20007320042E+03  0.00000000000E+00 0. -1.
          1    1    1    2  502    0 -0.41634707786E+02 -0.40956376355E+02  0.41850550225E+03  0.42256091759E+03  0.00000000000E+00 0. -1.
         22    1    3    3    0    0  0.64898998468E+02 -0.37440152642E+02  0.16536408202E+03  0.18154592988E+03  0.00000000000E+00 0.  1.
         22    1    3    3    0    0 -0.59934864902E-01  0.69043572170E+02  0.13081546682E+03  0.14791789888E+03  0.00000000000E+00 0.  1.
</event>
<event>
 7    1  0.5553952E-006  0.1555369E+03  0.7818608E-02  0.1287542E+00
          2   -1    0    0  502    0  0.00000000000E+00  0.00000000000E+00  0.13958570747E+04  0.13958570747E+04  0.00000000000E+00 0. -1.
          1   -1    0    0  501    0 -0.00000000000E+00 -0.00000000000E+00 -0.10956849837E+03  0.10956849837E+03  0.00000000000E+00 0. -1.
         25    2    1    2    0    0  0.55073637199E+02 -0.94793705125E+02  0.27513944649E+03  0.32147737994E+03  0.12500815475E+03 0.  0.
          2    1    1    2  501    0 -0.71122997192E+02  0.15264437425E+03 -0.26021504914E+01  0.16842077339E+03  0.00000000000E+00 0. -1.
          1    1    1    2  502    0  0.16049359994E+02 -0.57850669129E+02  0.10137512803E+04  0.10155274197E+04  0.00000000000E+00 0. -1.
         22    1    3    3    0    0  0.31992833242E+02  0.53594385252E+01  0.54837978376E+01  0.32898890542E+02  0.00000000000E+00 0. -1.
         22    1    3    3    0    0  0.23080803957E+02 -0.10015314365E+03  0.26965564865E+03  0.28857848940E+03  0.00000000000E+00 0. -1.
</event>
<event>
 7    1  0.5553952E-006  0.8281188E+02  0.7818608E-02  0.1356252E+00
          2   -1    0    0  502    0  0.00000000000E+00  0.00000000000E+00  0.11127543260E+04  0.11127543260E+04  0.00000000000E+00 0. -1.
          1   -1    0    0  501    0 -0.00000000000E+00 -0.00000000000E+00 -0.14453671708E+03  0.14453671708E+03  0.00000000000E+00 0. -1.
         25    2    1    2    0    0 -0.89057102199E+02  0.65155148588E+02  0.44558065291E+03  0.47575521055E+03  0.12499816511E+03 0.  0.
          2    1    1    2  501    0  0.29139131388E+02 -0.77200904389E+02 -0.11468732547E+03  0.14128783118E+03  0.00000000000E+00 0. -1.
          1    1    1    2  502    0  0.59917970811E+02  0.12045755802E+02  0.63732428150E+03  0.64024800136E+03  0.00000000000E+00 0. -1.
         22    1    3    3    0    0  0.28054375797E+02 -0.71140757197E+01  0.86084825594E+02  0.90819905705E+02  0.00000000000E+00 0. -1.
         22    1    3    3    0    0 -0.11711147800E+03  0.72269224308E+02  0.35949582731E+03  0.38493530484E+03  0.00000000000E+00 0. -1.
</event>
<event>
 7    1  0.1127500E-005  0.8509127E+02  0.7818608E-02  0.1350183E+00
          2   -1    0    0  502    0  0.00000000000E+00  0.00000000000E+00  0.11595565574E+04  0.11595565574E+04  0.00000000000E+00 0. -1.
          1   -1    0    0  501    0 -0.00000000000E+00 -0.00000000000E+00 -0.75161628435E+03  0.75161628435E+03  0.00000000000E+00 0. -1.
         25    2    1    2    0    0  0.37881187483E+02  0.31820781979E+02 -0.31820672663E+03  0.34544019833E+03  0.12500345283E+03 0.  0.
          2    1    1    2  501    0  0.46904808464E+02 -0.41494482347E+02 -0.41585637958E+03  0.42054533830E+03  0.00000000000E+00 0. -1.
          1    1    1    2  502    0 -0.84785995947E+02  0.96737003687E+01  0.11420033793E+04  0.11451873051E+04  0.00000000000E+00 0. -1.
         22    1    3    3    0    0 -0.25760209127E+02  0.45932299287E+02 -0.22885993265E+03  0.23484086796E+03  0.00000000000E+00 0. -1.
         22    1    3    3    0    0  0.63641396610E+02 -0.14111517309E+02 -0.89346793973E+02  0.11059933036E+03  0.00000000000E+00 0. -1.
</event>
<event>
 7    1  0.6842954E-006  0.6681409E+02  0.7818608E-02  0.1418583E+00
          2   -1    0    0  502    0  0.00000000000E+00  0.00000000000E+00  0.13821800892E+04  0.13821800892E+04  0.00000000000E+00 0. -1.
          1   -1    0    0  501    0 -0.00000000000E+00 -0.00000000000E+00 -0.15598089766E+04  0.15598089766E+04  0.00000000000E+00 0. -1.
         25    2    1    2    0    0  0.14768058747E+01  0.31337432768E+02 -0.91489886725E+03  0.92393124501E+03  0.12499917028E+03 0.  0.
          2    1    1    2  501    0  0.41118428882E+02  0.20186248161E+02 -0.63876230689E+03  0.64040260345E+03  0.00000000000E+00 0. -1.
          1    1    1    2  502    0 -0.42595234757E+02 -0.51523680928E+02  0.13760322867E+04  0.13776552174E+04  0.00000000000E+00 0. -1.
         22    1    3    3    0    0  0.33163955709E+02  0.49938403501E+02 -0.21881098379E+03  0.22687427956E+03  0.00000000000E+00 0.  1.
         22    1    3    3    0    0 -0.31687149834E+02 -0.18600970734E+02 -0.69608788346E+03  0.69705696545E+03  0.00000000000E+00 0.  1.
</event>
<event>
 7    1  0.5553952E-006  0.2945864E+02  0.7818608E-02  0.1646724E+00
          2   -1    0    0  502    0  0.00000000000E+00  0.00000000000E+00  0.70933610793E+03  0.70933610793E+03  0.00000000000E+00 0. -1.
          1   -1    0    0  501    0 -0.00000000000E+00 -0.00000000000E+00 -0.83846185011E+03  0.83846185011E+03  0.00000000000E+00 0. -1.
         25    2    1    2    0    0 -0.40445051617E+02  0.19521026388E+02 -0.19626184948E+03  0.23698238240E+03  0.12500025334E+03 0.  0.
          2    1    1    2  501    0  0.29271677550E+02  0.56964042833E+00 -0.62130316453E+03  0.62199258665E+03  0.00000000000E+00 0. -1.
          1    1    1    2  502    0  0.11173374066E+02 -0.20090666816E+02  0.68843927182E+03  0.68882298900E+03  0.00000000000E+00 0. -1.
         22    1    3    3    0    0 -0.74311575122E+02 -0.20485945611E+02 -0.14177888437E+03  0.16137885926E+03  0.00000000000E+00 0. -1.
         22    1    3    3    0    0  0.33866523505E+02  0.40006971999E+02 -0.54482965108E+02  0.75603523131E+02  0.00000000000E+00 0. -1.
</event>
<event>
 7    1  0.5553952E-006  0.5233037E+02  0.7818608E-02  0.1479729E+00
          2   -1    0    0  502    0  0.00000000000E+00  0.00000000000E+00  0.24338269262E+04  0.24338269262E+04  0.00000000000E+00 0. -1.
          1   -1    0    0  501    0 -0.00000000000E+00 -0.00000000000E+00 -0.13217800589E+04  0.13217800589E+04  0.00000000000E+00 0. -1.
         25    2    1    2    0    0 -0.69901486317E+02 -0.25794401349E+02  0.19451118603E+02  0.14681446357E+03  0.12499828706E+03 0.  0.
          2    1    1    2  501    0  0.34995359139E+02  0.38786997122E+02 -0.12574084453E+04  0.12584931881E+04  0.00000000000E+00 0. -1.
          1    1    1    2  502    0  0.34906127178E+02 -0.12992595773E+02  0.23500041940E+04  0.23502993335E+04  0.00000000000E+00 0. -1.
         22    1    3    3    0    0  0.13377951380E+02  0.22665950132E+02 -0.28834123906E+02  0.39039999743E+02  0.00000000000E+00 0. -1.
         22    1    3    3    0    0 -0.83279437697E+02 -0.48460351481E+02  0.48285242509E+02  0.10777446383E+03  0.00000000000E+00 0. -1.
</event>
<event>
 7    1  0.6922070E-006  0.8778622E+02  0.7818608E-02  0.1352649E+00
          2   -1    0    0  502    0  0.00000000000E+00  0.00000000000E+00  0.11528211005E+04  0.11528211005E+04  0.00000000000E+00 0. -1.
          1   -1    0    0  501    0 -0.00000000000E+00 -0.00000000000E+00 -0.73574458580E+03  0.73574458580E+03  0.00000000000E+00 0. -1.
         25    2    1    2    0    0 -0.13721761387E+03 -0.26668600961E+02 -0.23322968264E+03  0.29926751551E+03  0.12500029257E+03 0.  0.
          2    1    1    2  501    0  0.77776556847E+02  0.26694465105E+02 -0.46509799336E+03  0.47231126462E+03  0.00000000000E+00 0. -1.
          1    1    1    2  502    0  0.59441057024E+02 -0.25864143635E-01  0.11154041907E+04  0.11169869062E+04  0.00000000000E+00 0. -1.
         22    1    3    3    0    0 -0.81902472116E+02  0.45178162062E+02 -0.14636315382E+03  0.17369874514E+03  0.00000000000E+00 0. -1.
         22    1    3    3    0    0 -0.55315141755E+02 -0.71846763024E+02 -0.86866528819E+02  0.12556877037E+03  0.00000000000E+00 0. -1.
</event>
<event>
 7    1  0.5553952E-006  0.1567765E+03  0.7818608E-02  0.1210519E+00
          2   -1    0    0  502    0  0.00000000000E+00  0.00000000000E+00  0.26067177246E+04  0.26067177246E+04  0.00000000000E+00 0. -1.
          1   -1    0    0  501    0 -0.00000000000E+00 -0.00000000000E+00 -0.10832836296E+03  0.10832836296E+03  0.00000000000E+00 0. -1.
         25    2    1    2    0    0 -0.94515220644E+02  0.69024216192E+02  0.13780770702E+03  0.21980312521E+03  0.12499992154E+03 0.  0.
          2    1    1    2  501    0  0.66111639419E+02 -0.19466740445E+03  0.95819488243E+02  0.22682046105E+03  0.00000000000E+00 0. -1.
          1    1    1    2  502    0  0.28403581225E+02  0.12564318826E+03  0.22647621664E+04  0.22684225013E+04  0.00000000000E+00 0. -1.
         22    1    3    3    0    0 -0.18628665572E+02 -0.19424160100E+02 -0.12444854396E+02  0.29651299761E+02  0.00000000000E+00 0. -1.
         22    1    3    3    0    0 -0.75886555072E+02  0.88448376292E+02  0.15025256142E+03  0.19015182545E+03  0.00000000000E+00 0. -1.
</event>
<event>
 7    1  0.5553952E-006  0.1348311E+03  0.7818608E-02  0.1345238E+00
          2   -1    0    0  502    0  0.00000000000E+00  0.00000000000E+00  0.13534903747E+04  0.13534903747E+04  0.00000000000E+00 0. -1.
          1   -1    0    0  501    0 -0.00000000000E+00 -0.00000000000E+00 -0.85371726793E+02  0.85371726793E+02  0.00000000000E+00 0. -1.
         25    2    1    2    0    0 -0.10807931321E+03 -0.11644602951E+03  0.71476517184E+03  0.74280219466E+03  0.12500013518E+03 0.  0.
          2    1    1    2  501    0  0.66871940450E+02  0.11504213342E+03 -0.78940623223E+01  0.13329990661E+03  0.00000000000E+00 0. -1.
          1    1    1    2  502    0  0.41207372764E+02  0.14038960885E+01  0.56124753840E+03  0.56276000023E+03  0.00000000000E+00 0. -1.
         22    1    3    3    0    0  0.15409532984E+02  0.23213619116E+01  0.12612029024E+02  0.20047585989E+02  0.00000000000E+00 0. -1.
         22    1    3    3    0    0 -0.12348884620E+03 -0.11876739142E+03  0.70215314281E+03  0.72275460867E+03  0.00000000000E+00 0. -1.
</event>
<event>
 7    1  0.5553952E-006  0.2514465E+03  0.7818608E-02  0.1187026E+00
          2   -1    0    0  502    0  0.00000000000E+00  0.00000000000E+00  0.33446098867E+03  0.33446098867E+03  0.00000000000E+00 0. -1.
          1   -1    0    0  501    0 -0.00000000000E+00 -0.00000000000E+00 -0.14359418817E+04  0.14359418817E+04  0.00000000000E+00 0. -1.
         25    2    1    2    0    0 -0.15934350589E+03 -0.21041499540E+03 -0.34594913156E+03  0.45273630775E+03  0.12499815827E+03 0.  0.
          2    1    1    2  501    0  0.21907477728E+03  0.12562768876E+03 -0.10109389125E+04  0.10420045868E+04  0.00000000000E+00 0. -1.
          1    1    1    2  502    0 -0.59731271394E+02  0.84787306646E+02  0.25540715096E+03  0.27566197582E+03  0.00000000000E+00 0. -1.
         22    1    3    3    0    0 -0.86923687295E+01 -0.10453781373E+03 -0.15772644250E+03  0.18942371139E+03  0.00000000000E+00 0.  1.
         22    1    3    3    0    0 -0.15065113716E+03 -0.10587718167E+03 -0.18822268906E+03  0.26331259636E+03  0.00000000000E+00 0.  1.
</event>
<event>
 7    1  0.5553952E-006  0.1201015E+03  0.7818608E-02  0.1282244E+00
          2   -1    0    0  502    0  0.00000000000E+00  0.00000000000E+00  0.10630558334E+04  0.10630558334E+04  0.00000000000E+00 0. -1.
          1   -1    0    0  501    0 -0.00000000000E+00 -0.00000000000E+00 -0.16734849028E+03  0.16734849028E+03  0.00000000000E+00 0. -1.
         25    2    1    2    0    0  0.74920851536E+02  0.12047753888E+03  0.36364836170E+03  0.40987232323E+03  0.12500887574E+03 0.  0.
          2    1    1    2  501    0  0.35383425253E+02 -0.73681509457E+02 -0.12680266935E+03  0.15086374175E+03  0.00000000000E+00 0. -1.
          1    1    1    2  502    0 -0.11030427679E+03 -0.46796029423E+02  0.65886165079E+03  0.66966825872E+03  0.00000000000E+00 0. -1.
         22    1    3    3    0    0  0.85935632155E+02  0.10208813360E+03  0.17531557786E+03  0.22032356147E+03  0.00000000000E+00 0. -1.
         22    1    3    3    0    0 -0.11014780619E+02  0.18389405279E+02  0.18833278384E+03  0.18954876176E+03  0.00000000000E+00 0. -1.
</event>
<event>
 7    1  0.5553952E-006  0.6406535E+02  0.7818608E-02  0.1398539E+00
          2   -1    0    0  502    0  0.00000000000E+00  0.00000000000E+00  0.22259046335E+03  0.22259046335E+03  0.00000000000E+00 0. -1.
          1   -1    0    0  501    0 -0.00000000000E+00 -0.00000000000E+00 -0.55294557638E+03  0.55294557638E+03  0.00000000000E+00 0. -1.
         25    2    1    2    0    0  0.71715083787E+02 -0.11780508682E+02  0.61610300454E+02  0.15717247868E+03  0.12500210120E+03 0.  0.
          2    1    1    2  501    0 -0.50476662337E+02 -0.39903782751E+02 -0.49606203778E+03  0.50021770325E+03  0.00000000000E+00 0. -1.
          1    1    1    2  502    0 -0.21238421450E+02  0.51684291433E+02  0.10409662430E+03  0.11814585781E+03  0.00000000000E+00 0. -1.
         22    1    3    3    0    0  0.10632502056E+02  0.26544181986E+02  0.78126683379E+02  0.83195086112E+02  0.00000000000E+00 0. -1.
         22    1    3    3    0    0  0.61082581731E+02 -0.38324690668E+02 -0.16516382926E+02  0.73977392565E+02  0.00000000000E+00 0. -1.
</event>
<event>
 7    1  0.5553952E-006  0.9936749E+02  0.7818608E-02  0.1370833E+00
          2   -1    0    0  502    0  0.00000000000E+00  0.00000000000E+00  0.15262095631E+04  0.15262095631E+04  0.00000000000E+00 0. -1.
          1   -1    0    0  501    0 -0.00000000000E+00 -0.00000000000E+00 -0.12315245199E+04  0.12315245199E+04  0.00000000000E+00 0. -1.
         25    2    1    2    0    0 -0.10384961423E+03  0.67556007587E+02  0.45681884631E+03  0.48954783742E+03  0.12500028095E+03 0.  0.
          2    1    1    2  501    0  0.96578986874E+02 -0.23056496584E+02 -0.12126472573E+04  0.12167055820E+04  0.00000000000E+00 0. -1.
          1    1    1    2  502    0  0.72706273567E+01 -0.44499511003E+02  0.10505134542E+04  0.10514806636E+04  0.00000000000E+00 0. -1.
         22    1    3    3    0    0 -0.11781956557E+03  0.15437446196E+02  0.26781392962E+03  0.29299157953E+03  0.00000000000E+00 0.  1.
         22    1    3    3    0    0  0.13969951340E+02  0.52118561391E+02  0.18900491669E+03  0.19655625789E+03  0.00000000000E+00 0.  1.
</event>
<event>
 7    1  0.5553952E-006  0.1303838E+03  0.7818608E-02  0.1239292E+00
          2   -1    0    0  502    0  0.00000000000E+00  0.00000000000E+00  0.74191036825E+03  0.74191036825E+03  0.00000000000E+00 0. -1.
          1   -1    0    0  501    0 -0.00000000000E+00 -0.00000000000E+00 -0.17908877743E+04  0.17908877743E+04  0.00000000000E+00 0. -1.
         25    2    1    2    0    0  0.23326742847E+02  0.39664970390E+02  0.64983979034E+01  0.13336628325E+03  0.12500755788E+03 0.  0.
          2    1    1    2  501    0  0.11462629206E+03 -0.60419205798E+01 -0.17180164238E+04  0.17218467191E+04  0.00000000000E+00 0. -1.
          1    1    1    2  502    0 -0.13795303491E+03 -0.33623049810E+02  0.66254061982E+03  0.67758514021E+03  0.00000000000E+00 0. -1.
         22    1    3    3    0    0  0.14830235025E+00  0.54249252120E+01  0.63065604671E+02  0.63298675338E+02  0.00000000000E+00 0.  1.
         22    1    3    3    0    0  0.23178440497E+02  0.34240045178E+02 -0.56567206767E+02  0.70067607916E+02  0.00000000000E+00 0.  1.
</event>
<event>
 7    1  0.5553952E-006  0.7634408E+02  0.7818608E-02  0.1484304E+00
          2   -1    0    0  502    0  0.00000000000E+00  0.00000000000E+00  0.23023419020E+03  0.23023419020E+03  0.00000000000E+00 0. -1.
          1   -1    0    0  501    0 -0.00000000000E+00 -0.00000000000E+00 -0.46437959721E+03  0.46437959721E+03  0.00000000000E+00 0. -1.
         25    2    1    2    0    0  0.75919293862E+02  0.31361678768E+02  0.27671049246E+02  0.15211269212E+03  0.12500116024E+03 0.  0.
          2    1    1    2  501    0 -0.58506343110E+02 -0.48908696594E+02 -0.39741633722E+03  0.40466627964E+03  0.00000000000E+00 0. -1.
          1    1    1    2  502    0 -0.17412950752E+02  0.17547017826E+02  0.13559988097E+03  0.13783481566E+03  0.00000000000E+00 0. -1.
         22    1    3    3    0    0 -0.31077862892E+02  0.17416463013E+02  0.26162540951E+02  0.44200059896E+02  0.00000000000E+00 0.  1.
         22    1    3    3    0    0  0.10699715675E+03  0.13945215755E+02  0.15085082951E+01  0.10791263222E+03  0.00000000000E+00 0.  1.
</event>
<event>
 7    1  0.5553952E-006  0.1178793E+03  0.7818608E-02  0.1361799E+00
          2   -1    0    0  502    0  0.00000000000E+00  0.00000000000E+00  0.31430126281E+03  0.31430126281E+03  0.00000000000E+00 0. -1.
          1   -1    0    0  501    0 -0.00000000000E+00 -0.00000000000E+00 -0.76314331107E+03  0.76314331107E+03  0.00000000000E+00 0. -1.
         25    2    1    2    0    0 -0.89172068421E+02  0.83886519129E+02 -0.28608066049E+03  0.33534269718E+03  0.12499589740E+03 0.  0.
          2    1    1    2  501    0 -0.18814530849E+02 -0.36402546184E+02 -0.43942869057E+03  0.44133514027E+03  0.00000000000E+00 0. -1.
          1    1    1    2  502    0  0.10798659927E+03 -0.47483972945E+02  0.27666730280E+03  0.30076673643E+03  0.00000000000E+00 0. -1.
         22    1    3    3    0    0 -0.18315038686E+02  0.75221805375E+02 -0.59092896837E+02  0.97394718042E+02  0.00000000000E+00 0.  1.
         22    1    3    3    0    0 -0.70857029735E+02  0.86647137547E+01 -0.22698776365E+03  0.23794797913E+03  0.00000000000E+00 0.  1.
</event>
<event>
 7    1  0.5553952E-006  0.5645573E+02  0.7818608E-02  0.1469319E+00
          2   -1    0    0  502    0  0.00000000000E+00  0.00000000000E+00  0.10833190144E+03  0.10833190144E+03  0.00000000000E+00 0. -1.
          1   -1    0    0  501    0 -0.00000000000E+00 -0.00000000000E+00 -0.97906459430E+03  0.97906459430E+03  0.00000000000E+00 0. -1.
         25    2    1    2    0    0 -0.56678067795E+02  0.14995269629E+02 -0.42631949979E+02  0.14449462361E+03  0.12499580638E+03 0.  0.
          2    1    1    2  501    0  0.21180252349E+02  0.30556299019E+02 -0.87047809010E+03  0.87127171184E+03  0.00000000000E+00 0. -1.
          1    1    1    2  502    0  0.35497815445E+02 -0.45551568649E+02  0.42377347219E+02  0.71630160303E+02  0.00000000000E+00 0. -1.
         22    1    3    3    0    0  0.20985948497E+02  0.11844407591E+02  0.29748873602E+02  0.38284402909E+02  0.00000000000E+00 0.  1.
         22    1    3    3    0    0 -0.77664016292E+02  0.31508620379E+01 -0.72380823581E+02  0.10621022070E+03  0.00000000000E+00 0.  1.
</event>
<event>
 7    1  0.5553952E-006  0.1909599E+03  0.7818608E-02  0.1223628E+00
          2   -1    0    0  502    0  0.00000000000E+00  0.00000000000E+00  0.12903598739E+04  0.12903598739E+04  0.00000000000E+00 0. -1.
          1   -1    0    0  501    0 -0.00000000000E+00 -0.00000000000E+00 -0.13884464749E+04  0.13884464749E+04  0.00000000000E+00 0. -1.
         25    2    1    2    0    0 -0.87140050074E+02 -0.61720540927E+02  0.34358797489E+02  0.16795268545E+03  0.12499905634E+03 0.  0.
          2    1    1    2  501    0  0.14571247779E+03  0.13278887143E+03 -0.13124938140E+04  0.13272170216E+04  0.00000000000E+00 0. -1.
          1    1    1    2  502    0 -0.58572427713E+02 -0.71068330505E+02  0.11800484155E+04  0.11836366418E+04  0.00000000000E+00 0. -1.
         22    1    3    3    0    0 -0.24127708777E+02 -0.79259708566E+01 -0.45991752132E+02  0.52537687511E+02  0.00000000000E+00 0.  1.
         22    1    3    3    0    0 -0.63012341297E+02 -0.53794570071E+02  0.80350549621E+02  0.11541499794E+03  0.00000000000E+00 0.  1.
</event>
<event>
 7    1  0.5553952E-006  0.1079247E+03  0.7818608E-02  0.1349278E+00
          2   -1    0    0  502    0  0.00000000000E+00  0.00000000000E+00  0.53537200047E+03  0.53537200047E+03  0.00000000000E+00 0. -1.
          1   -1    0    0  501    0 -0.00000000000E+00 -0.00000000000E+00 -0.14137027301E+04  0.14137027301E+04  0.00000000000E+00 0. -1.
         25    2    1    2    0    0 -0.53996822035E+02 -0.14181082807E+03 -0.44080573935E+03  0.48266150289E+03  0.12500583499E+03 0.  0.
          2    1    1    2  501    0  0.39767189475E+02  0.94131031795E+02 -0.94801376671E+03  0.95350520836E+03  0.00000000000E+00 0. -1.
          1    1    1    2  502    0  0.14229632561E+02  0.47679796274E+02  0.51048877643E+03  0.51290801932E+03  0.00000000000E+00 0. -1.
         22    1    3    3    0    0 -0.83502426344E+02 -0.47669324807E+02 -0.25014571656E+03  0.26798861776E+03  0.00000000000E+00 0.  1.
         22    1    3    3    0    0  0.29505604308E+02 -0.94141503262E+02 -0.19066002279E+03  0.21467288514E+03  0.00000000000E+00 0.  1.
</event>
<event>
 7    1  0.5553952E-006  0.1519376E+03  0.7818608E-02  0.1311852E+00
          2   -1    0    0  502    0  0.00000000000E+00  0.00000000000E+00  0.50302872453E+03  0.50302872453E+03  0.00000000000E+00 0. -1.
          1   -1    0    0  501    0 -0.00000000000E+00 -0.00000000000E+00 -0.10842244380E+03  0.10842244380E+03  0.00000000000E+00 0. -1.
         25    2    1    2    0    0  0.10017743574E+03  0.15045437937E+03  0.10393686680E+03  0.24310480755E+03  0.12500014509E+03 0.  0.
          2    1    1    2  501    0 -0.69599574779E+02 -0.11202066391E+03  0.85014609436E+02  0.15690829733E+03  0.00000000000E+00 0. -1.
          1    1    1    2  502    0 -0.30577860958E+02 -0.38433715463E+02  0.20565480450E+03  0.21143806345E+03  0.00000000000E+00 0. -1.
         22    1    3    3    0    0  0.48529865101E+02  0.17074499521E+02  0.84264665134E+02  0.98728010872E+02  0.00000000000E+00 0.  1.
         22    1    3    3    0    0  0.51647570635E+02  0.13337987985E+03  0.19672201665E+02  0.14437679668E+03  0.00000000000E+00 0.  1.
</event>
<event>
 7    1  0.5553952E-006  0.1044650E+03  0.7818608E-02  0.1427587E+00
          2   -1    0    0  502    0  0.00000000000E+00  0.00000000000E+00  0.32834257552E+03  0.32834257552E+03  0.00000000000E+00 0. -1.
          1   -1    0    0  501    0 -0.00000000000E+00 -0.00000000000E+00 -0.22652123034E+03  0.22652123034E+03  0.00000000000E+00 0. -1.
         25    2    1    2    0    0 -0.11709350696E+03  0.50691029570E+02  0.28347429545E+02  0.18085224812E+03  0.12499395600E+03 0.  0.
          2    1    1    2  501    0  0.94139463751E+02 -0.35829084789E+02 -0.13238281524E+03  0.16634654106E+03  0.00000000000E+00 0. -1.
          1    1    1    2  502    0  0.22954043209E+02 -0.14861944781E+02  0.20585673088E+03  0.20766501668E+03  0.00000000000E+00 0. -1.
         22    1    3    3    0    0 -0.11973298899E+02  0.56768714279E+02  0.46058687423E+02  0.74077321053E+02  0.00000000000E+00 0. -1.
         22    1    3    3    0    0 -0.10512020806E+03 -0.60776847088E+01 -0.17711257877E+02  0.10677492706E+03  0.00000000000E+00 0. -1.
</event>
<event>
 7    1  0.5553952E-006  0.7134108E+02  0.7818608E-02  0.1489708E+00
          2   -1    0    0  502    0  0.00000000000E+00  0.00000000000E+00  0.52135261813E+03  0.52135261813E+03  0.00000000000E+00 0. -1.
          1   -1    0    0  501    0 -0.00000000000E+00 -0.00000000000E+00 -0.13607070050E+03  0.13607070050E+03  0.00000000000E+00 0. -1.
         25    2    1    2    0    0  0.46427579351E+02 -0.20340696968E+02  0.61760232718E+02  0.14835817899E+03  0.12500623525E+03 0.  0.
          2    1    1    2  501    0 -0.71869565977E+02  0.19085205735E+02 -0.77401551172E+02  0.10733349764E+03  0.00000000000E+00 0. -1.
          1    1    1    2  502    0  0.25441986626E+02  0.12554912327E+01  0.40092323609E+03  0.40173164200E+03  0.00000000000E+00 0. -1.
         22    1    3    3    0    0  0.19345432320E+02  0.48356038620E+02  0.52476350521E+02  0.73934562870E+02  0.00000000000E+00 0. -1.
         22    1    3    3    0    0  0.27082147032E+02 -0.68696735588E+02  0.92838821968E+01  0.74423616124E+02  0.00000000000E+00 0. -1.
</event>
<event>
 7    1  0.5553952E-006  0.9475247E+02  0.7818608E-02  0.1309516E+00
          2   -1    0    0  502    0  0.00000000000E+00  0.00000000000E+00  0.33859954977E+04  0.33859954977E+04  0.00000000000E+00 0. -1.
          1   -1    0    0  501    0 -0.00000000000E+00 -0.00000000000E+00 -0.21890783009E+03  0.21890783009E+03  0.00000000000E+00 0. -1.
         25    2    1    2    0    0  0.33644344972E+02  0.16626857905E+03  0.59195321139E+03  0.62834007317E+03  0.12500184297E+03 0.  0.
          2    1    1    2  501    0 -0.36876911591E+02 -0.85893285679E+02 -0.18921444121E+03  0.21104423209E+03  0.00000000000E+00 0. -1.
          1    1    1    2  502    0  0.32325666186E+01 -0.80375293370E+02  0.27643488974E+04  0.27655190225E+04  0.00000000000E+00 0. -1.
         22    1    3    3    0    0  0.16157101992E+02  0.94530768814E+02  0.13579865188E+03  0.16624798360E+03  0.00000000000E+00 0.  1.
         22    1    3    3    0    0  0.17487242980E+02  0.71737810235E+02  0.45615455950E+03  0.46209208957E+03  0.00000000000E+00 0.  1.
</event>
<event>
 7    1  0.5553952E-006  0.1034516E+03  0.7818608E-02  0.1333720E+00
          2   -1    0    0  502    0  0.00000000000E+00  0.00000000000E+00  0.23362151999E+03  0.23362151999E+03  0.00000000000E+00 0. -1.
          1   -1    0    0  501    0 -0.00000000000E+00 -0.00000000000E+00 -0.24716689833E+04  0.24716689833E+04  0.00000000000E+00 0. -1.
         25    2    1    2    0    0 -0.15661852542E+03  0.19354400452E+02 -0.94998479126E+02  0.22260474138E+03  0.12499681806E+03 0.  0.
          2    1    1    2  501    0  0.59226419067E+02 -0.42790304018E+01 -0.22981531482E+04  0.22989201751E+04  0.00000000000E+00 0. -1.
          1    1    1    2  502    0  0.97392106356E+02 -0.15075370050E+02  0.15510416408E+03  0.18376558676E+03  0.00000000000E+00 0. -1.
         22    1    3    3    0    0 -0.57829406138E+02 -0.50976415185E+01  0.26752410877E+02  0.63921183117E+02  0.00000000000E+00 0.  1.
         22    1    3    3    0    0 -0.98789119285E+02  0.24452041971E+02 -0.12175089000E+03  0.15868355826E+03  0.00000000000E+00 0.  1.
</event>
<event>
 7    1  0.5553952E-006  0.9373174E+02  0.7818608E-02  0.1384070E+00
          2   -1    0    0  502    0  0.00000000000E+00  0.00000000000E+00  0.11625233723E+04  0.11625233723E+04  0.00000000000E+00 0. -1.
          1   -1    0    0  501    0 -0.00000000000E+00 -0.00000000000E+00 -0.14916311158E+04  0.14916311158E+04  0.00000000000E+00 0. -1.
         25    2    1    2    0    0 -0.49835645349E+02  0.73289456368E+02  0.18398590847E+03  0.23943891358E+03  0.12500097143E+03 0.  0.
          2    1    1    2  501    0  0.82239344043E+02 -0.45187622876E+02 -0.14619159035E+04  0.14649243461E+04  0.00000000000E+00 0. -1.
          1    1    1    2  502    0 -0.32403698694E+02 -0.28101833492E+02  0.94882225152E+03  0.94979122849E+03  0.00000000000E+00 0. -1.
         22    1    3    3    0    0 -0.62964539112E+02  0.26937096016E+02  0.17821248513E+03  0.19091838619E+03  0.00000000000E+00 0.  1.
         22    1    3    3    0    0  0.13128893763E+02  0.46352360352E+02  0.57734233440E+01  0.48520527395E+02  0.00000000000E+00 0.  1.
</event>
<event>
 7    1  0.5553952E-006  0.1094494E+03  0.7818608E-02  0.1264845E+00
          2   -1    0    0  502    0  0.00000000000E+00  0.00000000000E+00  0.14476990779E+04  0.14476990779E+04  0.00000000000E+00 0. -1.
          1   -1    0    0  501    0 -0.00000000000E+00 -0.00000000000E+00 -0.10361185601E+04  0.10361185601E+04  0.00000000000E+00 0. -1.
         25    2    1    2    0    0  0.19777407678E+01  0.13556988511E+02  0.74811125652E+02  0.14633521157E+03  0.12501834356E+03 0.  0.
          2    1    1    2  501    0  0.87244649970E+02 -0.70833781202E+02 -0.99508697589E+03  0.10014125739E+04  0.00000000000E+00 0. -1.
          1    1    1    2  502    0 -0.89222390738E+02  0.57276792691E+02  0.13318563681E+04  0.13360698526E+04  0.00000000000E+00 0. -1.
         22    1    3    3    0    0 -0.59655526440E+02  0.12868650900E+02  0.21078901671E+02  0.64565502449E+02  0.00000000000E+00 0.  1.
         22    1    3    3    0    0  0.61633267208E+02  0.68833761121E+00  0.53732223982E+02  0.81769709119E+02  0.00000000000E+00 0.  1.
</event>
<event>
 7    1  0.5553952E-006  0.8212710E+02  0.7818608E-02  0.1351993E+00
          2   -1    0    0  502    0  0.00000000000E+00  0.00000000000E+00  0.23362019809E+04  0.23362019809E+04  0.00000000000E+00 0. -1.
          1   -1    0    0  501    0 -0.00000000000E+00 -0.00000000000E+00 -0.71487116390E+02  0.71487116390E+02  0.00000000000E+00 0. -1.
         25    2    1    2    0    0  0.90666904816E+02  0.63742526017E+02  0.51852451522E+03  0.54477090775E+03  0.12499628716E+03 0.  0.
          2    1    1    2  501    0 -0.81574431448E+02 -0.50033394915E+00 -0.29000789038E+02  0.86577618153E+02  0.00000000000E+00 0. -1.
          1    1    1    2  502    0 -0.90924733675E+01 -0.63242192068E+02  0.17751911383E+04  0.17763405714E+04  0.00000000000E+00 0. -1.
         22    1    3    3    0    0  0.40247012627E+02 -0.31486981402E+02  0.25496094461E+03  0.26003141214E+03  0.00000000000E+00 0.  1.
         22    1    3    3    0    0  0.50419892189E+02  0.95229507419E+02  0.26356357061E+03  0.28473949561E+03  0.00000000000E+00 0.  1.
</event>
<event>
 7    1  0.5553952E-006  0.3948733E+02  0.7818608E-02  0.1576737E+00
          2   -1    0    0  502    0  0.00000000000E+00  0.00000000000E+00  0.70991916683E+03  0.70991916683E+03  0.00000000000E+00 0. -1.
          1   -1    0    0  501    0 -0.00000000000E+00 -0.00000000000E+00 -0.21093402867E+03  0.21093402867E+03  0.00000000000E+00 0. -1.
         25    2    1    2    0    0  0.58449674740E+01  0.27380080633E+02 -0.54271576365E+02  0.13911996798E+03  0.12500051612E+03 0.  0.
          2    1    1    2  501    0  0.18427263950E+02 -0.36619291909E+02 -0.11029833134E+03  0.11767012575E+03  0.00000000000E+00 0. -1.
          1    1    1    2  502    0 -0.24272231424E+02  0.92392112759E+01  0.66355504587E+03  0.66406310178E+03  0.00000000000E+00 0. -1.
         22    1    3    3    0    0  0.50648696848E+02 -0.27012413084E+02 -0.20259785532E+02  0.60872159998E+02  0.00000000000E+00 0. -1.
         22    1    3    3    0    0 -0.44803729374E+02  0.54392493717E+02 -0.34011790833E+02  0.78247807983E+02  0.00000000000E+00 0. -1.
</event>
<event>
 7    1  0.5553952E-006  0.2526266E+03  0.7818608E-02  0.1183781E+00
          2   -1    0    0  502    0  0.00000000000E+00  0.00000000000E+00  0.20073294830E+04  0.20073294830E+04  0.00000000000E+00 0. -1.
          1   -1    0    0  501    0 -0.00000000000E+00 -0.00000000000E+00 -0.32457422141E+03  0.32457422141E+03  0.00000000000E+00 0. -1.
         25    2    1    2    0    0 -0.27415753111E+03 -0.20831368248E+03  0.27913583525E+03  0.46054189811E+03  0.12500033288E+03 0.  0.
          2    1    1    2  501    0  0.19294911419E+03  0.13859754789E+03 -0.17125173535E+03  0.29285798232E+03  0.00000000000E+00 0. -1.
          1    1    1    2  502    0  0.81208416923E+02  0.69716134591E+02  0.15748711617E+04  0.15785038240E+04  0.00000000000E+00 0. -1.
         22    1    3    3    0    0 -0.74340485544E+02 -0.11682667529E+02  0.17901799756E+02  0.77352872901E+02  0.00000000000E+00 0.  1.
         22    1    3    3    0    0 -0.19981704557E+03 -0.19663101495E+03  0.26123403550E+03  0.38318902521E+03  0.00000000000E+00 0.  1.
</event>
<event>
 7    1  0.5553952E-006  0.9664543E+02  0.7818608E-02  0.1376689E+00
          2   -1    0    0  502    0  0.00000000000E+00  0.00000000000E+00  0.15123433145E+03  0.15123433145E+03  0.00000000000E+00 0. -1.
          1   -1    0    0  501    0 -0.00000000000E+00 -0.00000000000E+00 -0.33216813506E+03  0.33216813506E+03  0.00000000000E+00 0. -1.
         25    2    1    2    0    0  0.46291911726E+02 -0.95698540275E+02  0.29639962703E+01  0.16412071786E+03  0.12500269218E+03 0.  0.
          2    1    1    2  501    0  0.27097055563E+02  0.34891675964E+02 -0.21464008822E+03  0.21913933226E+03  0.00000000000E+00 0. -1.
          1    1    1    2  502    0 -0.73388967289E+02  0.60806864311E+02  0.30742288346E+02  0.10014241639E+03  0.00000000000E+00 0. -1.
         22    1    3    3    0    0  0.18967025572E+02 -0.66409042934E+02  0.61977878990E+02  0.92796371300E+02  0.00000000000E+00 0.  1.
         22    1    3    3    0    0  0.27324886154E+02 -0.29289497342E+02 -0.59013882720E+02  0.71324346555E+02  0.00000000000E+00 0.  1.
</event>
<event>
 7    1  0.5553952E-006  0.1441264E+03  0.7818608E-02  0.1296554E+00
          2   -1    0    0  502    0  0.00000000000E+00  0.00000000000E+00  0.77542809469E+03  0.77542809469E+03  0.00000000000E+00 0. -1.
          1   -1    0    0  501    0 -0.00000000000E+00 -0.00000000000E+00 -0.85676892732E+03  0.85676892732E+03  0.00000000000E+00 0. -1.
         25    2    1    2    0    0 -0.11356877268E+03 -0.20017409064E+02 -0.23737671289E+03  0.29201274544E+03  0.12500070753E+03 0.  0.
          2    1    1    2  501    0  0.15520644121E+03 -0.22571689848E+02 -0.58046425648E+03  0.60127969667E+03  0.00000000000E+00 0. -1.
          1    1    1    2  502    0 -0.41637668528E+02  0.42589098913E+02  0.73650013673E+03  0.73890457990E+03  0.00000000000E+00 0. -1.
         22    1    3    3    0    0 -0.23375563675E+02 -0.31412075824E+02 -0.14560441396E+01  0.39182337210E+02  0.00000000000E+00 0.  1.
         22    1    3    3    0    0 -0.90193209006E+02  0.11394666760E+02 -0.23592066875E+03  0.25283040822E+03  0.00000000000E+00 0.  1.
</event>
<event>
 7    1  0.5553952E-006  0.6055682E+02  0.7818608E-02  0.1470696E+00
          2   -1    0    0  502    0  0.00000000000E+00  0.00000000000E+00  0.37881281075E+03  0.37881281075E+03  0.00000000000E+00 0. -1.
          1   -1    0    0  501    0 -0.00000000000E+00 -0.00000000000E+00 -0.26649220689E+03  0.26649220689E+03  0.00000000000E+00 0. -1.
         25    2    1    2    0    0  0.34988038733E+02  0.55651813658E+02  0.81882567860E+02  0.16326515745E+03  0.12501787672E+03 0.  0.
          2    1    1    2  501    0 -0.54236164566E+02 -0.27236179469E+02 -0.22053364786E+03  0.22873229080E+03  0.00000000000E+00 0. -1.
          1    1    1    2  502    0  0.19248125834E+02 -0.28415634189E+02  0.25097168386E+03  0.25330756939E+03  0.00000000000E+00 0. -1.
         22    1    3    3    0    0 -0.35224382731E+02  0.40432856132E+02 -0.93007099396E+00  0.53632434457E+02  0.00000000000E+00 0. -1.
         22    1    3    3    0    0  0.70212421464E+02  0.15218957526E+02  0.82812638854E+02  0.10963272299E+03  0.00000000000E+00 0. -1.
</event>
<event>
 7    1  0.5553952E-006  0.5740304E+02  0.7818608E-02  0.1458615E+00
          2   -1    0    0  502    0  0.00000000000E+00  0.00000000000E+00  0.17807956202E+04  0.17807956202E+04  0.00000000000E+00 0. -1.
          1   -1    0    0  501    0 -0.00000000000E+00 -0.00000000000E+00 -0.85365110102E+03  0.85365110102E+03  0.00000000000E+00 0. -1.
         25    2    1    2    0    0  0.67329927849E+02  0.41114039589E+02  0.18012850498E+03  0.23301260704E+03  0.12499965320E+03 0.  0.
          2    1    1    2  501    0 -0.38619784204E+02  0.83166428551E+01 -0.82621800334E+03  0.82716192086E+03  0.00000000000E+00 0. -1.
          1    1    1    2  502    0 -0.28710143645E+02 -0.49430682445E+02  0.15732340175E+04  0.15742721933E+04  0.00000000000E+00 0. -1.
         22    1    3    3    0    0  0.13688867522E+02  0.79976469497E+02  0.90242104783E+02  0.12135591557E+03  0.00000000000E+00 0. -1.
         22    1    3    3    0    0  0.53641060328E+02 -0.38862429908E+02  0.89886400195E+02  0.11165669148E+03  0.00000000000E+00 0. -1.
</event>
<event>
 7    1  0.5553952E-006  0.5969799E+02  0.7818608E-02  0.1476565E+00
          2   -1    0    0  502    0  0.00000000000E+00  0.00000000000E+00  0.80154400299E+03  0.80154400299E+03  0.00000000000E+00 0. -1.
          1   -1    0    0  501    0 -0.00000000000E+00 -0.00000000000E+00 -0.34880022720E+03  0.34880022720E+03  0.00000000000E+00 0. -1.
         25    2    1    2    0    0 -0.34379031853E+02  0.21402185619E+01  0.85819930894E+02  0.15548509141E+03  0.12499621892E+03 0.  0.
          2    1    1    2  501    0  0.52198265600E+02 -0.30376468521E+02 -0.31064849220E+03  0.31646464964E+03  0.00000000000E+00 0. -1.
          1    1    1    2  502    0 -0.17819233747E+02  0.28236249959E+02  0.67757233709E+03  0.67839448914E+03  0.00000000000E+00 0. -1.
         22    1    3    3    0    0  0.14792482376E+02 -0.29315704243E+02  0.91136276598E+02  0.96871301025E+02  0.00000000000E+00 0. -1.
         22    1    3    3    0    0 -0.49171514229E+02  0.31455922805E+02 -0.53163457039E+01  0.58613790380E+02  0.00000000000E+00 0. -1.
</event>
<event>
 7    1  0.5553952E-006  0.1724639E+03  0.7818608E-02  0.1360936E+00
          2   -1    0    0  502    0  0.00000000000E+00  0.00000000000E+00  0.31436617367E+03  0.31436617367E+03  0.00000000000E+00 0. -1.
          1   -1    0    0  501    0 -0.00000000000E+00 -0.00000000000E+00 -0.44642320930E+03  0.44642320930E+03  0.00000000000E+00 0. -1.
         25    2    1    2    0    0 -0.14678470626E+03  0.21790868191E+02  0.14851071850E+03  0.24433868311E+03  0.12500146650E+03 0.  0.
          2    1    1    2  501    0  0.17419601690E+03 -0.15120468985E+02 -0.37721552613E+03  0.41576968870E+03  0.00000000000E+00 0. -1.
          1    1    1    2  502    0 -0.27411310636E+02 -0.66703992062E+01  0.96647771998E+02  0.10068101116E+03  0.00000000000E+00 0. -1.
         22    1    3    3    0    0 -0.11800369382E+03  0.69790464174E+02  0.94115194590E+02  0.16629266519E+03  0.00000000000E+00 0. -1.
         22    1    3    3    0    0 -0.28781012443E+02 -0.47999595982E+02  0.54395523906E+02  0.78046017917E+02  0.00000000000E+00 0. -1.
</event>
<event>
 7    1  0.5553952E-006  0.5635613E+02  0.7818608E-02  0.1442022E+00
          2   -1    0    0  502    0  0.00000000000E+00  0.00000000000E+00  0.80549823750E+03  0.80549823750E+03  0.00000000000E+00 0. -1.
          1   -1    0    0  501    0 -0.00000000000E+00 -0.00000000000E+00 -0.20531789151E+03  0.20531789151E+03  0.00000000000E+00 0. -1.
         25    2    1    2    0    0  0.71058099615E+02  0.17414306981E+02  0.28687315513E+03  0.32136229915E+03  0.12500003430E+03 0.  0.
          2    1    1    2  501    0 -0.20042306732E+02 -0.40813544432E+02 -0.18372240003E+03  0.18926531574E+03  0.00000000000E+00 0. -1.
          1    1    1    2  502    0 -0.51015792883E+02  0.23399237452E+02  0.49702959089E+03  0.50018851412E+03  0.00000000000E+00 0. -1.
         22    1    3    3    0    0  0.80046909154E+02  0.46784421794E+02  0.27173995156E+03  0.28712173562E+03  0.00000000000E+00 0.  1.
         22    1    3    3    0    0 -0.89888095388E+01 -0.29370114813E+02  0.15133203561E+02  0.34240563534E+02  0.00000000000E+00 0.  1.
</event>
<event>
 7    1  0.5553952E-006  0.6904617E+02  0.7818608E-02  0.1381067E+00
          2   -1    0    0  502    0  0.00000000000E+00  0.00000000000E+00  0.86397474203E+03  0.86397474203E+03  0.00000000000E+00 0. -1.
          1   -1    0    0  501    0 -0.00000000000E+00 -0.00000000000E+00 -0.13652478114E+03  0.13652478114E+03  0.00000000000E+00 0. -1.
         25    2    1    2    0    0  0.25503349649E+02 -0.68189541994E+02  0.77119074329E+02  0.16393042761E+03  0.12500239594E+03 0.  0.
          2    1    1    2  501    0  0.40088376494E+02  0.44189861753E+02 -0.81726067138E+02  0.10118780490E+03  0.00000000000E+00 0. -1.
          1    1    1    2  502    0 -0.65591726143E+02  0.23999680241E+02  0.73205695370E+03  0.73538129065E+03  0.00000000000E+00 0. -1.
         22    1    3    3    0    0 -0.38101266876E+02 -0.22461034194E+02  0.73164248795E+02  0.85493929003E+02  0.00000000000E+00 0. -1.
         22    1    3    3    0    0  0.63604616526E+02 -0.45728507800E+02  0.39548255341E+01  0.78436498609E+02  0.00000000000E+00 0. -1.
</event>
<event>
 7    1  0.5553952E-006  0.7418221E+02  0.7818608E-02  0.1366659E+00
          2   -1    0    0  502    0  0.00000000000E+00  0.00000000000E+00  0.38652869842E+04  0.38652869842E+04  0.00000000000E+00 0. -1.
          1   -1    0    0  501    0 -0.00000000000E+00 -0.00000000000E+00 -0.13896225614E+04  0.13896225614E+04  0.00000000000E+00 0. -1.
         25    2    1    2    0    0  0.15222830532E+02 -0.17078988438E+02  0.11154985013E+04  0.11227132012E+04  0.12499839738E+03 0.  0.
          2    1    1    2  501    0  0.14985857974E+02 -0.60702709107E+02 -0.13846757358E+04  0.13860866814E+04  0.00000000000E+00 0. -1.
          1    1    1    2  502    0 -0.30208688506E+02  0.77781697544E+02  0.27448416574E+04  0.27461096631E+04  0.00000000000E+00 0. -1.
         22    1    3    3    0    0  0.56230585388E+02  0.18484432991E+02  0.82950278881E+03  0.83161194655E+03  0.00000000000E+00 0.  1.
         22    1    3    3    0    0 -0.41007754856E+02 -0.35563421428E+02  0.28599571248E+03  0.29110125465E+03  0.00000000000E+00 0.  1.
</event>
<event>
 7    1  0.5553952E-006  0.6875885E+02  0.7818608E-02  0.1372294E+00
          2   -1    0    0  502    0  0.00000000000E+00  0.00000000000E+00  0.49420936173E+03  0.49420936173E+03  0.00000000000E+00 0. -1.
          1   -1    0    0  501    0 -0.00000000000E+00 -0.00000000000E+00 -0.11552367448E+03  0.11552367448E+03  0.00000000000E+00 0. -1.
         25    2    1    2    0    0  0.39884811032E+02 -0.19865757766E+02  0.89649245243E+02  0.16014972689E+03  0.12500200546E+03 0.  0.
          2    1    1    2  501    0 -0.51701339739E+02 -0.47870120953E+02 -0.60792722938E+02  0.93060905718E+02  0.00000000000E+00 0. -1.
          1    1    1    2  502    0  0.11816528707E+02  0.67735878719E+02  0.34982916495E+03  0.35652240360E+03  0.00000000000E+00 0. -1.
         22    1    3    3    0    0  0.26769992376E+02 -0.45750201811E+02 -0.12077594940E+02  0.54365262412E+02  0.00000000000E+00 0. -1.
         22    1    3    3    0    0  0.13114818656E+02  0.25884444045E+02  0.10172684018E+03  0.10578446448E+03  0.00000000000E+00 0. -1.
</event>
<event>
 7    1  0.5553952E-006  0.9172863E+02  0.7818608E-02  0.1453728E+00
          2   -1    0    0  502    0  0.00000000000E+00  0.00000000000E+00  0.10904479468E+04  0.10904479468E+04  0.00000000000E+00 0. -1.
          1   -1    0    0  501    0 -0.00000000000E+00 -0.00000000000E+00 -0.91964086476E+03  0.91964086476E+03  0.00000000000E+00 0. -1.
         25    2    1    2    0    0 -0.78567864103E+02  0.45177875190E+02 -0.15870931481E+03  0.22142039068E+03  0.12499757248E+03 0.  0.
          2    1    1    2  501    0  0.89469425382E+02 -0.21992515579E+02 -0.72651132808E+03  0.73232995204E+03  0.00000000000E+00 0. -1.
          1    1    1    2  502    0 -0.10901561280E+02 -0.23185359611E+02  0.10560277249E+04  0.10563384688E+04  0.00000000000E+00 0. -1.
         22    1    3    3    0    0 -0.52457083968E+02  0.53132000176E+00 -0.16131789245E+03  0.16963339997E+03  0.00000000000E+00 0. -1.
         22    1    3    3    0    0 -0.26110780134E+02  0.44646555188E+02  0.26085776457E+01  0.51786990709E+02  0.00000000000E+00 0. -1.
</event>
<event>
 7    1  0.5553952E-006  0.6400805E+02  0.7818608E-02  0.1476648E+00
          2   -1    0    0  502    0  0.00000000000E+00  0.00000000000E+00  0.36015514089E+03  0.36015514089E+03  0.00000000000E+00 0. -1.
          1   -1    0    0  501    0 -0.00000000000E+00 -0.00000000000E+00 -0.17894801738E+04  0.17894801738E+04  0.00000000000E+00 0. -1.
         25    2    1    2    0    0  0.65908023601E+02 -0.10980146526E+02 -0.87384319396E+02  0.16650716193E+03  0.12499673798E+03 0.  0.
          2    1    1    2  501    0 -0.51266788933E+02  0.38443482153E+02 -0.16611599174E+04  0.16623953970E+04  0.00000000000E+00 0. -1.
          1    1    1    2  502    0 -0.14641234669E+02 -0.27463335628E+02  0.31921920380E+03  0.32073275578E+03  0.00000000000E+00 0. -1.
         22    1    3    3    0    0  0.23590116453E+02  0.22509648844E+02 -0.10483561331E+03  0.10978926953E+03  0.00000000000E+00 0. -1.
         22    1    3    3    0    0  0.42317907149E+02 -0.33489795369E+02  0.17451293918E+02  0.56717892404E+02  0.00000000000E+00 0. -1.
</event>
<event>
 7    1  0.5553952E-006  0.5883686E+02  0.7818608E-02  0.1455142E+00
          2   -1    0    0  502    0  0.00000000000E+00  0.00000000000E+00  0.13311002247E+04  0.13311002247E+04  0.00000000000E+00 0. -1.
          1   -1    0    0  501    0 -0.00000000000E+00 -0.00000000000E+00 -0.18451117386E+03  0.18451117386E+03  0.00000000000E+00 0. -1.
         25    2    1    2    0    0  0.13929505012E+01 -0.94252964653E+02  0.25806208872E+03  0.30184058375E+03  0.12500453874E+03 0.  0.
          2    1    1    2  501    0 -0.13516203161E+02  0.56626234144E+02 -0.15702612776E+03  0.16747066292E+03  0.00000000000E+00 0. -1.
          1    1    1    2  502    0  0.12123252660E+02  0.37626730509E+02  0.10455530898E+04  0.10463001519E+04  0.00000000000E+00 0. -1.
         22    1    3    3    0    0 -0.60288264026E+01  0.12349441994E+01 -0.12985080617E+02  0.14369556486E+02  0.00000000000E+00 0.  1.
         22    1    3    3    0    0  0.74217769038E+01 -0.95487908853E+02  0.27104716934E+03  0.28747102726E+03  0.00000000000E+00 0.  1.
</event>
<event>
 7    1  0.5553952E-006  0.1082741E+03  0.7818608E-02  0.1274506E+00
          2   -1    0    0  502    0  0.00000000000E+00  0.00000000000E+00  0.53580612222E+03  0.53580612222E+03  0.00000000000E+00 0. -1.
          1   -1    0    0  501    0 -0.00000000000E+00 -0.00000000000E+00 -0.56663851852E+03  0.56663851852E+03  0.00000000000E+00 0. -1.
         25    2    1    2    0    0  0.25967378629E+02 -0.13534680726E+03  0.33670016644E+02  0.18908199873E+03  0.12500107694E+03 0.  0.
          2    1    1    2  501    0  0.60607331526E+02  0.90259638780E+02 -0.47712321278E+03  0.48935325809E+03  0.00000000000E+00 0. -1.
          1    1    1    2  502    0 -0.86574710155E+02  0.45087168477E+02  0.41262079983E+03  0.42400938392E+03  0.00000000000E+00 0. -1.
         22    1    3    3    0    0  0.28608249400E+02 -0.15876717417E+03  0.22114108930E+02  0.16283267897E+03  0.00000000000E+00 0. -1.
         22    1    3    3    0    0 -0.26408707713E+01  0.23420366912E+02  0.11555907714E+02  0.26249319760E+02  0.00000000000E+00 0. -1.
</event>
<event>
 7    1  0.5553952E-006  0.5200724E+02  0.7818608E-02  0.1444781E+00
          2   -1    0    0  502    0  0.00000000000E+00  0.00000000000E+00  0.22394199266E+04  0.22394199266E+04  0.00000000000E+00 0. -1.
          1   -1    0    0  501    0 -0.00000000000E+00 -0.00000000000E+00 -0.25781307155E+03  0.25781307155E+03  0.00000000000E+00 0. -1.
         25    2    1    2    0    0 -0.99980444753E+02  0.55627749108E+01  0.10173729896E+04  0.10299028852E+04  0.12500047673E+03 0.  0.
          2    1    1    2  501    0  0.51742009369E+02 -0.37987060016E+01 -0.24838772113E+03  0.25374815410E+03  0.00000000000E+00 0. -1.
          1    1    1    2  502    0  0.48238435385E+02 -0.17640689092E+01  0.12126215866E+04  0.12135819589E+04  0.00000000000E+00 0. -1.
         22    1    3    3    0    0  0.29824336690E+02  0.19727393067E+00  0.22080449873E+03  0.22280968703E+03  0.00000000000E+00 0. -1.
         22    1    3    3    0    0 -0.12980478144E+03  0.53655009802E+01  0.79656849085E+03  0.80709319815E+03  0.00000000000E+00 0. -1.
</event>
<event>
 7    1  0.5553952E-006  0.1694757E+03  0.7818608E-02  0.1399482E+00
          2   -1    0    0  502    0  0.00000000000E+00  0.00000000000E+00  0.20864587526E+04  0.20864587526E+04  0.00000000000E+00 0. -1.
          1   -1    0    0  501    0 -0.00000000000E+00 -0.00000000000E+00 -0.14317864198E+03  0.14317864198E+03  0.00000000000E+00 0. -1.
         25    2    1    2    0    0  0.14787735972E+03  0.82283590983E+02  0.46446250047E+02  0.21544988983E+03  0.12499239185E+03 0.  0.
          2    1    1    2  501    0 -0.11044838884E+02  0.17820616811E+02 -0.53000247300E+02  0.56996395179E+02  0.00000000000E+00 0. -1.
          1    1    1    2  502    0 -0.13683252084E+03 -0.10010420779E+03  0.19498341078E+04  0.19571911095E+04  0.00000000000E+00 0. -1.
         22    1    3    3    0    0  0.16038153288E+03  0.95835816027E+02  0.55506947148E+02  0.19490449175E+03  0.00000000000E+00 0. -1.
         22    1    3    3    0    0 -0.12504173163E+02 -0.13552225044E+02 -0.90606971010E+01  0.20545398076E+02  0.00000000000E+00 0. -1.
</event>
<event>
 7    1  0.5553952E-006  0.2170303E+03  0.7818608E-02  0.1243465E+00
          2   -1    0    0  502    0  0.00000000000E+00  0.00000000000E+00  0.15246438180E+04  0.15246438180E+04  0.00000000000E+00 0. -1.
          1   -1    0    0  501    0 -0.00000000000E+00 -0.00000000000E+00 -0.68204424295E+03  0.68204424295E+03  0.00000000000E+00 0. -1.
         25    2    1    2    0    0 -0.96090488804E+02  0.12625120823E+03 -0.86748348562E+02  0.21982417943E+03  0.12499857706E+03 0.  0.
          2    1    1    2  501    0 -0.13807716443E+02  0.64645698600E+02 -0.51832800109E+03  0.52252620614E+03  0.00000000000E+00 0. -1.
          1    1    1    2  502    0  0.10989820525E+03 -0.19089690683E+03  0.14476759247E+04  0.14643376754E+04  0.00000000000E+00 0. -1.
         22    1    3    3    0    0 -0.54009090071E+01 -0.10193638420E+02  0.20841155294E+02  0.23820869764E+02  0.00000000000E+00 0. -1.
         22    1    3    3    0    0 -0.90689579797E+02  0.13644484665E+03 -0.10758950386E+03  0.19600330967E+03  0.00000000000E+00 0. -1.
</event>
<event>
 7    1  0.5553952E-006  0.1140793E+03  0.7818608E-02  0.1283272E+00
          2   -1    0    0  502    0  0.00000000000E+00  0.00000000000E+00  0.87954766914E+03  0.87954766914E+03  0.00000000000E+00 0. -1.
          1   -1    0    0  501    0 -0.00000000000E+00 -0.00000000000E+00 -0.70096782429E+03  0.70096782429E+03  0.00000000000E+00 0. -1.
         25    2    1    2    0    0  0.50493312425E+02 -0.18573378064E+03  0.39286087683E+02  0.23284144597E+03  0.12500052162E+03 0.  0.
          2    1    1    2  501    0 -0.47502811929E+02  0.10056892464E+03 -0.59659166926E+03  0.60687086400E+03  0.00000000000E+00 0. -1.
          1    1    1    2  502    0 -0.29905004953E+01  0.85164856007E+02  0.73588542643E+03  0.74080318346E+03  0.00000000000E+00 0. -1.
         22    1    3    3    0    0  0.51579348526E+02 -0.13857177275E+02  0.28711012356E+02  0.60636398202E+02  0.00000000000E+00 0. -1.
         22    1    3    3    0    0 -0.10860361015E+01 -0.17187660337E+03  0.10575075327E+02  0.17220504777E+03  0.00000000000E+00 0. -1.
</event>
<event>
 7    1  0.5553952E-006  0.1218103E+03  0.7818608E-02  0.1331950E+00
          2   -1    0    0  502    0  0.00000000000E+00  0.00000000000E+00  0.39903927922E+03  0.39903927922E+03  0.00000000000E+00 0. -1.
          1   -1    0    0  501    0 -0.00000000000E+00 -0.00000000000E+00 -0.29657707895E+03  0.29657707895E+03  0.00000000000E+00 0. -1.
         25    2    1    2    0    0 -0.10075805806E+03  0.19163092178E+02  0.12882023271E+03  0.20673663325E+03  0.12500389116E+03 0.  0.
          2    1    1    2  501    0 -0.14164197836E+02  0.49221623924E+02 -0.23529802901E+03  0.24080812947E+03  0.00000000000E+00 0. -1.
          1    1    1    2  502    0  0.11492225590E+03 -0.68384716102E+02  0.20893999658E+03  0.24807159545E+03  0.00000000000E+00 0. -1.
         22    1    3    3    0    0 -0.11526750544E+03  0.60815630734E+01  0.50455604815E+02  0.12597361342E+03  0.00000000000E+00 0.  1.
         22    1    3    3    0    0  0.14509447382E+02  0.13081529105E+02  0.78364627892E+02  0.80763019828E+02  0.00000000000E+00 0.  1.
</event>
<event>
 7    1  0.8123065E-006  0.5102142E+02  0.7818608E-02  0.1469025E+00
          2   -1    0    0  502    0  0.00000000000E+00  0.00000000000E+00  0.14132586407E+04  0.14132586407E+04  0.00000000000E+00 0. -1.
          1   -1    0    0  501    0 -0.00000000000E+00 -0.00000000000E+00 -0.65945457905E+03  0.65945457905E+03  0.00000000000E+00 0. -1.
         25    2    1    2    0    0 -0.36718996934E+02 -0.39545940174E+01 -0.24139124509E+03  0.27433544768E+03  0.12500512428E+03 0.  0.
          2    1    1    2  501    0  0.30215398383E+02  0.44664396995E+02 -0.39947504512E+03  0.40309823906E+03  0.00000000000E+00 0. -1.
          1    1    1    2  502    0  0.65035985505E+01 -0.40709802977E+02  0.13946703519E+04  0.13952795330E+04  0.00000000000E+00 0. -1.
         22    1    3    3    0    0 -0.29016064289E+01 -0.58125518826E+02 -0.16387334642E+03  0.17390074447E+03  0.00000000000E+00 0.  1.
         22    1    3    3    0    0 -0.33817390505E+02  0.54170924808E+02 -0.77517898672E+02  0.10043470321E+03  0.00000000000E+00 0.  1.
</event>
<event>
 7    1  0.5553952E-006  0.4238074E+02  0.7818608E-02  0.1517515E+00
          2   -1    0    0  502    0  0.00000000000E+00  0.00000000000E+00  0.24275938982E+03  0.24275938982E+03  0.00000000000E+00 0. -1.
          1   -1    0    0  501    0 -0.00000000000E+00 -0.00000000000E+00 -0.14302533024E+03  0.14302533024E+03  0.00000000000E+00 0. -1.
         25    2    1    2    0    0 -0.23889884994E+02  0.57455105503E+02  0.16355993767E+03  0.21505539014E+03  0.12500060745E+03 0.  0.
          2    1    1    2  501    0 -0.77472811785E+01 -0.41451451886E+02 -0.10691389500E+03  0.11492964880E+03  0.00000000000E+00 0. -1.
          1    1    1    2  502    0  0.31637166173E+02 -0.16003653617E+02  0.43088016910E+02  0.55799681126E+02  0.00000000000E+00 0. -1.
         22    1    3    3    0    0 -0.58347903548E+02  0.64424456649E+02  0.15676478739E+03  0.17924895265E+03  0.00000000000E+00 0.  1.
         22    1    3    3    0    0  0.34458018554E+02 -0.69693511462E+01  0.67951502863E+01  0.35806437486E+02  0.00000000000E+00 0.  1.
</event>
<event>
 7    1  0.5553952E-006  0.2697836E+02  0.7818608E-02  0.1659482E+00
          2   -1    0    0  502    0  0.00000000000E+00  0.00000000000E+00  0.15588126678E+03  0.15588126678E+03  0.00000000000E+00 0. -1.
          1   -1    0    0  501    0 -0.00000000000E+00 -0.00000000000E+00 -0.20371381332E+03  0.20371381332E+03  0.00000000000E+00 0. -1.
         25    2    1    2    0    0  0.25309350248E+02 -0.55047407367E+01 -0.16719984027E+03  0.21036140638E+03  0.12500107731E+03 0.  0.
          2    1    1    2  501    0 -0.80128226770E+01  0.26208892318E+02  0.57082087503E+00  0.27412354883E+02  0.00000000000E+00 0. -1.
          1    1    1    2  502    0 -0.17296527571E+02 -0.20704151581E+02  0.11879647286E+03  0.12182131884E+03  0.00000000000E+00 0. -1.
         22    1    3    3    0    0 -0.44539623048E+02 -0.21967497767E+02 -0.37863312955E+02  0.62449815431E+02  0.00000000000E+00 0. -1.
         22    1    3    3    0    0  0.69848973295E+02  0.16462757031E+02 -0.12933652731E+03  0.14791159095E+03  0.00000000000E+00 0. -1.
</event>
<event>
 7    1  0.5553952E-006  0.1554969E+03  0.7818608E-02  0.1203137E+00
          2   -1    0    0  502    0  0.00000000000E+00  0.00000000000E+00  0.25676633754E+04  0.25676633754E+04  0.00000000000E+00 0. -1.
          1   -1    0    0  501    0 -0.00000000000E+00 -0.00000000000E+00 -0.19152661904E+03  0.19152661904E+03  0.00000000000E+00 0. -1.
         25    2    1    2    0    0 -0.52733708850E+02  0.55443128108E+02  0.89469311940E+03  0.90661756055E+03  0.12499935479E+03 0.  0.
          2    1    1    2  501    0 -0.49057522645E+02 -0.15240898606E+03 -0.14742708582E+03  0.21764623864E+03  0.00000000000E+00 0. -1.
          1    1    1    2  502    0  0.10179123150E+03  0.96965857951E+02  0.16288707228E+04  0.16349261953E+04  0.00000000000E+00 0. -1.
         22    1    3    3    0    0 -0.54636976150E+02 -0.15627268551E+02  0.62949510624E+03  0.63205498136E+03  0.00000000000E+00 0. -1.
         22    1    3    3    0    0  0.19032673004E+01  0.71070396658E+02  0.26519801316E+03  0.27456257919E+03  0.00000000000E+00 0. -1.
</event>
<event>
 7    1  0.5553952E-006  0.1045719E+03  0.7818608E-02  0.1398448E+00
          2   -1    0    0  502    0  0.00000000000E+00  0.00000000000E+00  0.10263260958E+03  0.10263260958E+03  0.00000000000E+00 0. -1.
          1   -1    0    0  501    0 -0.00000000000E+00 -0.00000000000E+00 -0.21298045394E+04  0.21298045394E+04  0.00000000000E+00 0. -1.
         25    2    1    2    0    0  0.84339599595E+02  0.51414115607E+02 -0.63524271506E+03  0.65491594402E+03  0.12500002944E+03 0.  0.
          2    1    1    2  501    0 -0.10397768770E+03 -0.23343455045E+02 -0.14795803668E+04  0.14834130706E+04  0.00000000000E+00 0. -1.
          1    1    1    2  502    0  0.19638088104E+02 -0.28070660563E+02  0.87651152029E+02  0.94108134297E+02  0.00000000000E+00 0. -1.
         22    1    3    3    0    0  0.10728309650E+03  0.21503029610E+02 -0.33742681595E+03  0.35472369416E+03  0.00000000000E+00 0.  1.
         22    1    3    3    0    0 -0.22943496908E+02  0.29911085997E+02 -0.29781589911E+03  0.30019224986E+03  0.00000000000E+00 0.  1.
</event>
<event>
 7    1  0.5553952E-006  0.7943006E+02  0.7818608E-02  0.1469319E+00
          2   -1    0    0  502    0  0.00000000000E+00  0.00000000000E+00  0.13300146492E+04  0.13300146492E+04  0.00000000000E+00 0. -1.
          1   -1    0    0  501    0 -0.00000000000E+00 -0.00000000000E+00 -0.32931536523E+03  0.32931536523E+03  0.00000000000E+00 0. -1.
         25    2    1    2    0    0  0.50118109314E+02  0.17782434274E+02  0.88120057152E+03  0.89161095252E+03  0.12501041374E+03 0.  0.
          2    1    1    2  501    0 -0.74466720449E+02 -0.28051357746E+02 -0.31882197367E+03  0.32860252894E+03  0.00000000000E+00 0. -1.
          1    1    1    2  502    0  0.24348611134E+02  0.10268923473E+02  0.43832068614E+03  0.43911653299E+03  0.00000000000E+00 0. -1.
         22    1    3    3    0    0  0.26215262173E+02 -0.54083301787E+02  0.38376652746E+03  0.38844432176E+03  0.00000000000E+00 0.  1.
         22    1    3    3    0    0  0.23902847141E+02  0.71865736060E+02  0.49743404406E+03  0.50316663076E+03  0.00000000000E+00 0.  1.
</event>
<event>
 7    1  0.5553952E-006  0.4674548E+02  0.7818608E-02  0.1478282E+00
          2   -1    0    0  502    0  0.00000000000E+00  0.00000000000E+00  0.25575772480E+03  0.25575772480E+03  0.00000000000E+00 0. -1.
          1   -1    0    0  501    0 -0.00000000000E+00 -0.00000000000E+00 -0.49184781577E+03  0.49184781577E+03  0.00000000000E+00 0. -1.
         25    2    1    2    0    0 -0.52920242491E+00 -0.75469780585E+01  0.27946453123E+02  0.12831175793E+03  0.12500266417E+03 0.  0.
          2    1    1    2  501    0 -0.13927124687E+02 -0.39755776810E+02 -0.43718972816E+03  0.43921446356E+03  0.00000000000E+00 0. -1.
          1    1    1    2  502    0  0.14456327112E+02  0.47302754869E+02  0.17315318406E+03  0.18007931908E+03  0.00000000000E+00 0. -1.
         22    1    3    3    0    0 -0.22583697597E+02  0.16601052752E+02 -0.42347188239E+02  0.50782897725E+02  0.00000000000E+00 0.  1.
         22    1    3    3    0    0  0.22054495172E+02 -0.24148030810E+02  0.70293641363E+02  0.77528860209E+02  0.00000000000E+00 0.  1.
</event>
<event>
 7    1  0.5553952E-006  0.7094422E+02  0.7818608E-02  0.1407108E+00
          2   -1    0    0  502    0  0.00000000000E+00  0.00000000000E+00  0.22466245376E+04  0.22466245376E+04  0.00000000000E+00 0. -1.
          1   -1    0    0  501    0 -0.00000000000E+00 -0.00000000000E+00 -0.24194224770E+03  0.24194224770E+03  0.00000000000E+00 0. -1.
         25    2    1    2    0    0  0.45506625299E+02 -0.10724046862E+03  0.65961183234E+03  0.68138586297E+03  0.12501021493E+03 0.  0.
          2    1    1    2  501    0 -0.35094248875E+02  0.61241266867E+02 -0.22530233581E+03  0.23610006690E+03  0.00000000000E+00 0. -1.
          1    1    1    2  502    0 -0.10412376424E+02  0.45999201756E+02  0.15703727934E+04  0.15710808554E+04  0.00000000000E+00 0. -1.
         22    1    3    3    0    0  0.25156172781E+02  0.19304750270E+02  0.25485916102E+03  0.25682425580E+03  0.00000000000E+00 0.  1.
         22    1    3    3    0    0  0.20350452518E+02 -0.12654521889E+03  0.40475267132E+03  0.42456160717E+03  0.00000000000E+00 0.  1.
</event>
<event>
 7    1  0.5553952E-006  0.5989561E+02  0.7818608E-02  0.1430738E+00
          2   -1    0    0  502    0  0.00000000000E+00  0.00000000000E+00  0.80356845086E+03  0.80356845086E+03  0.00000000000E+00 0. -1.
          1   -1    0    0  501    0 -0.00000000000E+00 -0.00000000000E+00 -0.18320863393E+04  0.18320863393E+04  0.00000000000E+00 0. -1.
         25    2    1    2    0    0  0.77656703185E+02 -0.20413588403E+02  0.58259934305E+02  0.15958358072E+03  0.12500168458E+03 0.  0.
          2    1    1    2  501    0 -0.56113276525E+02 -0.20869707428E+02 -0.17801403197E+04  0.17811467661E+04  0.00000000000E+00 0. -1.
          1    1    1    2  502    0 -0.21543426659E+02  0.41283295831E+02  0.69336249697E+03  0.69492444334E+03  0.00000000000E+00 0. -1.
         22    1    3    3    0    0  0.75927216329E+02  0.37328653680E+02  0.56596266890E+02  0.10179149272E+03  0.00000000000E+00 0.  1.
         22    1    3    3    0    0  0.17294868561E+01 -0.57742242083E+02  0.16636674151E+01  0.57792087995E+02  0.00000000000E+00 0.  1.
</event>
<event>
 7    1  0.5553952E-006  0.1103364E+03  0.7818608E-02  0.1301895E+00
          2   -1    0    0  502    0  0.00000000000E+00  0.00000000000E+00  0.11848599415E+04  0.11848599415E+04  0.00000000000E+00 0. -1.
          1   -1    0    0  501    0 -0.00000000000E+00 -0.00000000000E+00 -0.66660212787E+02  0.66660212787E+02  0.00000000000E+00 0. -1.
         25    2    1    2    0    0 -0.10137747658E+03 -0.17406727766E+02  0.16933718368E+03  0.23428654738E+03  0.12503886426E+03 0.  0.
          2    1    1    2  501    0  0.27580852764E+02 -0.68732635996E+02  0.13822537954E+02  0.75338842874E+02  0.00000000000E+00 0. -1.
          1    1    1    2  502    0  0.73796623818E+02  0.86139363762E+02  0.93504000711E+03  0.94189476407E+03  0.00000000000E+00 0. -1.
         22    1    3    3    0    0 -0.95667657208E+02  0.39859554345E+02  0.98074150418E+02  0.14268715320E+03  0.00000000000E+00 0.  1.
         22    1    3    3    0    0 -0.57098193746E+01 -0.57266282112E+02  0.71263033260E+02  0.91599394177E+02  0.00000000000E+00 0.  1.
</event>
<event>
 7    1  0.5553952E-006  0.5045275E+02  0.7818608E-02  0.1505544E+00
          2   -1    0    0  502    0  0.00000000000E+00  0.00000000000E+00  0.21951680731E+04  0.21951680731E+04  0.00000000000E+00 0. -1.
          1   -1    0    0  501    0 -0.00000000000E+00 -0.00000000000E+00 -0.17203181756E+04  0.17203181756E+04  0.00000000000E+00 0. -1.
         25    2    1    2    0    0 -0.40666826493E+02  0.67252040035E+02  0.40041226081E+03  0.42676626339E+03  0.12499134887E+03 0.  0.
          2    1    1    2  501    0  0.36020446392E+02 -0.35294125071E+02 -0.17066223394E+04  0.17073672590E+04  0.00000000000E+00 0. -1.
          1    1    1    2  502    0  0.46463801015E+01 -0.31957914963E+02  0.17810599760E+04  0.17813527263E+04  0.00000000000E+00 0. -1.
         22    1    3    3    0    0 -0.58449685905E+02  0.96843420443E+02  0.30862104406E+03  0.32869737252E+03  0.00000000000E+00 0.  1.
         22    1    3    3    0    0  0.17782859411E+02 -0.29591380409E+02  0.91791216753E+02  0.98068890870E+02  0.00000000000E+00 0.  1.
</event>
<event>
 7    1  0.5553952E-006  0.1300312E+03  0.7818608E-02  0.1410190E+00
          2   -1    0    0  502    0  0.00000000000E+00  0.00000000000E+00  0.93844413175E+03  0.93844413175E+03  0.00000000000E+00 0. -1.
          1   -1    0    0  501    0 -0.00000000000E+00 -0.00000000000E+00 -0.19739790088E+03  0.19739790088E+03  0.00000000000E+00 0. -1.
         25    2    1    2    0    0 -0.22809987778E+02 -0.10341946825E+03  0.55278990660E+03  0.57655642748E+03  0.12499900509E+03 0.  0.
          2    1    1    2  501    0  0.27844845190E+02  0.12802901737E+03 -0.16187446530E+03  0.20825490920E+03  0.00000000000E+00 0. -1.
          1    1    1    2  502    0 -0.50348574122E+01 -0.24609549115E+02  0.35013078956E+03  0.35103069594E+03  0.00000000000E+00 0. -1.
         22    1    3    3    0    0 -0.26632712408E+02 -0.12921384324E+03  0.39047938348E+03  0.41216461224E+03  0.00000000000E+00 0. -1.
         22    1    3    3    0    0  0.38227246295E+01  0.25794374987E+02  0.16231052312E+03  0.16439181524E+03  0.00000000000E+00 0. -1.
</event>
<event>
 7    1  0.5553952E-006  0.9835348E+02  0.7818608E-02  0.1365195E+00
          2   -1    0    0  502    0  0.00000000000E+00  0.00000000000E+00  0.26956896911E+03  0.26956896911E+03  0.00000000000E+00 0. -1.
          1   -1    0    0  501    0 -0.00000000000E+00 -0.00000000000E+00 -0.13564983512E+04  0.13564983512E+04  0.00000000000E+00 0. -1.
         25    2    1    2    0    0 -0.61698261348E+02  0.13588722163E+02 -0.47551318425E+03  0.49570964386E+03  0.12499573511E+03 0.  0.
          2    1    1    2  501    0  0.10928159633E+03 -0.17425796771E+02 -0.86513655899E+03  0.87218541113E+03  0.00000000000E+00 0. -1.
          1    1    1    2  502    0 -0.47583334979E+02  0.38370746074E+01  0.25372036116E+03  0.25817226531E+03  0.00000000000E+00 0. -1.
         22    1    3    3    0    0 -0.37262356462E+02  0.67749619667E+02 -0.21425644509E+03  0.22778129518E+03  0.00000000000E+00 0. -1.
         22    1    3    3    0    0 -0.24435904886E+02 -0.54160897504E+02 -0.26125673916E+03  0.26792834867E+03  0.00000000000E+00 0. -1.
</event>
<event>
 7    1  0.5553952E-006  0.1518972E+03  0.7818608E-02  0.1320709E+00
          2   -1    0    0  502    0  0.00000000000E+00  0.00000000000E+00  0.65731247225E+03  0.65731247225E+03  0.00000000000E+00 0. -1.
          1   -1    0    0  501    0 -0.00000000000E+00 -0.00000000000E+00 -0.47402142186E+03  0.47402142186E+03  0.00000000000E+00 0. -1.
         25    2    1    2    0    0  0.81428514907E+02 -0.91183680437E+02 -0.92519047115E+00  0.17484553401E+03  0.12500015267E+03 0.  0.
          2    1    1    2  501    0 -0.79211796772E+02  0.13649784603E+03 -0.36904342053E+03  0.40137166935E+03  0.00000000000E+00 0. -1.
          1    1    1    2  502    0 -0.22167181351E+01 -0.45314165596E+02  0.55325966139E+03  0.55511669076E+03  0.00000000000E+00 0. -1.
         22    1    3    3    0    0  0.18836551633E+02 -0.95859670923E+02 -0.34571721472E+02  0.10362961021E+03  0.00000000000E+00 0.  1.
         22    1    3    3    0    0  0.62591963274E+02  0.46759904866E+01  0.33646531001E+02  0.71215923795E+02  0.00000000000E+00 0.  1.
</event>
<event>
 7    1  0.5553952E-006  0.1245868E+03  0.7818608E-02  0.1322506E+00
          2   -1    0    0  502    0  0.00000000000E+00  0.00000000000E+00  0.83290514922E+03  0.83290514922E+03  0.00000000000E+00 0. -1.
          1   -1    0    0  501    0 -0.00000000000E+00 -0.00000000000E+00 -0.28773210426E+03  0.28773210426E+03  0.00000000000E+00 0. -1.
         25    2    1    2    0    0  0.74505944331E+02 -0.25809036317E+02  0.12214731447E+03  0.19173830839E+03  0.12500548138E+03 0.  0.
          2    1    1    2  501    0  0.50708520036E+02 -0.19793732129E+02 -0.24333230617E+03  0.24934666042E+03  0.00000000000E+00 0. -1.
          1    1    1    2  502    0 -0.12521446437E+03  0.45602768446E+02  0.66635803666E+03  0.67955228467E+03  0.00000000000E+00 0. -1.
         22    1    3    3    0    0 -0.10693301645E+02  0.16422869675E+02  0.88849625214E+02  0.90985236435E+02  0.00000000000E+00 0. -1.
         22    1    3    3    0    0  0.85199245976E+02 -0.42231905992E+02  0.33297689258E+02  0.10075307196E+03  0.00000000000E+00 0. -1.
</event>
<event>
 7    1  0.5553952E-006  0.1513885E+03  0.7818608E-02  0.1231323E+00
          2   -1    0    0  502    0  0.00000000000E+00  0.00000000000E+00  0.29229712201E+03  0.29229712201E+03  0.00000000000E+00 0. -1.
          1   -1    0    0  501    0 -0.00000000000E+00 -0.00000000000E+00 -0.18090562251E+04  0.18090562251E+04  0.00000000000E+00 0. -1.
         25    2    1    2    0    0  0.17921358591E+02 -0.76848124443E+02  0.51077411044E+02  0.15639918532E+03  0.12499997570E+03 0.  0.
          2    1    1    2  501    0  0.70718675379E+02  0.13724301979E+03 -0.17374368447E+04  0.17442831098E+04  0.00000000000E+00 0. -1.
          1    1    1    2  502    0 -0.88640033970E+02 -0.60394895344E+02  0.16960033057E+03  0.20067105207E+03  0.00000000000E+00 0. -1.
         22    1    3    3    0    0  0.47279605578E+01 -0.43740249183E+01 -0.39287985806E+02  0.39812454505E+02  0.00000000000E+00 0.  1.
         22    1    3    3    0    0  0.13193398034E+02 -0.72474099524E+02  0.90365396850E+02  0.11658673081E+03  0.00000000000E+00 0.  1.
</event>
<event>
 7    1  0.5553952E-006  0.9631565E+02  0.7818608E-02  0.1378201E+00
          2   -1    0    0  502    0  0.00000000000E+00  0.00000000000E+00  0.26074030962E+04  0.26074030962E+04  0.00000000000E+00 0. -1.
          1   -1    0    0  501    0 -0.00000000000E+00 -0.00000000000E+00 -0.33091270455E+03  0.33091270455E+03  0.00000000000E+00 0. -1.
         25    2    1    2    0    0 -0.85894912614E+02  0.63913731263E+02  0.10780275204E+04  0.10905187694E+04  0.12499980212E+03 0.  0.
          2    1    1    2  501    0  0.47016082224E+02 -0.84049597508E+02 -0.31720217114E+03  0.33149971976E+03  0.00000000000E+00 0. -1.
          1    1    1    2  502    0  0.38878830389E+02  0.20135866245E+02  0.15156650423E+04  0.15162973116E+04  0.00000000000E+00 0. -1.
         22    1    3    3    0    0 -0.24089376260E+02  0.93048604850E+02  0.60784172368E+03  0.61539410296E+03  0.00000000000E+00 0. -1.
         22    1    3    3    0    0 -0.61805536353E+02 -0.29134873587E+02  0.47018579676E+03  0.47512466643E+03  0.00000000000E+00 0. -1.
</event>
<event>
 7    1  0.5553952E-006  0.6410517E+02  0.7818608E-02  0.1413938E+00
          2   -1    0    0  502    0  0.00000000000E+00  0.00000000000E+00  0.99024982259E+03  0.99024982259E+03  0.00000000000E+00 0. -1.
          1   -1    0    0  501    0 -0.00000000000E+00 -0.00000000000E+00 -0.51661333487E+02  0.51661333487E+02  0.00000000000E+00 0. -1.
         25    2    1    2    0    0  0.10175259955E+03 -0.37546456266E+02  0.22505347579E+03  0.27935537013E+03  0.12500811159E+03 0.  0.
          2    1    1    2  501    0 -0.49282410467E+02  0.45063982344E+01  0.32770886921E+01  0.49596400240E+02  0.00000000000E+00 0. -1.
          1    1    1    2  502    0 -0.52470189082E+02  0.33040058032E+02  0.71025792462E+03  0.71295938570E+03  0.00000000000E+00 0. -1.
         22    1    3    3    0    0  0.10414735064E+03  0.20430236907E+02  0.12798540654E+03  0.16626583988E+03  0.00000000000E+00 0.  1.
         22    1    3    3    0    0 -0.23947510877E+01 -0.57976693173E+02  0.97068069246E+02  0.11308953025E+03  0.00000000000E+00 0.  1.
</event>
<event>
 7    1  0.5553952E-006  0.1296750E+03  0.7818608E-02  0.1249850E+00
          2   -1    0    0  502    0  0.00000000000E+00  0.00000000000E+00  0.22655953231E+04  0.22655953231E+04  0.00000000000E+00 0. -1.
          1   -1    0    0  501    0 -0.00000000000E+00 -0.00000000000E+00 -0.17232540856E+03  0.17232540856E+03  0.00000000000E+00 0. -1.
         25    2    1    2    0    0 -0.68109858845E+01  0.52888494715E+02  0.56303162188E+03  0.57920031388E+03  0.12499925582E+03 0.  0.
          2    1    1    2  501    0 -0.12427042896E+03 -0.37046730885E+02 -0.13561931188E+03  0.18763847563E+03  0.00000000000E+00 0. -1.
          1    1    1    2  502    0  0.13108141484E+03 -0.15841763830E+02  0.16658576046E+04  0.16710819422E+04  0.00000000000E+00 0. -1.
         22    1    3    3    0    0  0.30965590767E+02  0.82314642867E+02  0.35576511832E+03  0.36647426602E+03  0.00000000000E+00 0. -1.
         22    1    3    3    0    0 -0.37776576652E+02 -0.29426148152E+02  0.20726650356E+03  0.21272604785E+03  0.00000000000E+00 0. -1.
</event>
<event>
 7    1  0.5553952E-006  0.5452062E+02  0.7818608E-02  0.1489457E+00
          2   -1    0    0  502    0  0.00000000000E+00  0.00000000000E+00  0.24196626976E+04  0.24196626976E+04  0.00000000000E+00 0. -1.
          1   -1    0    0  501    0 -0.00000000000E+00 -0.00000000000E+00 -0.17627387707E+03  0.17627387707E+03  0.00000000000E+00 0. -1.
         25    2    1    2    0    0 -0.61538978239E+01  0.35251844769E+02  0.49764561599E+03  0.51435116342E+03  0.12500158870E+03 0.  0.
          2    1    1    2  501    0 -0.24233097196E+02 -0.49091163284E+02 -0.16330903772E+03  0.17224118879E+03  0.00000000000E+00 0. -1.
          1    1    1    2  502    0  0.30386995020E+02  0.13839318515E+02  0.19090522423E+04  0.19093442225E+04  0.00000000000E+00 0. -1.
         22    1    3    3    0    0  0.30588183252E+02  0.62054250477E+02  0.16960017104E+03  0.18316818767E+03  0.00000000000E+00 0. -1.
         22    1    3    3    0    0 -0.36742081076E+02 -0.26802405708E+02  0.32804544495E+03  0.33118297575E+03  0.00000000000E+00 0. -1.
</event>
<event>
 7    1  0.5553952E-006  0.7609953E+02  0.7818608E-02  0.1423646E+00
          2   -1    0    0  502    0  0.00000000000E+00  0.00000000000E+00  0.30197119134E+04  0.30197119134E+04  0.00000000000E+00 0. -1.
          1   -1    0    0  501    0 -0.00000000000E+00 -0.00000000000E+00 -0.35009024636E+03  0.35009024636E+03  0.00000000000E+00 0. -1.
         25    2    1    2    0    0 -0.14370281248E+02  0.10598637847E+03  0.14412958018E+03  0.21871850181E+03  0.12499931899E+03 0.  0.
          2    1    1    2  501    0 -0.86629269298E+01 -0.74907434149E+02 -0.30811721330E+03  0.31721032002E+03  0.00000000000E+00 0. -1.
          1    1    1    2  502    0  0.23033208178E+02 -0.31078944322E+02  0.28336093001E+04  0.28338733379E+04  0.00000000000E+00 0. -1.
         22    1    3    3    0    0 -0.54067713180E+02  0.27708765795E+02  0.14989536460E+02  0.62576189671E+02  0.00000000000E+00 0. -1.
         22    1    3    3    0    0  0.39697431932E+02  0.78277612676E+02  0.12914004372E+03  0.15614231214E+03  0.00000000000E+00 0. -1.
</event>
<event>
 7    1  0.5553952E-006  0.1152307E+03  0.7818608E-02  0.1299018E+00
          2   -1    0    0  502    0  0.00000000000E+00  0.00000000000E+00  0.34517903520E+02  0.34517903520E+02  0.00000000000E+00 0. -1.
          1   -1    0    0  501    0 -0.00000000000E+00 -0.00000000000E+00 -0.13140080040E+04  0.13140080040E+04  0.00000000000E+00 0. -1.
         25    2    1    2    0    0  0.75832973755E+02  0.46260651714E+02 -0.67675975863E+03  0.69391676308E+03  0.12500406144E+03 0.  0.
          2    1    1    2  501    0  0.49111833525E+02 -0.53763957608E+02 -0.45584793437E+03  0.46162741968E+03  0.00000000000E+00 0. -1.
          1    1    1    2  502    0 -0.12494480728E+03  0.75033058945E+01 -0.14688240748E+03  0.19298172477E+03  0.00000000000E+00 0. -1.
         22    1    3    3    0    0 -0.37619841980E+01 -0.24901958011E+02 -0.33316848138E+03  0.33411898633E+03  0.00000000000E+00 0.  1.
         22    1    3    3    0    0  0.79594957953E+02  0.71162609725E+02 -0.34359127724E+03  0.35979777675E+03  0.00000000000E+00 0.  1.
</event>
<event>
 7    1  0.5553952E-006  0.8702895E+02  0.7818608E-02  0.1338072E+00
          2   -1    0    0  502    0  0.00000000000E+00  0.00000000000E+00  0.19760718581E+03  0.19760718581E+03  0.00000000000E+00 0. -1.
          1   -1    0    0  501    0 -0.00000000000E+00 -0.00000000000E+00 -0.17006319039E+04  0.17006319039E+04  0.00000000000E+00 0. -1.
         25    2    1    2    0    0 -0.60853503716E+01  0.70879545906E+02 -0.21630705945E+03  0.25976124924E+03  0.12500488440E+03 0.  0.
          2    1    1    2  501    0  0.67624399168E+02 -0.67303167131E+01 -0.14505188275E+04  0.14521099220E+04  0.00000000000E+00 0. -1.
          1    1    1    2  502    0 -0.61539048797E+02 -0.64149229193E+02  0.16380116886E+03  0.18636791851E+03  0.00000000000E+00 0. -1.
         22    1    3    3    0    0  0.35929632181E+02 -0.21676661653E+02 -0.56776774066E+02  0.70600412198E+02  0.00000000000E+00 0. -1.
         22    1    3    3    0    0 -0.42014982553E+02  0.92556207560E+02 -0.15953028538E+03  0.18916083704E+03  0.00000000000E+00 0. -1.
</event>
<event>
 7    1  0.5553952E-006  0.2249244E+03  0.7818608E-02  0.1138639E+00
          2   -1    0    0  502    0  0.00000000000E+00  0.00000000000E+00  0.10514836038E+04  0.10514836038E+04  0.00000000000E+00 0. -1.
          1   -1    0    0  501    0 -0.00000000000E+00 -0.00000000000E+00 -0.27273560025E+03  0.27273560025E+03  0.00000000000E+00 0. -1.
         25    2    1    2    0    0  0.25416999605E+02  0.10193621222E+03  0.60316890192E+02  0.17406684678E+03  0.12499649865E+03 0.  0.
          2    1    1    2  501    0  0.21984586189E+03 -0.47526591428E+02 -0.13376680728E+03  0.26169550744E+03  0.00000000000E+00 0. -1.
          1    1    1    2  502    0 -0.24526286150E+03 -0.54409620790E+02  0.85219792066E+03  0.88845684985E+03  0.00000000000E+00 0. -1.
         22    1    3    3    0    0  0.22708565401E+02  0.10956164822E+03 -0.13229562407E+01  0.11189809612E+03  0.00000000000E+00 0. -1.
         22    1    3    3    0    0  0.27084342035E+01 -0.76254359974E+01  0.61639846433E+02  0.62168750657E+02  0.00000000000E+00 0. -1.
</event>
<event>
 7    1  0.5553952E-006  0.2650014E+02  0.7818608E-02  0.1661448E+00
          2   -1    0    0  502    0  0.00000000000E+00  0.00000000000E+00  0.24198463481E+04  0.24198463481E+04  0.00000000000E+00 0. -1.
          1   -1    0    0  501    0 -0.00000000000E+00 -0.00000000000E+00 -0.17983736641E+02  0.17983736641E+02  0.00000000000E+00 0. -1.
         25    2    1    2    0    0 -0.31111120069E+02 -0.27311147921E+02  0.17183175303E+04  0.17233576758E+04  0.12503096874E+03 0.  0.
          2    1    1    2  501    0  0.23342835151E+02  0.29326655970E+01 -0.61388224674E+01  0.24314062221E+02  0.00000000000E+00 0. -1.
          1    1    1    2  502    0  0.77682849185E+01  0.24378482324E+02  0.68968390366E+03  0.69015834677E+03  0.00000000000E+00 0. -1.
         22    1    3    3    0    0 -0.50008811069E+02 -0.67231261736E+02  0.13049299928E+04  0.13076173790E+04  0.00000000000E+00 0.  1.
         22    1    3    3    0    0  0.18897691000E+02  0.39920113816E+02  0.41338753752E+03  0.41574029681E+03  0.00000000000E+00 0.  1.
</event>
<event>
 7    1  0.5553952E-006  0.1963100E+03  0.7818608E-02  0.1338470E+00
          2   -1    0    0  502    0  0.00000000000E+00  0.00000000000E+00  0.69788572735E+03  0.69788572735E+03  0.00000000000E+00 0. -1.
          1   -1    0    0  501    0 -0.00000000000E+00 -0.00000000000E+00 -0.86680623423E+03  0.86680623423E+03  0.00000000000E+00 0. -1.
         25    2    1    2    0    0  0.19186274653E+02  0.17535101985E+03  0.14129262717E+03  0.25827248574E+03  0.12499990841E+03 0.  0.
          2    1    1    2  501    0 -0.10884296098E+02  0.27981192918E+02 -0.78723289233E+03  0.78780520551E+03  0.00000000000E+00 0. -1.
          1    1    1    2  502    0 -0.83019785555E+01 -0.20333221277E+03  0.47701975828E+03  0.51861427033E+03  0.00000000000E+00 0. -1.
         22    1    3    3    0    0  0.50894017251E+02  0.17665516391E+03  0.12716290813E+03  0.22353445626E+03  0.00000000000E+00 0. -1.
         22    1    3    3    0    0 -0.31707742597E+02 -0.13041440666E+01  0.14129719036E+02  0.34738029484E+02  0.00000000000E+00 0. -1.
</event>
<event>
 7    1  0.5553952E-006  0.4578865E+02  0.7818608E-02  0.1499942E+00
          2   -1    0    0  502    0  0.00000000000E+00  0.00000000000E+00  0.33940171904E+03  0.33940171904E+03  0.00000000000E+00 0. -1.
          1   -1    0    0  501    0 -0.00000000000E+00 -0.00000000000E+00 -0.10750871393E+03  0.10750871393E+03  0.00000000000E+00 0. -1.
         25    2    1    2    0    0 -0.23219036956E+02  0.67898522116E+02 -0.34710863900E+01  0.14417319715E+03  0.12499811740E+03 0.  0.
          2    1    1    2  501    0 -0.88245440783E+01 -0.35905867119E+02 -0.20920972428E+02  0.42482831345E+02  0.00000000000E+00 0. -1.
          1    1    1    2  502    0  0.32043581034E+02 -0.31992654997E+02  0.25628506392E+03  0.26025440448E+03  0.00000000000E+00 0. -1.
         22    1    3    3    0    0 -0.51409658598E+02 -0.14326127915E+02 -0.17416962603E+02  0.56138592113E+02  0.00000000000E+00 0.  1.
         22    1    3    3    0    0  0.28190621642E+02  0.82224650031E+02  0.13945876213E+02  0.88034605040E+02  0.00000000000E+00 0.  1.
</event>
<event>
 7    1  0.5553952E-006  0.1107071E+03  0.7818608E-02  0.1274703E+00
          2   -1    0    0  502    0  0.00000000000E+00  0.00000000000E+00  0.17752504790E+04  0.17752504790E+04  0.00000000000E+00 0. -1.
          1   -1    0    0  501    0 -0.00000000000E+00 -0.00000000000E+00 -0.34290515253E+03  0.34290515253E+03  0.00000000000E+00 0. -1.
         25    2    1    2    0    0 -0.16261200232E+03 -0.47994659772E+02  0.42496310072E+03  0.47430236923E+03  0.12499179898E+03 0.  0.
          2    1    1    2  501    0  0.73519859738E+02  0.81788921946E+02 -0.30695771207E+03  0.32606385038E+03  0.00000000000E+00 0. -1.
          1    1    1    2  502    0  0.89092142578E+02 -0.33794262174E+02  0.13143399378E+04  0.13177894119E+04  0.00000000000E+00 0. -1.
         22    1    3    3    0    0 -0.89237359696E+01 -0.39254023584E+02  0.29419110959E+02  0.49859758531E+02  0.00000000000E+00 0. -1.
         22    1    3    3    0    0 -0.15368826635E+03 -0.87406361883E+01  0.39554398976E+03  0.42444261069E+03  0.00000000000E+00 0. -1.
</event>
<event>
 7    1  0.5553952E-006  0.3398588E+02  0.7818608E-02  0.1563949E+00
          2   -1    0    0  502    0  0.00000000000E+00  0.00000000000E+00  0.57778495528E+03  0.57778495528E+03  0.00000000000E+00 0. -1.
          1   -1    0    0  501    0 -0.00000000000E+00 -0.00000000000E+00 -0.31083607349E+03  0.31083607349E+03  0.00000000000E+00 0. -1.
         25    2    1    2    0    0 -0.30978949760E+02  0.36895706427E+02 -0.21142513388E+02  0.13561902722E+03  0.12499810475E+03 0.  0.
          2    1    1    2  501    0  0.32553165027E+02 -0.29572679078E+01 -0.23074785750E+03  0.23305155595E+03  0.00000000000E+00 0. -1.
          1    1    1    2  502    0 -0.15742152679E+01 -0.33938438520E+02  0.51883925268E+03  0.51995044561E+03  0.00000000000E+00 0. -1.
         22    1    3    3    0    0  0.18760029216E+02  0.42874720921E+02 -0.57192272463E+02  0.73899502161E+02  0.00000000000E+00 0.  1.
         22    1    3    3    0    0 -0.49738978976E+02 -0.59790144938E+01  0.36049759074E+02  0.61719525056E+02  0.00000000000E+00 0.  1.
</event>
<event>
 7    1  0.5553952E-006  0.2638129E+03  0.7818608E-02  0.1249082E+00
          2   -1    0    0  502    0  0.00000000000E+00  0.00000000000E+00  0.98189677550E+03  0.98189677550E+03  0.00000000000E+00 0. -1.
          1   -1    0    0  501    0 -0.00000000000E+00 -0.00000000000E+00 -0.78118769964E+03  0.78118769964E+03  0.00000000000E+00 0. -1.
         25    2    1    2    0    0 -0.22069997116E+03  0.13918572218E+03  0.32216780565E+03  0.43301056445E+03  0.12499964559E+03 0.  0.
          2    1    1    2  501    0  0.26434799011E+02  0.44077608300E+02 -0.69526469455E+03  0.69716183891E+03  0.00000000000E+00 0. -1.
          1    1    1    2  502    0  0.19426517215E+03 -0.18326333048E+03  0.57380596476E+03  0.63291207177E+03  0.00000000000E+00 0. -1.
         22    1    3    3    0    0 -0.84194295561E+02  0.12295592299E+03  0.13725155268E+03  0.20259522974E+03  0.00000000000E+00 0. -1.
         22    1    3    3    0    0 -0.13650567560E+03  0.16229799189E+02  0.18491625298E+03  0.23041533471E+03  0.00000000000E+00 0. -1.
</event>
<event>
 7    1  0.5553952E-006  0.9941003E+02  0.7818608E-02  0.1411450E+00
          2   -1    0    0  502    0  0.00000000000E+00  0.00000000000E+00  0.10251584342E+04  0.10251584342E+04  0.00000000000E+00 0. -1.
          1   -1    0    0  501    0 -0.00000000000E+00 -0.00000000000E+00 -0.77989402442E+02  0.77989402442E+02  0.00000000000E+00 0. -1.
         25    2    1    2    0    0  0.24151476362E+02 -0.11368650728E+03  0.13503331064E+03  0.21765648737E+03  0.12502973952E+03 0.  0.
          2    1    1    2  501    0  0.19790933614E+01  0.94302074470E+02  0.24860412155E+02  0.97544031865E+02  0.00000000000E+00 0. -1.
          1    1    1    2  502    0 -0.26130569724E+02  0.19384432807E+02  0.78727530901E+03  0.78794731746E+03  0.00000000000E+00 0. -1.
         22    1    3    3    0    0 -0.42410411958E+02 -0.90755868238E+02  0.75131020161E+02  0.12521957057E+03  0.00000000000E+00 0. -1.
         22    1    3    3    0    0  0.66561888320E+02 -0.22930639039E+02  0.59902290478E+02  0.92436916802E+02  0.00000000000E+00 0. -1.
</event>
<event>
 7    1  0.5553952E-006  0.1375283E+03  0.7818608E-02  0.1353726E+00
          2   -1    0    0  502    0  0.00000000000E+00  0.00000000000E+00  0.16907922495E+04  0.16907922495E+04  0.00000000000E+00 0. -1.
          1   -1    0    0  501    0 -0.00000000000E+00 -0.00000000000E+00 -0.25503444829E+03  0.25503444829E+03  0.00000000000E+00 0. -1.
         25    2    1    2    0    0 -0.80582149257E+02  0.10226078548E+03  0.12269744399E+03  0.21824403349E+03  0.12500017748E+03 0.  0.
          2    1    1    2  501    0  0.11231264205E+03 -0.82094391634E+02 -0.18365398601E+03  0.23039619198E+03  0.00000000000E+00 0. -1.
          1    1    1    2  502    0 -0.31730492795E+02 -0.20166393843E+02  0.14967143432E+04  0.14971864723E+04  0.00000000000E+00 0. -1.
         22    1    3    3    0    0 -0.12394843921E+01  0.96026086832E+02  0.91852128164E+02  0.13288852141E+03  0.00000000000E+00 0. -1.
         22    1    3    3    0    0 -0.79342664865E+02  0.62346986445E+01  0.30845315824E+02  0.85355512085E+02  0.00000000000E+00 0. -1.
</event>
<event>
 7    1  0.5553952E-006  0.1034337E+03  0.7818608E-02  0.1277125E+00
          2   -1    0    0  502    0  0.00000000000E+00  0.00000000000E+00  0.13139988791E+03  0.13139988791E+03  0.00000000000E+00 0. -1.
          1   -1    0    0  501    0 -0.00000000000E+00 -0.00000000000E+00 -0.17092621903E+04  0.17092621903E+04  0.00000000000E+00 0. -1.
         25    2    1    2    0    0  0.15850947572E+03 -0.10696631529E+03 -0.18301734572E+03  0.29272557318E+03  0.12500346339E+03 0.  0.
          2    1    1    2  501    0 -0.62910807567E+02  0.78846956990E+02 -0.14364240880E+04  0.14399613790E+04  0.00000000000E+00 0. -1.
          1    1    1    2  502    0 -0.95598668155E+02  0.28119358305E+02  0.41579131394E+02  0.10797512599E+03  0.00000000000E+00 0. -1.
         22    1    3    3    0    0  0.10383517870E+02 -0.20813994979E+02 -0.99342883248E+02  0.10202964414E+03  0.00000000000E+00 0.  1.
         22    1    3    3    0    0  0.14812595785E+03 -0.86152320316E+02 -0.83674462474E+02  0.19069592905E+03  0.00000000000E+00 0.  1.
</event>
<event>
 7    1  0.5553952E-006  0.6147112E+02  0.7818608E-02  0.1418809E+00
          2   -1    0    0  502    0  0.00000000000E+00  0.00000000000E+00  0.21014264522E+03  0.21014264522E+03  0.00000000000E+00 0. -1.
          1   -1    0    0  501    0 -0.00000000000E+00 -0.00000000000E+00 -0.10132415557E+04  0.10132415557E+04  0.00000000000E+00 0. -1.
         25    2    1    2    0    0  0.54883150348E+02  0.54365118766E+02  0.44926213913E+02  0.15365414244E+03  0.12499401770E+03 0.  0.
          2    1    1    2  501    0 -0.49237015549E+02  0.67759186134E+01 -0.94967509619E+03  0.95097475523E+03  0.00000000000E+00 0. -1.
          1    1    1    2  502    0 -0.56461347999E+01 -0.61141037380E+02  0.10164997178E+03  0.11875530326E+03  0.00000000000E+00 0. -1.
         22    1    3    3    0    0  0.63252314311E+02  0.53995899241E+02  0.81315746194E+02  0.11631278081E+03  0.00000000000E+00 0. -1.
         22    1    3    3    0    0 -0.83691639626E+01  0.36921952546E+00 -0.36389532281E+02  0.37341361627E+02  0.00000000000E+00 0. -1.
</event>
<event>
 7    1  0.5553952E-006  0.6121832E+02  0.7818608E-02  0.1445279E+00
          2   -1    0    0  502    0  0.00000000000E+00  0.00000000000E+00  0.19873112324E+04  0.19873112324E+04  0.00000000000E+00 0. -1.
          1   -1    0    0  501    0 -0.00000000000E+00 -0.00000000000E+00 -0.36879029328E+03  0.36879029328E+03  0.00000000000E+00 0. -1.
         25    2    1    2    0    0 -0.85379247073E+02  0.42342592153E+02  0.48751766409E+03  0.51222960710E+03  0.12499274637E+03 0.  0.
          2    1    1    2  501    0  0.44526556451E+02 -0.41783139579E+02 -0.35353610513E+03  0.35877043163E+03  0.00000000000E+00 0. -1.
          1    1    1    2  502    0  0.40852690622E+02 -0.55945257425E+00  0.14845393802E+04  0.14851014870E+04  0.00000000000E+00 0. -1.
         22    1    3    3    0    0 -0.10632011164E+02  0.17492151188E+02  0.37111853687E+03  0.37168263805E+03  0.00000000000E+00 0.  1.
         22    1    3    3    0    0 -0.74747235909E+02  0.24850440965E+02  0.11639912722E+03  0.14054696905E+03  0.00000000000E+00 0.  1.
</event>
<event>
 7    1  0.5553952E-006  0.9017815E+02  0.7818608E-02  0.1463812E+00
          2   -1    0    0  502    0  0.00000000000E+00  0.00000000000E+00  0.60529441169E+02  0.60529441169E+02  0.00000000000E+00 0. -1.
          1   -1    0    0  501    0 -0.00000000000E+00 -0.00000000000E+00 -0.44454705904E+03  0.44454705904E+03  0.00000000000E+00 0. -1.
         25    2    1    2    0    0  0.31171176434E+02  0.65769617206E+02 -0.61536281148E+02  0.15718981992E+03  0.12499856319E+03 0.  0.
          2    1    1    2  501    0 -0.53023513907E+02 -0.76207224863E+02 -0.30270115532E+03  0.31661810369E+03  0.00000000000E+00 0. -1.
          1    1    1    2  502    0  0.21852337473E+02  0.10437607657E+02 -0.19780181400E+02  0.31268576604E+02  0.00000000000E+00 0. -1.
         22    1    3    3    0    0  0.27683386580E+02  0.94397090014E+02 -0.76576737123E+02  0.12466425776E+03  0.00000000000E+00 0.  1.
         22    1    3    3    0    0  0.34877898536E+01 -0.28627472808E+02  0.15040455974E+02  0.32525562153E+02  0.00000000000E+00 0.  1.
</event>
<event>
 7    1  0.5553952E-006  0.8536932E+02  0.7818608E-02  0.1411431E+00
          2   -1    0    0  502    0  0.00000000000E+00  0.00000000000E+00  0.82776012164E+03  0.82776012164E+03  0.00000000000E+00 0. -1.
          1   -1    0    0  501    0 -0.00000000000E+00 -0.00000000000E+00 -0.98205285514E+02  0.98205285514E+02  0.00000000000E+00 0. -1.
         25    2    1    2    0    0 -0.49045607835E+02 -0.42157680026E+02  0.52722934143E+03  0.54569139157E+03  0.12500229895E+03 0.  0.
          2    1    1    2  501    0  0.36998655320E+02  0.78083999425E+02 -0.66348588474E+02  0.10894102374E+03  0.00000000000E+00 0. -1.
          1    1    1    2  502    0  0.12046952516E+02 -0.35926319399E+02  0.26867408317E+03  0.27133299183E+03  0.00000000000E+00 0. -1.
         22    1    3    3    0    0 -0.61611927121E+02 -0.31357299491E+02  0.52433228563E+03  0.52887016890E+03  0.00000000000E+00 0. -1.
         22    1    3    3    0    0  0.12566319286E+02 -0.10800380535E+02  0.28970557973E+01  0.16821222678E+02  0.00000000000E+00 0. -1.
</event>
<event>
 7    1  0.5553952E-006  0.1862505E+03  0.7818608E-02  0.1324348E+00
          2   -1    0    0  502    0  0.00000000000E+00  0.00000000000E+00  0.94265033592E+03  0.94265033592E+03  0.00000000000E+00 0. -1.
          1   -1    0    0  501    0 -0.00000000000E+00 -0.00000000000E+00 -0.78392964286E+03  0.78392964286E+03  0.00000000000E+00 0. -1.
         25    2    1    2    0    0 -0.16631898199E+03 -0.73821053689E+01  0.69246261159E+02  0.21940082868E+03  0.12500071876E+03 0.  0.
          2    1    1    2  501    0 -0.19411628761E+02 -0.30105756605E+02 -0.69714339171E+03  0.69806308921E+03  0.00000000000E+00 0. -1.
          1    1    1    2  502    0  0.18573061075E+03  0.37487861974E+02  0.78661782361E+03  0.80911606089E+03  0.00000000000E+00 0. -1.
         22    1    3    3    0    0 -0.10647811656E+02  0.80623869220E+01 -0.30894965022E+02  0.33658235837E+02  0.00000000000E+00 0. -1.
         22    1    3    3    0    0 -0.15567117033E+03 -0.15444492291E+02  0.10014122618E+03  0.18574259284E+03  0.00000000000E+00 0. -1.
</event>
<event>
 7    1  0.5553952E-006  0.4292230E+02  0.7818608E-02  0.1603337E+00
          2   -1    0    0  502    0  0.00000000000E+00  0.00000000000E+00  0.51008519466E+03  0.51008519466E+03  0.00000000000E+00 0. -1.
          1   -1    0    0  501    0 -0.00000000000E+00 -0.00000000000E+00 -0.15623565123E+04  0.15623565123E+04  0.00000000000E+00 0. -1.
         25    2    1    2    0    0 -0.27316078644E+02  0.16892860168E+02 -0.85448765159E+03  0.86417956744E+03  0.12500256472E+03 0.  0.
          2    1    1    2  501    0  0.48866105913E+01  0.19720544654E+02 -0.70196340726E+03  0.70225736306E+03  0.00000000000E+00 0. -1.
          1    1    1    2  502    0  0.22429468053E+02 -0.36613404822E+02  0.50417974116E+03  0.50600477651E+03  0.00000000000E+00 0. -1.
         22    1    3    3    0    0  0.34719733843E+02  0.15033299118E+02 -0.63387483159E+03  0.63500296229E+03  0.00000000000E+00 0.  1.
         22    1    3    3    0    0 -0.62035812488E+02  0.18595610496E+01 -0.22061282000E+03  0.22917660515E+03  0.00000000000E+00 0.  1.
</event>
<event>
 7    1  0.5553952E-006  0.5041108E+02  0.7818608E-02  0.1481813E+00
          2   -1    0    0  502    0  0.00000000000E+00  0.00000000000E+00  0.50010620990E+03  0.50010620990E+03  0.00000000000E+00 0. -1.
          1   -1    0    0  501    0 -0.00000000000E+00 -0.00000000000E+00 -0.16897013359E+03  0.16897013359E+03  0.00000000000E+00 0. -1.
         25    2    1    2    0    0  0.71995374821E+02  0.33252506575E+02  0.14493169216E+02  0.14873608861E+03  0.12499323546E+03 0.  0.
          2    1    1    2  501    0 -0.22153995978E+02 -0.30996300328E+02 -0.96732356416E+02  0.10396498906E+03  0.00000000000E+00 0. -1.
          1    1    1    2  502    0 -0.49841378843E+02 -0.22562062472E+01  0.41337526351E+03  0.41637526583E+03  0.00000000000E+00 0. -1.
         22    1    3    3    0    0  0.96872677221E+02  0.10858102274E+02  0.41285406602E+02  0.10586169645E+03  0.00000000000E+00 0. -1.
         22    1    3    3    0    0 -0.24877302399E+02  0.22394404301E+02 -0.26792237385E+02  0.42874392156E+02  0.00000000000E+00 0. -1.
</event>
<event>
 7    1  0.5553952E-006  0.9050446E+02  0.7818608E-02  0.1305044E+00
          2   -1    0    0  502    0  0.00000000000E+00  0.00000000000E+00  0.17160513619E+04  0.17160513619E+04  0.00000000000E+00 0. -1.
          1   -1    0    0  501    0 -0.00000000000E+00 -0.00000000000E+00 -0.46121822206E+03  0.46121822206E+03  0.00000000000E+00 0. -1.
         25    2    1    2    0    0  0.17385296740E+02  0.17301980393E+02  0.44878863815E+03  0.46651723906E+03  0.12500194216E+03 0.  0.
          2    1    1    2  501    0  0.43784690860E+02 -0.80173084054E+02 -0.44619205768E+03  0.45544722515E+03  0.00000000000E+00 0. -1.
          1    1    1    2  502    0 -0.61169987600E+02  0.62871103661E+02  0.12522365593E+04  0.12553051197E+04  0.00000000000E+00 0. -1.
         22    1    3    3    0    0 -0.52197664218E+02  0.13409427876E+02  0.14127275432E+03  0.15120317464E+03  0.00000000000E+00 0.  1.
         22    1    3    3    0    0  0.69582960958E+02  0.38925525174E+01  0.30751588383E+03  0.31531406443E+03  0.00000000000E+00 0.  1.
</event>
<event>
 7    1  0.5553952E-006  0.7262258E+02  0.7818608E-02  0.1363134E+00
          2   -1    0    0  502    0  0.00000000000E+00  0.00000000000E+00  0.22319176441E+04  0.22319176441E+04  0.00000000000E+00 0. -1.
          1   -1    0    0  501    0 -0.00000000000E+00 -0.00000000000E+00 -0.13157695503E+04  0.13157695503E+04  0.00000000000E+00 0. -1.
         25    2    1    2    0    0 -0.13046082932E+03 -0.35062655703E+02  0.49251645215E+02  0.19052677699E+03  0.12500124153E+03 0.  0.
          2    1    1    2  501    0  0.65686286098E+02  0.33988336397E+01 -0.12436473452E+04  0.12453854662E+04  0.00000000000E+00 0. -1.
          1    1    1    2  502    0  0.64774543221E+02  0.31663822063E+02  0.21105437937E+04  0.21117749512E+04  0.00000000000E+00 0. -1.
         22    1    3    3    0    0 -0.15069855683E+03 -0.31965566565E+02  0.62384082050E+02  0.16620356846E+03  0.00000000000E+00 0.  1.
         22    1    3    3    0    0  0.20237727512E+02 -0.30970891384E+01 -0.13132436836E+02  0.24323208531E+02  0.00000000000E+00 0.  1.
</event>
<event>
 7    1  0.5553952E-006  0.9401074E+02  0.7818608E-02  0.1389290E+00
          2   -1    0    0  502    0  0.00000000000E+00  0.00000000000E+00  0.26253583514E+04  0.26253583514E+04  0.00000000000E+00 0. -1.
          1   -1    0    0  501    0 -0.00000000000E+00 -0.00000000000E+00 -0.19413717635E+02  0.19413717635E+02  0.00000000000E+00 0. -1.
         25    2    1    2    0    0  0.65700938003E+02  0.47957181495E+02  0.11960655770E+04  0.12053275420E+04  0.12500045750E+03 0.  0.
          2    1    1    2  501    0 -0.94735518033E+02 -0.19009813596E+02  0.14707531406E+03  0.17597539429E+03  0.00000000000E+00 0. -1.
          1    1    1    2  502    0  0.29034580029E+02 -0.28947367899E+02  0.12628037427E+04  0.12634691328E+04  0.00000000000E+00 0. -1.
         22    1    3    3    0    0  0.72375630337E+02  0.12646267012E+02  0.11048211064E+04  0.11072614131E+04  0.00000000000E+00 0.  1.
         22    1    3    3    0    0 -0.66746923331E+01  0.35310914484E+02  0.91244470636E+02  0.98066128817E+02  0.00000000000E+00 0.  1.
</event>
<event>
 7    1  0.5553952E-006  0.7642131E+02  0.7818608E-02  0.1400377E+00
          2   -1    0    0  502    0  0.00000000000E+00  0.00000000000E+00  0.34537585645E+02  0.34537585645E+02  0.00000000000E+00 0. -1.
          1   -1    0    0  501    0 -0.00000000000E+00 -0.00000000000E+00 -0.21707328293E+04  0.21707328293E+04  0.00000000000E+00 0. -1.
         25    2    1    2    0    0 -0.22581996800E+02 -0.11870891847E+03 -0.26735695756E+03  0.31891475824E+03  0.12500050546E+03 0.  0.
          2    1    1    2  501    0  0.18787995944E+02  0.72698982334E+02 -0.18100507232E+04  0.18116075048E+04  0.00000000000E+00 0. -1.
          1    1    1    2  502    0  0.37940008563E+01  0.46009936132E+02 -0.58787562917E+02  0.74748151944E+02  0.00000000000E+00 0. -1.
         22    1    3    3    0    0 -0.19989103049E+02 -0.86917315019E+01 -0.17177748551E+03  0.17315488721E+03  0.00000000000E+00 0.  1.
         22    1    3    3    0    0 -0.25928937514E+01 -0.11001718696E+03 -0.95579472052E+02  0.14575987103E+03  0.00000000000E+00 0.  1.
</event>
<event>
 7    1  0.5553952E-006  0.1296186E+03  0.7818608E-02  0.1234126E+00
          2   -1    0    0  502    0  0.00000000000E+00  0.00000000000E+00  0.21028412935E+04  0.21028412935E+04  0.00000000000E+00 0. -1.
          1   -1    0    0  501    0 -0.00000000000E+00 -0.00000000000E+00 -0.81525790437E+03  0.81525790437E+03  0.00000000000E+00 0. -1.
         25    2    1    2    0    0  0.13436200519E+03 -0.61998888856E+02  0.20116029756E+03  0.27926522879E+03  0.12500636801E+03 0.  0.
          2    1    1    2  501    0 -0.10244645032E+03 -0.65723219137E+02 -0.76908729422E+03  0.77865915704E+03  0.00000000000E+00 0. -1.
          1    1    1    2  502    0 -0.31915554870E+02  0.12772210799E+03  0.18555103858E+04  0.18601748120E+04  0.00000000000E+00 0. -1.
         22    1    3    3    0    0  0.11909483034E+03 -0.52909304447E+02  0.71994606942E+02  0.14888316406E+03  0.00000000000E+00 0. -1.
         22    1    3    3    0    0  0.15267174846E+02 -0.90895844088E+01  0.12916569061E+03  0.13038206473E+03  0.00000000000E+00 0. -1.
</event>
<event>
 7    1  0.5553952E-006  0.8837794E+02  0.7818608E-02  0.1471930E+00
          2   -1    0    0  502    0  0.00000000000E+00  0.00000000000E+00  0.76573138453E+02  0.76573138453E+02  0.00000000000E+00 0. -1.
          1   -1    0    0  501    0 -0.00000000000E+00 -0.00000000000E+00 -0.14693574035E+04  0.14693574035E+04  0.00000000000E+00 0. -1.
         25    2    1    2    0    0 -0.84812217782E+02  0.64457621623E+02 -0.25522579345E+03  0.30350794250E+03  0.12501587199E+03 0.  0.
          2    1    1    2  501    0  0.22853729257E+02 -0.45919667087E+01 -0.11544010378E+04  0.11546363649E+04  0.00000000000E+00 0. -1.
          1    1    1    2  502    0  0.61958488524E+02 -0.59865654915E+02  0.16842566203E+02  0.87786234541E+02  0.00000000000E+00 0. -1.
         22    1    3    3    0    0 -0.17168344472E+02 -0.15474061997E+02  0.44297029573E+01  0.23533399985E+02  0.00000000000E+00 0.  1.
         22    1    3    3    0    0 -0.67643873310E+02  0.79931683620E+02 -0.25965549640E+03  0.27997454251E+03  0.00000000000E+00 0.  1.
</event>
<event>
 7    1  0.5553952E-006  0.5451331E+02  0.7818608E-02  0.1504686E+00
          2   -1    0    0  502    0  0.00000000000E+00  0.00000000000E+00  0.15915254536E+03  0.15915254536E+03  0.00000000000E+00 0. -1.
          1   -1    0    0  501    0 -0.00000000000E+00 -0.00000000000E+00 -0.56321160066E+03  0.56321160066E+03  0.00000000000E+00 0. -1.
         25    2    1    2    0    0  0.15378781134E+02  0.33671675166E+02 -0.25818977984E+03  0.28923384001E+03  0.12499585262E+03 0.  0.
          2    1    1    2  501    0  0.15869254811E+01 -0.58491106918E+02 -0.28492024843E+03  0.29086642275E+03  0.00000000000E+00 0. -1.
          1    1    1    2  502    0 -0.16965706615E+02  0.24819431751E+02  0.13905097297E+03  0.14226388325E+03  0.00000000000E+00 0. -1.
         22    1    3    3    0    0  0.30492036973E+02  0.77878006108E+02 -0.16402199092E+03  0.18411399094E+03  0.00000000000E+00 0.  1.
         22    1    3    3    0    0 -0.15113255839E+02 -0.44206330942E+02 -0.94167788928E+02  0.10511984907E+03  0.00000000000E+00 0.  1.
</event>
<event>
 7    1  0.5553952E-006  0.6562478E+02  0.7818608E-02  0.1459912E+00
          2   -1    0    0  502    0  0.00000000000E+00  0.00000000000E+00  0.71417825168E+03  0.71417825168E+03  0.00000000000E+00 0. -1.
          1   -1    0    0  501    0 -0.00000000000E+00 -0.00000000000E+00 -0.98982151507E+02  0.98982151507E+02  0.00000000000E+00 0. -1.
         25    2    1    2    0    0  0.43825828606E+02 -0.55758095778E+02  0.16686395042E+03  0.22022184638E+03  0.12499766067E+03 0.  0.
          2    1    1    2  501    0 -0.10849095290E+02  0.64940871082E+02 -0.56613579185E+02  0.86833846820E+02  0.00000000000E+00 0. -1.
          1    1    1    2  502    0 -0.32976733316E+02 -0.91827753040E+01  0.50494572893E+03  0.50610470999E+03  0.00000000000E+00 0. -1.
         22    1    3    3    0    0  0.33262407444E+02 -0.96191862648E+02  0.12270092895E+03  0.15942013722E+03  0.00000000000E+00 0. -1.
         22    1    3    3    0    0  0.10563421162E+02  0.40433766870E+02  0.44163021477E+02  0.60801709153E+02  0.00000000000E+00 0. -1.
</event>
<event>
 7    1  0.5553952E-006  0.8262419E+02  0.7818608E-02  0.1337533E+00
          2   -1    0    0  502    0  0.00000000000E+00  0.00000000000E+00  0.23206230458E+03  0.23206230458E+03  0.00000000000E+00 0. -1.
          1   -1    0    0  501    0 -0.00000000000E+00 -0.00000000000E+00 -0.41610875459E+03  0.41610875459E+03  0.00000000000E+00 0. -1.
         25    2    1    2    0    0 -0.48895434401E+02  0.13549928719E+03 -0.14398442696E+02  0.19126285934E+03  0.12499338333E+03 0.  0.
          2    1    1    2  501    0  0.47464914900E+02 -0.63595935794E+02 -0.29875896816E+03  0.30911855695E+03  0.00000000000E+00 0. -1.
          1    1    1    2  502    0  0.14305195003E+01 -0.71903351399E+02  0.12911096085E+03  0.14778964287E+03  0.00000000000E+00 0. -1.
         22    1    3    3    0    0  0.42634634596E+02  0.42448984992E+02 -0.28576608654E+01  0.60231176475E+02  0.00000000000E+00 0.  1.
         22    1    3    3    0    0 -0.91530068996E+02  0.93050302201E+02 -0.11540781831E+02  0.13103168287E+03  0.00000000000E+00 0.  1.
</event>
<event>
 7    1  0.5553952E-006  0.1864776E+03  0.7818608E-02  0.1384352E+00
          2   -1    0    0  502    0  0.00000000000E+00  0.00000000000E+00  0.47090386010E+03  0.47090386010E+03  0.00000000000E+00 0. -1.
          1   -1    0    0  501    0 -0.00000000000E+00 -0.00000000000E+00 -0.46942348970E+03  0.46942348970E+03  0.00000000000E+00 0. -1.
         25    2    1    2    0    0 -0.14254182348E+03 -0.93059555139E+02  0.48951695427E+02  0.21679641082E+03  0.12500465198E+03 0.  0.
          2    1    1    2  501    0  0.16399026086E+03  0.94685335771E+02 -0.36185722610E+03  0.40841005197E+03  0.00000000000E+00 0. -1.
          1    1    1    2  502    0 -0.21448437375E+02 -0.16257806316E+01  0.31438590108E+03  0.31512088700E+03  0.00000000000E+00 0. -1.
         22    1    3    3    0    0 -0.13035114969E+03 -0.36324780647E+02  0.73265433968E+02  0.15387896454E+03  0.00000000000E+00 0.  1.
         22    1    3    3    0    0 -0.12190673792E+02 -0.56734774492E+02 -0.24313738542E+02  0.62917446277E+02  0.00000000000E+00 0.  1.
</event>
<event>
 7    1  0.5553952E-006  0.4455865E+02  0.7818608E-02  0.1489943E+00
          2   -1    0    0  502    0  0.00000000000E+00  0.00000000000E+00  0.76168544336E+03  0.76168544336E+03  0.00000000000E+00 0. -1.
          1   -1    0    0  501    0 -0.00000000000E+00 -0.00000000000E+00 -0.31983997700E+02  0.31983997700E+02  0.00000000000E+00 0. -1.
         25    2    1    2    0    0 -0.34355872122E+02  0.58046818330E+02  0.25792544855E+03  0.29445044396E+03  0.12500307146E+03 0.  0.
          2    1    1    2  501    0  0.39144092829E+02 -0.17612587095E+02  0.23187642458E+02  0.48786575924E+02  0.00000000000E+00 0. -1.
          1    1    1    2  502    0 -0.47882207070E+01 -0.40434231235E+02  0.44858835465E+03  0.45043242117E+03  0.00000000000E+00 0. -1.
         22    1    3    3    0    0  0.69654728054E-01  0.48337888148E+02  0.25389521995E+03  0.25845568092E+03  0.00000000000E+00 0.  1.
         22    1    3    3    0    0 -0.34425526850E+02  0.97089301824E+01  0.40302285935E+01  0.35994763046E+02  0.00000000000E+00 0.  1.
</event>
<event>
 7    1  0.5553952E-006  0.1328846E+03  0.7818608E-02  0.1390904E+00
          2   -1    0    0  502    0  0.00000000000E+00  0.00000000000E+00  0.21326655306E+04  0.21326655306E+04  0.00000000000E+00 0. -1.
          1   -1    0    0  501    0 -0.00000000000E+00 -0.00000000000E+00 -0.14014849773E+03  0.14014849773E+03  0.00000000000E+00 0. -1.
         25    2    1    2    0    0 -0.64475012861E+02 -0.10882278419E+03  0.26320807137E+03  0.31765121101E+03  0.12499750950E+03 0.  0.
          2    1    1    2  501    0  0.42512031810E+02  0.12719130853E+03 -0.72957737101E+02  0.15266870412E+03  0.00000000000E+00 0. -1.
          1    1    1    2  502    0  0.21962981051E+02 -0.18368524343E+02  0.18022666986E+04  0.18024941132E+04  0.00000000000E+00 0. -1.
         22    1    3    3    0    0 -0.65623167613E+02 -0.39766552845E+02  0.45403703018E+02  0.89158707373E+02  0.00000000000E+00 0. -1.
         22    1    3    3    0    0  0.11481547514E+01 -0.69056231341E+02  0.21780436835E+03  0.22849250364E+03  0.00000000000E+00 0. -1.
</event>
<event>
 7    1  0.5553952E-006  0.1256637E+03  0.7818608E-02  0.1378050E+00
          2   -1    0    0  502    0  0.00000000000E+00  0.00000000000E+00  0.19107021991E+04  0.19107021991E+04  0.00000000000E+00 0. -1.
          1   -1    0    0  501    0 -0.00000000000E+00 -0.00000000000E+00 -0.23324975602E+04  0.23324975602E+04  0.00000000000E+00 0. -1.
         25    2    1    2    0    0 -0.31403446446E+02  0.14946248923E+03  0.12145707884E+02  0.19773168296E+03  0.12500035236E+03 0.  0.
          2    1    1    2  501    0  0.42579936610E+02 -0.11777581439E+03 -0.22377973003E+04  0.22412989427E+04  0.00000000000E+00 0. -1.
          1    1    1    2  502    0 -0.11176490164E+02 -0.31686674837E+02  0.18038562313E+04  0.18041691336E+04  0.00000000000E+00 0. -1.
         22    1    3    3    0    0 -0.52355456105E+02  0.15437785762E+03 -0.14295036495E+02  0.16363974082E+03  0.00000000000E+00 0. -1.
         22    1    3    3    0    0  0.20952009659E+02 -0.49153683929E+01  0.26440744379E+02  0.34091942135E+02  0.00000000000E+00 0. -1.
</event>
<event>
 7    1  0.5553952E-006  0.2237692E+03  0.7818608E-02  0.1138638E+00
          2   -1    0    0  502    0  0.00000000000E+00  0.00000000000E+00  0.17390553379E+04  0.17390553379E+04  0.00000000000E+00 0. -1.
          1   -1    0    0  501    0 -0.00000000000E+00 -0.00000000000E+00 -0.12082859774E+04  0.12082859774E+04  0.00000000000E+00 0. -1.
         25    2    1    2    0    0  0.37750524642E+03  0.15251189129E+03 -0.59845221485E+02  0.43009420356E+03  0.12501794010E+03 0.  0.
          2    1    1    2  501    0 -0.20939668052E+03 -0.36661408826E+02 -0.94474820618E+03  0.96836986828E+03  0.00000000000E+00 0. -1.
          1    1    1    2  502    0 -0.16810856589E+03 -0.11585048246E+03  0.15353627881E+04  0.15488772435E+04  0.00000000000E+00 0. -1.
         22    1    3    3    0    0  0.35366023610E+03  0.11488111299E+03 -0.23488346961E+02  0.37259218345E+03  0.00000000000E+00 0. -1.
         22    1    3    3    0    0  0.23845010314E+02  0.37630778304E+02 -0.36356874524E+02  0.57502020119E+02  0.00000000000E+00 0. -1.
</event>
<event>
 7    1  0.5553952E-006  0.3954928E+02  0.7818608E-02  0.1556130E+00
          2   -1    0    0  502    0  0.00000000000E+00  0.00000000000E+00  0.47407015067E+03  0.47407015067E+03  0.00000000000E+00 0. -1.
          1   -1    0    0  501    0 -0.00000000000E+00 -0.00000000000E+00 -0.84901909741E+03  0.84901909741E+03  0.00000000000E+00 0. -1.
         25    2    1    2    0    0 -0.48087485320E+01  0.12991719311E+02 -0.28786655735E+03  0.31412371153E+03  0.12495856301E+03 0.  0.
          2    1    1    2  501    0 -0.28065963551E+02  0.91384881160E+01 -0.54677338981E+03  0.54756949338E+03  0.00000000000E+00 0. -1.
          1    1    1    2  502    0  0.32874712083E+02 -0.22130207427E+02  0.45969100043E+03  0.46139604316E+03  0.00000000000E+00 0. -1.
         22    1    3    3    0    0 -0.20123466276E+01  0.40738536576E+02 -0.28286591161E+03  0.28579153565E+03  0.00000000000E+00 0. -1.
         22    1    3    3    0    0 -0.27964019043E+01 -0.27746817265E+02 -0.50006457451E+01  0.28332175875E+02  0.00000000000E+00 0. -1.
</event>
<event>
 7    1  0.5553952E-006  0.4165998E+03  0.7818608E-02  0.1114190E+00
          2   -1    0    0  502    0  0.00000000000E+00  0.00000000000E+00  0.40533957160E+04  0.40533957160E+04  0.00000000000E+00 0. -1.
          1   -1    0    0  501    0 -0.00000000000E+00 -0.00000000000E+00 -0.44632649815E+03  0.44632649815E+03  0.00000000000E+00 0. -1.
         25    2    1    2    0    0 -0.89016204351E+01  0.51213614307E+03  0.87700454198E+03  0.10232909972E+04  0.12499932196E+03 0.  0.
          2    1    1    2  501    0  0.99247933354E+02 -0.39446609050E+03 -0.25995589371E+03  0.48273255070E+03  0.00000000000E+00 0. -1.
          1    1    1    2  502    0 -0.90346312919E+02 -0.11767005258E+03  0.29900205696E+04  0.29936986662E+04  0.00000000000E+00 0. -1.
         22    1    3    3    0    0  0.45252279311E+02  0.11792501051E+03  0.26079620752E+03  0.28977359911E+03  0.00000000000E+00 0. -1.
         22    1    3    3    0    0 -0.54153899746E+02  0.39421113257E+03  0.61620833447E+03  0.73351739813E+03  0.00000000000E+00 0. -1.
</event>
<event>
 7    1  0.5553952E-006  0.7069226E+02  0.7818608E-02  0.1385814E+00
          2   -1    0    0  502    0  0.00000000000E+00  0.00000000000E+00  0.96598629701E+03  0.96598629701E+03  0.00000000000E+00 0. -1.
          1   -1    0    0  501    0 -0.00000000000E+00 -0.00000000000E+00 -0.10843249058E+04  0.10843249058E+04  0.00000000000E+00 0. -1.
         25    2    1    2    0    0  0.28247737278E+02 -0.25918653981E+02  0.38274294814E+03  0.40444603944E+03  0.12495888599E+03 0.  0.
          2    1    1    2  501    0 -0.69865969173E+02 -0.11659626205E+02 -0.10709273230E+04  0.10732672229E+04  0.00000000000E+00 0. -1.
          1    1    1    2  502    0  0.41618231895E+02  0.37578280186E+02  0.56984576607E+03  0.57259794051E+03  0.00000000000E+00 0. -1.
         22    1    3    3    0    0 -0.47827941132E+02 -0.79693936142E-01  0.10629640180E+03  0.11656089970E+03  0.00000000000E+00 0.  1.
         22    1    3    3    0    0  0.76075678410E+02 -0.25838960045E+02  0.27644654634E+03  0.28788513974E+03  0.00000000000E+00 0.  1.
</event>
<event>
 7    1  0.5553952E-006  0.2825693E+03  0.7818608E-02  0.1163431E+00
          2   -1    0    0  502    0  0.00000000000E+00  0.00000000000E+00  0.70567856129E+03  0.70567856129E+03  0.00000000000E+00 0. -1.
          1   -1    0    0  501    0 -0.00000000000E+00 -0.00000000000E+00 -0.35547521487E+03  0.35547521487E+03  0.00000000000E+00 0. -1.
         25    2    1    2    0    0 -0.22782137781E+03  0.22594107715E+02 -0.33426595302E+02  0.26297407780E+03  0.12499981772E+03 0.  0.
          2    1    1    2  501    0 -0.61420860075E+02 -0.10377294212E+03 -0.14595096960E+03  0.18932255834E+03  0.00000000000E+00 0. -1.
          1    1    1    2  502    0  0.28924223788E+03  0.81178834404E+02  0.52958091132E+03  0.60885714002E+03  0.00000000000E+00 0. -1.
         22    1    3    3    0    0 -0.24198413605E+03  0.28606388972E+02 -0.38671243909E+02  0.24671869142E+03  0.00000000000E+00 0.  1.
         22    1    3    3    0    0  0.14162758249E+02 -0.60122812564E+01  0.52446486073E+01  0.16255386373E+02  0.00000000000E+00 0.  1.
</event>
<event>
 7    1  0.5553952E-006  0.9789233E+02  0.7818608E-02  0.1347772E+00
          2   -1    0    0  502    0  0.00000000000E+00  0.00000000000E+00  0.21304499015E+03  0.21304499015E+03  0.00000000000E+00 0. -1.
          1   -1    0    0  501    0 -0.00000000000E+00 -0.00000000000E+00 -0.23898137625E+03  0.23898137625E+03  0.00000000000E+00 0. -1.
         25    2    1    2    0    0  0.37495858513E+02  0.48840862371E+02  0.24147781435E+02  0.14141599051E+03  0.12499599106E+03 0.  0.
          2    1    1    2  501    0  0.12848845490E+02  0.54062397523E+02 -0.14914571465E+03  0.15916117572E+03  0.00000000000E+00 0. -1.
          1    1    1    2  502    0 -0.50344704003E+02 -0.10290325989E+03  0.99061547109E+02  0.15144920018E+03  0.00000000000E+00 0. -1.
         22    1    3    3    0    0 -0.45708957314E+02  0.18409423412E+02 -0.11142810277E+01  0.49289524965E+02  0.00000000000E+00 0. -1.
         22    1    3    3    0    0  0.83204815827E+02  0.30431438960E+02  0.25262062462E+02  0.92126465545E+02  0.00000000000E+00 0. -1.
</event>
<event>
 7    1  0.5553952E-006  0.3080325E+02  0.7818608E-02  0.1646400E+00
          2   -1    0    0  502    0  0.00000000000E+00  0.00000000000E+00  0.19100019176E+03  0.19100019176E+03  0.00000000000E+00 0. -1.
          1   -1    0    0  501    0 -0.00000000000E+00 -0.00000000000E+00 -0.24823269626E+03  0.24823269626E+03  0.00000000000E+00 0. -1.
         25    2    1    2    0    0  0.16246562009E+02 -0.17348650991E+02  0.12683577315E+03  0.17965970620E+03  0.12500148084E+03 0.  0.
          2    1    1    2  501    0 -0.14158191278E+02 -0.16872224195E+02 -0.21335130395E+03  0.21448520981E+03  0.00000000000E+00 0. -1.
          1    1    1    2  502    0 -0.20883707310E+01  0.34220875186E+02  0.29283026299E+02  0.45087972010E+02  0.00000000000E+00 0. -1.
         22    1    3    3    0    0  0.79373628678E+01  0.17733147552E+02 -0.20342703042E+02  0.28129909677E+02  0.00000000000E+00 0. -1.
         22    1    3    3    0    0  0.83091991415E+01 -0.35081798543E+02  0.14717847619E+03  0.15152979652E+03  0.00000000000E+00 0. -1.
</event>
<event>
 7    1  0.5553952E-006  0.7992266E+02  0.7818608E-02  0.1390891E+00
          2   -1    0    0  502    0  0.00000000000E+00  0.00000000000E+00  0.20045843624E+04  0.20045843624E+04  0.00000000000E+00 0. -1.
          1   -1    0    0  501    0 -0.00000000000E+00 -0.00000000000E+00 -0.38992941541E+03  0.38992941541E+03  0.00000000000E+00 0. -1.
         25    2    1    2    0    0 -0.17993950871E+02  0.31836728117E+02  0.83442130344E+02  0.15467624162E+03  0.12499916431E+03 0.  0.
          2    1    1    2  501    0  0.19079768311E+02 -0.79434402875E+02 -0.34929803270E+03  0.35872409672E+03  0.00000000000E+00 0. -1.
          1    1    1    2  502    0 -0.10858174399E+01  0.47597674758E+02  0.18805108493E+04  0.18811134395E+04  0.00000000000E+00 0. -1.
         22    1    3    3    0    0 -0.50811262857E+02  0.36210619230E+00  0.95021064295E+02  0.10775397076E+03  0.00000000000E+00 0.  1.
         22    1    3    3    0    0  0.32817311985E+02  0.31474621925E+02 -0.11578933950E+02  0.46922270860E+02  0.00000000000E+00 0.  1.
</event>
<event>
 7    1  0.5553952E-006  0.9789321E+02  0.7818608E-02  0.1405522E+00
          2   -1    0    0  502    0  0.00000000000E+00  0.00000000000E+00  0.53931580214E+03  0.53931580214E+03  0.00000000000E+00 0. -1.
          1   -1    0    0  501    0 -0.00000000000E+00 -0.00000000000E+00 -0.85346951589E+02  0.85346951589E+02  0.00000000000E+00 0. -1.
         25    2    1    2    0    0  0.92244368426E+02 -0.37175574899E+01  0.17382197607E+03  0.23315685689E+03  0.12500078723E+03 0.  0.
          2    1    1    2  501    0 -0.95381753231E+02 -0.30747368232E+02 -0.87010336174E+01  0.10059218403E+03  0.00000000000E+00 0. -1.
          1    1    1    2  502    0  0.31373848058E+01  0.34464925721E+02  0.28884790810E+03  0.29091371281E+03  0.00000000000E+00 0. -1.
         22    1    3    3    0    0  0.36042296442E+02 -0.26459842007E+02  0.16613010955E+03  0.17204180791E+03  0.00000000000E+00 0. -1.
         22    1    3    3    0    0  0.56202071983E+02  0.22742284517E+02  0.76918665243E+01  0.61115048972E+02  0.00000000000E+00 0. -1.
</event>
<event>
 7    1  0.5553952E-006  0.9060563E+02  0.7818608E-02  0.1379841E+00
          2   -1    0    0  502    0  0.00000000000E+00  0.00000000000E+00  0.61368557093E+03  0.61368557093E+03  0.00000000000E+00 0. -1.
          1   -1    0    0  501    0 -0.00000000000E+00 -0.00000000000E+00 -0.70456306080E+03  0.70456306080E+03  0.00000000000E+00 0. -1.
         25    2    1    2    0    0  0.58851016615E+02  0.10690388144E+03  0.17156930664E+03  0.24485296989E+03  0.12500027144E+03 0.  0.
          2    1    1    2  501    0 -0.65991617093E+02 -0.61538350547E+02 -0.66355756875E+03  0.66966447506E+03  0.00000000000E+00 0. -1.
          1    1    1    2  502    0  0.71406004781E+01 -0.45365530898E+02  0.40111077224E+03  0.40373118678E+03  0.00000000000E+00 0. -1.
         22    1    3    3    0    0  0.71722216894E+02  0.23936664988E+02  0.13180559228E+03  0.15195313253E+03  0.00000000000E+00 0.  1.
         22    1    3    3    0    0 -0.12871200278E+02  0.82967216457E+02  0.39763714352E+02  0.92899837364E+02  0.00000000000E+00 0.  1.
</event>
<event>
 7    1  0.5553952E-006  0.8335292E+02  0.7818608E-02  0.1418009E+00
          2   -1    0    0  502    0  0.00000000000E+00  0.00000000000E+00  0.16631940064E+03  0.16631940064E+03  0.00000000000E+00 0. -1.
          1   -1    0    0  501    0 -0.00000000000E+00 -0.00000000000E+00 -0.72132662801E+03  0.72132662801E+03  0.00000000000E+00 0. -1.
         25    2    1    2    0    0 -0.42854618748E+02  0.35517959085E+02 -0.28773655706E+02  0.13982369218E+03  0.12499879146E+03 0.  0.
          2    1    1    2  501    0 -0.12923365581E+02  0.34541817535E+02 -0.61829270644E+03  0.61939165427E+03  0.00000000000E+00 0. -1.
          1    1    1    2  502    0  0.55777984329E+02 -0.70059776620E+02  0.92059134775E+02  0.12843068220E+03  0.00000000000E+00 0. -1.
         22    1    3    3    0    0 -0.50006692559E+02 -0.30566096775E+02  0.14669058505E+02  0.60416362438E+02  0.00000000000E+00 0. -1.
         22    1    3    3    0    0  0.71520738115E+01  0.66084055860E+02 -0.43442714211E+02  0.79407329742E+02  0.00000000000E+00 0. -1.
</event>
<event>
 7    1  0.5553952E-006  0.6927020E+02  0.7818608E-02  0.1472645E+00
          2   -1    0    0  502    0  0.00000000000E+00  0.00000000000E+00  0.62458238340E+03  0.62458238340E+03  0.00000000000E+00 0. -1.
          1   -1    0    0  501    0 -0.00000000000E+00 -0.00000000000E+00 -0.54955753998E+02  0.54955753998E+02  0.00000000000E+00 0. -1.
         25    2    1    2    0    0 -0.38826232067E+01  0.91141042536E+02  0.28715637095E+03  0.32619960520E+03  0.12500254661E+03 0.  0.
          2    1    1    2  501    0 -0.11864720708E+02 -0.66090525769E+02 -0.21528216170E+01  0.67181573626E+02  0.00000000000E+00 0. -1.
          1    1    1    2  502    0  0.15747343914E+02 -0.25050516767E+02  0.28462308007E+03  0.28615695857E+03  0.00000000000E+00 0. -1.
         22    1    3    3    0    0  0.13129657650E+02  0.11083731690E+03  0.15209575245E+03  0.18865422508E+03  0.00000000000E+00 0.  1.
         22    1    3    3    0    0 -0.17012280857E+02 -0.19696274360E+02  0.13506061850E+03  0.13754538013E+03  0.00000000000E+00 0.  1.
</event>
<event>
 7    1  0.5553952E-006  0.1604891E+03  0.7818608E-02  0.1209570E+00
          2   -1    0    0  502    0  0.00000000000E+00  0.00000000000E+00  0.30115793671E+04  0.30115793671E+04  0.00000000000E+00 0. -1.
          1   -1    0    0  501    0 -0.00000000000E+00 -0.00000000000E+00 -0.12452083655E+04  0.12452083655E+04  0.00000000000E+00 0. -1.
         25    2    1    2    0    0  0.41048255083E+02  0.79331534878E+02 -0.31748752352E+03  0.35270939814E+03  0.12500856080E+03 0.  0.
          2    1    1    2  501    0 -0.48469946732E+02 -0.20622970090E+03 -0.89640851832E+03  0.92110165400E+03  0.00000000000E+00 0. -1.
          1    1    1    2  502    0  0.74216916499E+01  0.12689816603E+03  0.29802670434E+04  0.29829766805E+04  0.00000000000E+00 0. -1.
         22    1    3    3    0    0  0.36637244870E+02  0.10753580371E+03 -0.29577806884E+03  0.31684523477E+03  0.00000000000E+00 0.  1.
         22    1    3    3    0    0  0.44110102123E+01 -0.28204268833E+02 -0.21709454680E+02  0.35864163367E+02  0.00000000000E+00 0.  1.
</event>
<event>
 7    1  0.5553952E-006  0.1089584E+03  0.7818608E-02  0.1365427E+00
          2   -1    0    0  502    0  0.00000000000E+00  0.00000000000E+00  0.65495925493E+02  0.65495925493E+02  0.00000000000E+00 0. -1.
          1   -1    0    0  501    0 -0.00000000000E+00 -0.00000000000E+00 -0.28394044839E+04  0.28394044839E+04  0.00000000000E+00 0. -1.
         25    2    1    2    0    0 -0.52627540406E+02 -0.63102637331E+02 -0.69299063963E+03  0.70895185035E+03  0.12500039463E+03 0.  0.
          2    1    1    2  501    0  0.13049862236E+02 -0.40980585613E+02 -0.20841052495E+04  0.20845489676E+04  0.00000000000E+00 0. -1.
          1    1    1    2  502    0  0.39577678170E+02  0.10408322294E+03  0.31873306771E+01  0.11139959149E+03  0.00000000000E+00 0. -1.
         22    1    3    3    0    0 -0.50639643510E+02  0.55523751457E+01 -0.52495484663E+03  0.52742088825E+03  0.00000000000E+00 0.  1.
         22    1    3    3    0    0 -0.19878968964E+01 -0.68655012477E+02 -0.16803579300E+03  0.18153096210E+03  0.00000000000E+00 0.  1.
</event>
<event>
 7    1  0.5553952E-006  0.6587410E+02  0.7818608E-02  0.1388009E+00
          2   -1    0    0  502    0  0.00000000000E+00  0.00000000000E+00  0.83885867884E+03  0.83885867884E+03  0.00000000000E+00 0. -1.
          1   -1    0    0  501    0 -0.00000000000E+00 -0.00000000000E+00 -0.18478704869E+03  0.18478704869E+03  0.00000000000E+00 0. -1.
         25    2    1    2    0    0 -0.73834557286E+02  0.45938028828E+02  0.31053308942E+03  0.34585859288E+03  0.12500208921E+03 0.  0.
          2    1    1    2  501    0  0.17405573592E+02 -0.63565108111E+02 -0.15882556218E+03  0.17195649498E+03  0.00000000000E+00 0. -1.
          1    1    1    2  502    0  0.56428983694E+02  0.17627079283E+02  0.50236410292E+03  0.50583063967E+03  0.00000000000E+00 0. -1.
         22    1    3    3    0    0 -0.56791483130E+02 -0.36044832305E+02  0.16080319907E+03  0.17430482300E+03  0.00000000000E+00 0.  1.
         22    1    3    3    0    0 -0.17043074156E+02  0.81982861133E+02  0.14972989035E+03  0.17155376988E+03  0.00000000000E+00 0.  1.
</event>
<event>
 7    1  0.5553952E-006  0.9333760E+02  0.7818608E-02  0.1480768E+00
          2   -1    0    0  502    0  0.00000000000E+00  0.00000000000E+00  0.88314095106E+03  0.88314095106E+03  0.00000000000E+00 0. -1.
          1   -1    0    0  501    0 -0.00000000000E+00 -0.00000000000E+00 -0.36277897002E+03  0.36277897002E+03  0.00000000000E+00 0. -1.
         25    2    1    2    0    0 -0.69192919691E+02 -0.63667454169E+02 -0.11792568242E+03  0.19591494945E+03  0.12503997756E+03 0.  0.
          2    1    1    2  501    0 -0.11725086803E+02  0.17094769191E+02 -0.20274703129E+03  0.20380399282E+03  0.00000000000E+00 0. -1.
          1    1    1    2  502    0  0.80918006494E+02  0.46572684978E+02  0.84103469475E+03  0.84620097881E+03  0.00000000000E+00 0. -1.
         22    1    3    3    0    0 -0.10587456984E+03 -0.49980060443E+02 -0.92772263216E+02  0.14937912774E+03  0.00000000000E+00 0. -1.
         22    1    3    3    0    0  0.36681650152E+02 -0.13687393726E+02 -0.25153419200E+02  0.46535821711E+02  0.00000000000E+00 0. -1.
</event>
<event>
 7    1  0.5553952E-006  0.8966797E+02  0.7818608E-02  0.1462317E+00
          2   -1    0    0  502    0  0.00000000000E+00  0.00000000000E+00  0.11170268947E+04  0.11170268947E+04  0.00000000000E+00 0. -1.
          1   -1    0    0  501    0 -0.00000000000E+00 -0.00000000000E+00 -0.16209848352E+03  0.16209848352E+03  0.00000000000E+00 0. -1.
         25    2    1    2    0    0 -0.86139462707E+02 -0.24693003569E+02  0.15140630126E+03  0.21582195959E+03  0.12500199485E+03 0.  0.
          2    1    1    2  501    0  0.89936311815E+02  0.36789417422E+00 -0.11413750221E+03  0.14531360893E+03  0.00000000000E+00 0. -1.
          1    1    1    2  502    0 -0.37968491080E+01  0.24325109394E+02  0.91765961214E+03  0.91798980972E+03  0.00000000000E+00 0. -1.
         22    1    3    3    0    0 -0.48390668136E+02 -0.74177602315E+02  0.67521594463E+02  0.11136938164E+03  0.00000000000E+00 0. -1.
         22    1    3    3    0    0 -0.37748794571E+02  0.49484598747E+02  0.83884706799E+02  0.10445257795E+03  0.00000000000E+00 0. -1.
</event>
<event>
 7    1  0.5553952E-006  0.6495631E+02  0.7818608E-02  0.1452201E+00
          2   -1    0    0  502    0  0.00000000000E+00  0.00000000000E+00  0.14490767813E+04  0.14490767813E+04  0.00000000000E+00 0. -1.
          1   -1    0    0  501    0 -0.00000000000E+00 -0.00000000000E+00 -0.36193520349E+02  0.36193520349E+02  0.00000000000E+00 0. -1.
         25    2    1    2    0    0  0.17298105888E+02 -0.64664540866E+02  0.60974134234E+03  0.62601108579E+03  0.12499859061E+03 0.  0.
          2    1    1    2  501    0 -0.36558088418E+02  0.14664050580E+01 -0.14203664923E+02  0.39247780444E+02  0.00000000000E+00 0. -1.
          1    1    1    2  502    0  0.19259982530E+02  0.63198135808E+02  0.81734558350E+03  0.82001143539E+03  0.00000000000E+00 0. -1.
         22    1    3    3    0    0 -0.15339652923E+02 -0.89645727837E+02  0.51143307756E+03  0.51945688396E+03  0.00000000000E+00 0.  1.
         22    1    3    3    0    0  0.32637758811E+02  0.24981186971E+02  0.98308264783E+02  0.10655420183E+03  0.00000000000E+00 0.  1.
</event>
<event>
 7    1  0.5553952E-006  0.1398392E+03  0.7818608E-02  0.1305788E+00
          2   -1    0    0  502    0  0.00000000000E+00  0.00000000000E+00  0.33257940057E+03  0.33257940057E+03  0.00000000000E+00 0. -1.
          1   -1    0    0  501    0 -0.00000000000E+00 -0.00000000000E+00 -0.29474542711E+04  0.29474542711E+04  0.00000000000E+00 0. -1.
         25    2    1    2    0    0  0.93607731272E+02  0.46152576762E+02 -0.49225471681E+02  0.17011821650E+03  0.12499837130E+03 0.  0.
          2    1    1    2  501    0 -0.96965375311E+02 -0.10243953096E+03 -0.28330879633E+04  0.28365971778E+04  0.00000000000E+00 0. -1.
          1    1    1    2  502    0  0.33576440395E+01  0.56286954199E+02  0.26743856443E+03  0.27331827735E+03  0.00000000000E+00 0. -1.
         22    1    3    3    0    0  0.40875588582E+01  0.58924690033E+02 -0.53356251732E+02  0.79597216231E+02  0.00000000000E+00 0.  1.
         22    1    3    3    0    0  0.89520172414E+02 -0.12772113271E+02  0.41307800512E+01  0.90521000272E+02  0.00000000000E+00 0.  1.
</event>
<event>
 7    1  0.5553952E-006  0.2910389E+02  0.7818608E-02  0.1652443E+00
          2   -1    0    0  502    0  0.00000000000E+00  0.00000000000E+00  0.72596250474E+03  0.72596250474E+03  0.00000000000E+00 0. -1.
          1   -1    0    0  501    0 -0.00000000000E+00 -0.00000000000E+00 -0.18026878795E+03  0.18026878795E+03  0.00000000000E+00 0. -1.
         25    2    1    2    0    0  0.23250737539E+02  0.27755018044E+02 -0.13447391577E+03  0.18713941898E+03  0.12500796091E+03 0.  0.
          2    1    1    2  501    0 -0.22489159550E+02  0.13402997559E+01 -0.12532689558E+02  0.25780360902E+02  0.00000000000E+00 0. -1.
          1    1    1    2  502    0 -0.76157798898E+00 -0.29095317800E+02  0.69270032213E+03  0.69331151281E+03  0.00000000000E+00 0. -1.
         22    1    3    3    0    0  0.56276037887E+02  0.52732020214E+02 -0.12120158096E+03  0.14365751502E+03  0.00000000000E+00 0.  1.
         22    1    3    3    0    0 -0.33025300348E+02 -0.24977002169E+02 -0.13272334816E+02  0.43481903959E+02  0.00000000000E+00 0.  1.
</event>
<event>
 7    1  0.5553952E-006  0.1712703E+03  0.7818608E-02  0.1240354E+00
          2   -1    0    0  502    0  0.00000000000E+00  0.00000000000E+00  0.25199640498E+03  0.25199640498E+03  0.00000000000E+00 0. -1.
          1   -1    0    0  501    0 -0.00000000000E+00 -0.00000000000E+00 -0.52173965659E+03  0.52173965659E+03  0.00000000000E+00 0. -1.
         25    2    1    2    0    0  0.50091198997E+02 -0.17515000464E+03 -0.18553616530E+03  0.28850591015E+03  0.12500135684E+03 0.  0.
          2    1    1    2  501    0  0.36138490883E+02  0.16903923958E+03 -0.24666521223E+03  0.30120421971E+03  0.00000000000E+00 0. -1.
          1    1    1    2  502    0 -0.86229689880E+02  0.61107650555E+01  0.16245812592E+03  0.18402593172E+03  0.00000000000E+00 0. -1.
         22    1    3    3    0    0  0.31364498750E+02 -0.10433129131E+02 -0.92891131308E+02  0.98596877441E+02  0.00000000000E+00 0.  1.
         22    1    3    3    0    0  0.18726700247E+02 -0.16471687551E+03 -0.92645033992E+02  0.18990903270E+03  0.00000000000E+00 0.  1.
</event>
<event>
 7    1  0.5553952E-006  0.1401204E+03  0.7818608E-02  0.1258925E+00
          2   -1    0    0  502    0  0.00000000000E+00  0.00000000000E+00  0.42030647138E+03  0.42030647138E+03  0.00000000000E+00 0. -1.
          1   -1    0    0  501    0 -0.00000000000E+00 -0.00000000000E+00 -0.14174206015E+03  0.14174206015E+03  0.00000000000E+00 0. -1.
         25    2    1    2    0    0  0.69625535496E+02  0.83443568584E+02  0.20642855759E+03  0.26466710372E+03  0.12500152826E+03 0.  0.
          2    1    1    2  501    0 -0.14257201955E+02 -0.15153525117E+03 -0.37685979496E+02  0.15680061608E+03  0.00000000000E+00 0. -1.
          1    1    1    2  502    0 -0.55368333541E+02  0.68091682583E+02  0.10982183313E+03  0.14058081174E+03  0.00000000000E+00 0. -1.
         22    1    3    3    0    0 -0.81101262520E+01  0.71082323142E+02  0.43522713628E+02  0.83741849828E+02  0.00000000000E+00 0.  1.
         22    1    3    3    0    0  0.77735661748E+02  0.12361245442E+02  0.16290584397E+03  0.18092525389E+03  0.00000000000E+00 0.  1.
</event>
<event>
 7    1  0.5553952E-006  0.1537926E+03  0.7818608E-02  0.1365945E+00
          2   -1    0    0  502    0  0.00000000000E+00  0.00000000000E+00  0.13187505320E+04  0.13187505320E+04  0.00000000000E+00 0. -1.
          1   -1    0    0  501    0 -0.00000000000E+00 -0.00000000000E+00 -0.51024878090E+03  0.51024878090E+03  0.00000000000E+00 0. -1.
         25    2    1    2    0    0 -0.53940924341E+02  0.11924433674E+03  0.47849438116E+03  0.51157625584E+03  0.12499823030E+03 0.  0.
          2    1    1    2  501    0  0.44106604374E+02 -0.14794528783E+03 -0.48134891714E+03  0.50549973370E+03  0.00000000000E+00 0. -1.
          1    1    1    2  502    0  0.98343199675E+01  0.28700951088E+02  0.81135628709E+03  0.81192332337E+03  0.00000000000E+00 0. -1.
         22    1    3    3    0    0 -0.34482275246E+02  0.49362137853E+02  0.53849738509E+02  0.80780209811E+02  0.00000000000E+00 0. -1.
         22    1    3    3    0    0 -0.19458649095E+02  0.69882198891E+02  0.42464464265E+03  0.43079604603E+03  0.00000000000E+00 0. -1.
</event>
<event>
 7    1  0.5553952E-006  0.7653560E+02  0.7818608E-02  0.1435032E+00
          2   -1    0    0  502    0  0.00000000000E+00  0.00000000000E+00  0.22186442086E+03  0.22186442086E+03  0.00000000000E+00 0. -1.
          1   -1    0    0  501    0 -0.00000000000E+00 -0.00000000000E+00 -0.44177264097E+03  0.44177264097E+03  0.00000000000E+00 0. -1.
         25    2    1    2    0    0 -0.12041763619E+01  0.55718846505E+02  0.55474703421E+02  0.14767890854E+03  0.12500230963E+03 0.  0.
          2    1    1    2  501    0 -0.26270925801E+02  0.23547781747E+02 -0.38012609405E+03  0.38175975030E+03  0.00000000000E+00 0. -1.
          1    1    1    2  502    0  0.27475102163E+02 -0.79266628252E+02  0.10474317052E+03  0.13419840299E+03  0.00000000000E+00 0. -1.
         22    1    3    3    0    0 -0.38755661701E+02 -0.24964077083E+02  0.30397349894E+02  0.55219610095E+02  0.00000000000E+00 0. -1.
         22    1    3    3    0    0  0.37551485339E+02  0.80682923587E+02  0.25077353527E+02  0.92459298449E+02  0.00000000000E+00 0. -1.
</event>
<event>
 7    1  0.5553952E-006  0.7529914E+02  0.7818608E-02  0.1444217E+00
          2   -1    0    0  502    0  0.00000000000E+00  0.00000000000E+00  0.17463142712E+04  0.17463142712E+04  0.00000000000E+00 0. -1.
          1   -1    0    0  501    0 -0.00000000000E+00 -0.00000000000E+00 -0.74695064551E+03  0.74695064551E+03  0.00000000000E+00 0. -1.
         25    2    1    2    0    0  0.57886127585E+02  0.28476162157E+02  0.19261204071E+03  0.23848510669E+03  0.12495620156E+03 0.  0.
          2    1    1    2  501    0 -0.75457632025E+02  0.21069797971E-01 -0.72186425366E+03  0.72579739280E+03  0.00000000000E+00 0. -1.
          1    1    1    2  502    0  0.17571504440E+02 -0.28497231955E+02  0.15286158387E+04  0.15289824173E+04  0.00000000000E+00 0. -1.
         22    1    3    3    0    0  0.91949349544E+02  0.38846686345E+02  0.11007027565E+03  0.14859075847E+03  0.00000000000E+00 0. -1.
         22    1    3    3    0    0 -0.34063221959E+02 -0.10370524188E+02  0.82541765064E+02  0.89894348221E+02  0.00000000000E+00 0. -1.
</event>
<event>
 7    1  0.5553952E-006  0.8919946E+02  0.7818608E-02  0.1362959E+00
          2   -1    0    0  502    0  0.00000000000E+00  0.00000000000E+00  0.13266210536E+04  0.13266210536E+04  0.00000000000E+00 0. -1.
          1   -1    0    0  501    0 -0.00000000000E+00 -0.00000000000E+00 -0.13517160644E+03  0.13517160644E+03  0.00000000000E+00 0. -1.
         25    2    1    2    0    0 -0.36415502328E+01  0.76382238056E+02  0.62268655981E+03  0.63969572772E+03  0.12499826044E+03 0.  0.
          2    1    1    2  501    0 -0.49962196534E+02 -0.74736478470E+02 -0.10952341791E+03  0.14169382968E+03  0.00000000000E+00 0. -1.
          1    1    1    2  502    0  0.53603746767E+02 -0.16457595865E+01  0.67828630527E+03  0.68040310266E+03  0.00000000000E+00 0. -1.
         22    1    3    3    0    0  0.56342431872E+02  0.28565465716E+02  0.37875295223E+03  0.38398470580E+03  0.00000000000E+00 0.  1.
         22    1    3    3    0    0 -0.59983982105E+02  0.47816772340E+02  0.24393360758E+03  0.25571102193E+03  0.00000000000E+00 0.  1.
</event>
<event>
 7    1  0.5553952E-006  0.7926583E+02  0.7818608E-02  0.1445867E+00
          2   -1    0    0  502    0  0.00000000000E+00  0.00000000000E+00  0.60557892070E+03  0.60557892070E+03  0.00000000000E+00 0. -1.
          1   -1    0    0  501    0 -0.00000000000E+00 -0.00000000000E+00 -0.33867295490E+03  0.33867295490E+03  0.00000000000E+00 0. -1.
         25    2    1    2    0    0  0.61421820956E+02  0.44913389923E+01 -0.13795472426E+03  0.19608602054E+03  0.12500163714E+03 0.  0.
          2    1    1    2  501    0  0.10537835826E+02  0.29596798595E+02 -0.16743524673E+03  0.17035720800E+03  0.00000000000E+00 0. -1.
          1    1    1    2  502    0 -0.71959656782E+02 -0.34088137588E+02  0.57229593680E+03  0.57780864705E+03  0.00000000000E+00 0. -1.
         22    1    3    3    0    0  0.97689446530E+02 -0.33489593384E+01 -0.75781590374E+02  0.12368222561E+03  0.00000000000E+00 0. -1.
         22    1    3    3    0    0 -0.36267625574E+02  0.78402983307E+01 -0.62173133890E+02  0.72403794931E+02  0.00000000000E+00 0. -1.
</event>
<event>
 7    1  0.5553952E-006  0.7392777E+02  0.7818608E-02  0.1472133E+00
          2   -1    0    0  502    0  0.00000000000E+00  0.00000000000E+00  0.68362725549E+03  0.68362725549E+03  0.00000000000E+00 0. -1.
          1   -1    0    0  501    0 -0.00000000000E+00 -0.00000000000E+00 -0.32096155782E+03  0.32096155782E+03  0.00000000000E+00 0. -1.
         25    2    1    2    0    0 -0.17268238971E+02 -0.53481735760E+02  0.45527273894E+02  0.14441873529E+03  0.12500220117E+03 0.  0.
          2    1    1    2  501    0 -0.26929783256E+02 -0.70065879584E+01 -0.26841011138E+03  0.26984864905E+03  0.00000000000E+00 0. -1.
          1    1    1    2  502    0  0.44198022227E+02  0.60488323719E+02  0.58554853516E+03  0.59032142897E+03  0.00000000000E+00 0. -1.
         22    1    3    3    0    0 -0.65905798190E+02 -0.50423228435E+02  0.89057759358E+01  0.83458906330E+02  0.00000000000E+00 0.  1.
         22    1    3    3    0    0  0.48637559219E+02 -0.30585073253E+01  0.36621497958E+02  0.60959828958E+02  0.00000000000E+00 0.  1.
</event>
<event>
 7    1  0.5553952E-006  0.1370713E+03  0.7818608E-02  0.1360364E+00
          2   -1    0    0  502    0  0.00000000000E+00  0.00000000000E+00  0.68405876291E+03  0.68405876291E+03  0.00000000000E+00 0. -1.
          1   -1    0    0  501    0 -0.00000000000E+00 -0.00000000000E+00 -0.10746953400E+04  0.10746953400E+04  0.00000000000E+00 0. -1.
         25    2    1    2    0    0 -0.10534357267E+03  0.19014967291E+02 -0.13043723154E+03  0.20999787081E+03  0.12500558824E+03 0.  0.
          2    1    1    2  501    0 -0.26146136927E+02  0.24258768237E+02 -0.89668365302E+03  0.89739271331E+03  0.00000000000E+00 0. -1.
          1    1    1    2  502    0  0.13148970959E+03 -0.43273735528E+02  0.63648430748E+03  0.65136351877E+03  0.00000000000E+00 0. -1.
         22    1    3    3    0    0  0.25662813469E+02 -0.58202953745E+01 -0.43435795395E+02  0.50785078074E+02  0.00000000000E+00 0.  1.
         22    1    3    3    0    0 -0.13100638613E+03  0.24835262665E+02 -0.87001436145E+02  0.15921279274E+03  0.00000000000E+00 0.  1.
</event>
<event>
 7    1  0.5553952E-006  0.5659278E+02  0.7818608E-02  0.1460768E+00
          2   -1    0    0  502    0  0.00000000000E+00  0.00000000000E+00  0.80446079773E+02  0.80446079773E+02  0.00000000000E+00 0. -1.
          1   -1    0    0  501    0 -0.00000000000E+00 -0.00000000000E+00 -0.21713295840E+04  0.21713295840E+04  0.00000000000E+00 0. -1.
         25    2    1    2    0    0  0.25888109726E+02 -0.93240375429E+01 -0.12198009257E+04  0.12264975257E+04  0.12499900102E+03 0.  0.
          2    1    1    2  501    0 -0.61768707814E+02  0.25718534042E+02 -0.94186850243E+03  0.94424207285E+03  0.00000000000E+00 0. -1.
          1    1    1    2  502    0  0.35880598087E+02 -0.16394496499E+02  0.70785923949E+02  0.81036065205E+02  0.00000000000E+00 0. -1.
         22    1    3    3    0    0 -0.20865954416E+02  0.14739290392E+02 -0.10060332393E+04  0.10063575475E+04  0.00000000000E+00 0.  1.
         22    1    3    3    0    0  0.46754064143E+02 -0.24063327935E+02 -0.21376768641E+03  0.22013997824E+03  0.00000000000E+00 0.  1.
</event>
<event>
 7    1  0.5553952E-006  0.1376945E+03  0.7818608E-02  0.1315467E+00
          2   -1    0    0  502    0  0.00000000000E+00  0.00000000000E+00  0.54169854624E+03  0.54169854624E+03  0.00000000000E+00 0. -1.
          1   -1    0    0  501    0 -0.00000000000E+00 -0.00000000000E+00 -0.10789675896E+04  0.10789675896E+04  0.00000000000E+00 0. -1.
         25    2    1    2    0    0 -0.13766020489E+03 -0.12466552363E+03 -0.98313968648E+02  0.24450438075E+03  0.12499972393E+03 0.  0.
          2    1    1    2  501    0  0.10572855671E+03  0.83049514716E+02 -0.90108730709E+03  0.91106206407E+03  0.00000000000E+00 0. -1.
          1    1    1    2  502    0  0.31931648175E+02  0.41616008918E+02  0.46213223239E+03  0.46509969100E+03  0.00000000000E+00 0. -1.
         22    1    3    3    0    0 -0.54475343713E+01 -0.79126113724E+02 -0.12109457234E+02  0.80232514969E+02  0.00000000000E+00 0.  1.
         22    1    3    3    0    0 -0.13221267051E+03 -0.45539409911E+02 -0.86204511414E+02  0.16427186578E+03  0.00000000000E+00 0.  1.
</event>
<event>
 7    1  0.5553952E-006  0.7797151E+02  0.7818608E-02  0.1366837E+00
          2   -1    0    0  502    0  0.00000000000E+00  0.00000000000E+00  0.10159711555E+03  0.10159711555E+03  0.00000000000E+00 0. -1.
          1   -1    0    0  501    0 -0.00000000000E+00 -0.00000000000E+00 -0.17996068005E+04  0.17996068005E+04  0.00000000000E+00 0. -1.
         25    2    1    2    0    0  0.71030297514E+02  0.27436975524E+02 -0.76367518728E+03  0.77757483003E+03  0.12499893537E+03 0.  0.
          2    1    1    2  501    0  0.64839263094E+00 -0.59395171122E+02 -0.10116908401E+04  0.10134330579E+04  0.00000000000E+00 0. -1.
          1    1    1    2  502    0 -0.71678690145E+02  0.31958195598E+02  0.77356342500E+02  0.11019602811E+03  0.00000000000E+00 0. -1.
         22    1    3    3    0    0 -0.29576694799E+02  0.18993836449E+02 -0.94484686774E+02  0.10081122325E+03  0.00000000000E+00 0.  1.
         22    1    3    3    0    0  0.10060699231E+03  0.84431390754E+01 -0.66919050050E+03  0.67676360678E+03  0.00000000000E+00 0.  1.
</event>
<event>
 7    1  0.5553952E-006  0.6954294E+02  0.7818608E-02  0.1400693E+00
          2   -1    0    0  502    0  0.00000000000E+00  0.00000000000E+00  0.23222677006E+04  0.23222677006E+04  0.00000000000E+00 0. -1.
          1   -1    0    0  501    0 -0.00000000000E+00 -0.00000000000E+00 -0.12826801736E+02  0.12826801736E+02  0.00000000000E+00 0. -1.
         25    2    1    2    0    0 -0.85406229294E+01 -0.28376612269E+02  0.90433794484E+03  0.91341754803E+03  0.12500529672E+03 0.  0.
          2    1    1    2  501    0 -0.14368674312E+02 -0.48522970889E+02  0.83483393293E+02  0.97623841663E+02  0.00000000000E+00 0. -1.
          1    1    1    2  502    0  0.22909297241E+02  0.76899583158E+02  0.13216195608E+04  0.13240531127E+04  0.00000000000E+00 0. -1.
         22    1    3    3    0    0  0.14463274594E+02 -0.63701052691E+02  0.27429178516E+03  0.28196275256E+03  0.00000000000E+00 0.  1.
         22    1    3    3    0    0 -0.23003897524E+02  0.35324440422E+02  0.63004615968E+03  0.63145479547E+03  0.00000000000E+00 0.  1.
</event>
<event>
 7    1  0.5553952E-006  0.1510183E+03  0.7818608E-02  0.1255901E+00
          2   -1    0    0  502    0  0.00000000000E+00  0.00000000000E+00  0.44657589988E+03  0.44657589988E+03  0.00000000000E+00 0. -1.
          1   -1    0    0  501    0 -0.00000000000E+00 -0.00000000000E+00 -0.12255981370E+04  0.12255981370E+04  0.00000000000E+00 0. -1.
         25    2    1    2    0    0  0.21441894780E+03  0.86095054311E+02 -0.42362152451E+03  0.49846566954E+03  0.12499993653E+03 0.  0.
          2    1    1    2  501    0 -0.81699163349E+02 -0.19070262001E+02 -0.74862595165E+03  0.75331218207E+03  0.00000000000E+00 0. -1.
          1    1    1    2  502    0 -0.13271978445E+03 -0.67024792310E+02  0.39322523904E+03  0.42039618527E+03  0.00000000000E+00 0. -1.
         22    1    3    3    0    0  0.66639355653E+01 -0.12408672046E+02  0.24675274244E+01  0.14299366096E+02  0.00000000000E+00 0.  1.
         22    1    3    3    0    0  0.20775501223E+03  0.98503726357E+02 -0.42608905193E+03  0.48416630345E+03  0.00000000000E+00 0.  1.
</event>
<event>
 7    1  0.5553952E-006  0.8838264E+02  0.7818608E-02  0.1320306E+00
          2   -1    0    0  502    0  0.00000000000E+00  0.00000000000E+00  0.76071910200E+03  0.76071910200E+03  0.00000000000E+00 0. -1.
          1   -1    0    0  501    0 -0.00000000000E+00 -0.00000000000E+00 -0.55351378133E+02  0.55351378133E+02  0.00000000000E+00 0. -1.
         25    2    1    2    0    0  0.65585846835E+02 -0.61683258672E+02  0.32010592120E+03  0.35523709769E+03  0.12497706624E+03 0.  0.
          2    1    1    2  501    0 -0.70147385992E+02 -0.34681581014E+02  0.16911352985E+02  0.80059113678E+02  0.00000000000E+00 0. -1.
          1    1    1    2  502    0  0.45615391570E+01  0.96364839686E+02  0.36835044969E+03  0.38077426876E+03  0.00000000000E+00 0. -1.
         22    1    3    3    0    0 -0.17256433186E+02 -0.67582320577E+02  0.12403774756E+03  0.14230431252E+03  0.00000000000E+00 0. -1.
         22    1    3    3    0    0  0.82842280021E+02  0.58990619041E+01  0.19606817363E+03  0.21293278517E+03  0.00000000000E+00 0. -1.
</event>
<event>
 7    1  0.5553952E-006  0.1372834E+03  0.7818608E-02  0.1431515E+00
          2   -1    0    0  502    0  0.00000000000E+00  0.00000000000E+00  0.64899118797E+03  0.64899118797E+03  0.00000000000E+00 0. -1.
          1   -1    0    0  501    0 -0.00000000000E+00 -0.00000000000E+00 -0.13794420000E+03  0.13794420000E+03  0.00000000000E+00 0. -1.
         25    2    1    2    0    0  0.67311982936E+02 -0.10061552822E+03  0.52560232574E+02  0.18176257648E+03  0.12498267317E+03 0.  0.
          2    1    1    2  501    0  0.30821768740E+01 -0.19960830766E+02 -0.62562188873E+02  0.65741631069E+02  0.00000000000E+00 0. -1.
          1    1    1    2  502    0 -0.70394159810E+02  0.12057635898E+03  0.52104894428E+03  0.53943118042E+03  0.00000000000E+00 0. -1.
         22    1    3    3    0    0  0.17146367130E+02 -0.11416233642E+03  0.58575236470E+02  0.12945306211E+03  0.00000000000E+00 0.  1.
         22    1    3    3    0    0  0.50165615806E+02  0.13546808199E+02 -0.60150038961E+01  0.52309514368E+02  0.00000000000E+00 0.  1.
</event>
<event>
 7    1  0.5553952E-006  0.5060516E+02  0.7818608E-02  0.1454582E+00
          2   -1    0    0  502    0  0.00000000000E+00  0.00000000000E+00  0.64649080116E+03  0.64649080116E+03  0.00000000000E+00 0. -1.
          1   -1    0    0  501    0 -0.00000000000E+00 -0.00000000000E+00 -0.50265124590E+03  0.50265124590E+03  0.00000000000E+00 0. -1.
         25    2    1    2    0    0 -0.12623025919E+02 -0.85651708530E+01 -0.10712715087E+03  0.16532675276E+03  0.12499602309E+03 0.  0.
          2    1    1    2  501    0  0.50165442961E+02 -0.18275889504E+02 -0.36360964644E+03  0.36750857784E+03  0.00000000000E+00 0. -1.
          1    1    1    2  502    0 -0.37542417042E+02  0.26841060357E+02  0.61457635258E+03  0.61630671646E+03  0.00000000000E+00 0. -1.
         22    1    3    3    0    0  0.48743270817E+00 -0.28170923835E+02 -0.12967308852E+03  0.13269871298E+03  0.00000000000E+00 0.  1.
         22    1    3    3    0    0 -0.13110458627E+02  0.19605752982E+02  0.22545937648E+02  0.32628039779E+02  0.00000000000E+00 0.  1.
</event>
<event>
 7    1  0.5553952E-006  0.1589838E+03  0.7818608E-02  0.1254529E+00
          2   -1    0    0  502    0  0.00000000000E+00  0.00000000000E+00  0.22298110082E+03  0.22298110082E+03  0.00000000000E+00 0. -1.
          1   -1    0    0  501    0 -0.00000000000E+00 -0.00000000000E+00 -0.12256498086E+04  0.12256498086E+04  0.00000000000E+00 0. -1.
         25    2    1    2    0    0 -0.15447019709E+03  0.52391597934E+01 -0.69582210052E+03  0.72365884005E+03  0.12500092250E+03 0.  0.
          2    1    1    2  501    0  0.18217634643E+02  0.78702013875E+02 -0.48141707237E+03  0.48814781242E+03  0.00000000000E+00 0. -1.
          1    1    1    2  502    0  0.13625256245E+03 -0.83941173668E+02  0.17457046508E+03  0.23682425697E+03  0.00000000000E+00 0. -1.
         22    1    3    3    0    0 -0.11081089768E+03 -0.52882095021E+02 -0.49771131790E+03  0.51263254578E+03  0.00000000000E+00 0.  1.
         22    1    3    3    0    0 -0.43659299411E+02  0.58121254814E+02 -0.19811078261E+03  0.21102629427E+03  0.00000000000E+00 0.  1.
</event>
<event>
 7    1  0.5553952E-006  0.1206395E+03  0.7818608E-02  0.1366685E+00
          2   -1    0    0  502    0  0.00000000000E+00  0.00000000000E+00  0.34049878018E+03  0.34049878018E+03  0.00000000000E+00 0. -1.
          1   -1    0    0  501    0 -0.00000000000E+00 -0.00000000000E+00 -0.27288174340E+04  0.27288174340E+04  0.00000000000E+00 0. -1.
         25    2    1    2    0    0 -0.48265067534E+02  0.72537523494E+02 -0.44923733902E+03  0.47437397429E+03  0.12500108662E+03 0.  0.
          2    1    1    2  501    0  0.74097186069E+02 -0.10100252070E+03 -0.22641480493E+04  0.22676107010E+04  0.00000000000E+00 0. -1.
          1    1    1    2  502    0 -0.25832118535E+02  0.28464997203E+02  0.32506673454E+03  0.32733153884E+03  0.00000000000E+00 0. -1.
         22    1    3    3    0    0 -0.74345540158E+02  0.75281146036E+02 -0.22530524744E+03  0.24891156022E+03  0.00000000000E+00 0.  1.
         22    1    3    3    0    0  0.26080472624E+02 -0.27436225422E+01 -0.22393209158E+03  0.22546241407E+03  0.00000000000E+00 0.  1.
</event>
<event>
 7    1  0.5553952E-006  0.1358140E+03  0.7818608E-02  0.1300311E+00
          2   -1    0    0  502    0  0.00000000000E+00  0.00000000000E+00  0.15183879794E+03  0.15183879794E+03  0.00000000000E+00 0. -1.
          1   -1    0    0  501    0 -0.00000000000E+00 -0.00000000000E+00 -0.15820786757E+04  0.15820786757E+04  0.00000000000E+00 0. -1.
         25    2    1    2    0    0  0.27561655252E+01 -0.80323522174E+02 -0.68779168384E+03  0.70366279331E+03  0.12499784666E+03 0.  0.
          2    1    1    2  501    0  0.26105048414E+02 -0.55187064095E+02 -0.85165465747E+03  0.85383999741E+03  0.00000000000E+00 0. -1.
          1    1    1    2  502    0 -0.28861213939E+02  0.13551058627E+03  0.10920646356E+03  0.17641468290E+03  0.00000000000E+00 0. -1.
         22    1    3    3    0    0  0.62702521932E+02 -0.41704163995E+02 -0.29562149992E+03  0.30506214902E+03  0.00000000000E+00 0.  1.
         22    1    3    3    0    0 -0.59946356407E+02 -0.38619358179E+02 -0.39217018392E+03  0.39860064429E+03  0.00000000000E+00 0.  1.
</event>
<event>
 7    1  0.5553952E-006  0.5151326E+02  0.7818608E-02  0.1459577E+00
          2   -1    0    0  502    0  0.00000000000E+00  0.00000000000E+00  0.23135544577E+04  0.23135544577E+04  0.00000000000E+00 0. -1.
          1   -1    0    0  501    0 -0.00000000000E+00 -0.00000000000E+00 -0.95542194436E+01  0.95542194436E+01  0.00000000000E+00 0. -1.
         25    2    1    2    0    0  0.19641321217E+02 -0.40972878973E+02  0.70091816857E+03  0.71343079437E+03  0.12503064029E+03 0.  0.
          2    1    1    2  501    0 -0.56286845480E+02  0.17137936344E+02  0.29209049524E+03  0.29795767359E+03  0.00000000000E+00 0. -1.
          1    1    1    2  502    0  0.36645524262E+02  0.23834942629E+02  0.13109915744E+04  0.13117202092E+04  0.00000000000E+00 0. -1.
         22    1    3    3    0    0 -0.52761081174E+02 -0.14959849281E+02  0.34103631249E+03  0.34541756645E+03  0.00000000000E+00 0. -1.
         22    1    3    3    0    0  0.72402402391E+02 -0.26013029692E+02  0.35988185608E+03  0.36801322792E+03  0.00000000000E+00 0. -1.
</event>
<event>
 7    1  0.5553952E-006  0.3962816E+02  0.7818608E-02  0.1518685E+00
          2   -1    0    0  502    0  0.00000000000E+00  0.00000000000E+00  0.35586551393E+04  0.35586551393E+04  0.00000000000E+00 0. -1.
          1   -1    0    0  501    0 -0.00000000000E+00 -0.00000000000E+00 -0.94930236875E+02  0.94930236875E+02  0.00000000000E+00 0. -1.
         25    2    1    2    0    0 -0.17010628567E+01  0.75646628325E+02  0.68614541614E+03  0.70153088487E+03  0.12499897734E+03 0.  0.
          2    1    1    2  501    0 -0.52578629140E+01 -0.37251804170E+02 -0.83042246053E+02  0.91166642287E+02  0.00000000000E+00 0. -1.
          1    1    1    2  502    0  0.69589257707E+01 -0.38394824155E+02  0.28606217323E+04  0.28608878490E+04  0.00000000000E+00 0. -1.
         22    1    3    3    0    0 -0.40044952635E+02 -0.18259564406E+02  0.23977480325E+03  0.24378056977E+03  0.00000000000E+00 0.  1.
         22    1    3    3    0    0  0.38343889778E+02  0.93906192732E+02  0.44637061289E+03  0.45775031510E+03  0.00000000000E+00 0.  1.
</event>
<event>
 7    1  0.5553952E-006  0.9519346E+02  0.7818608E-02  0.1433542E+00
          2   -1    0    0  502    0  0.00000000000E+00  0.00000000000E+00  0.14514699547E+03  0.14514699547E+03  0.00000000000E+00 0. -1.
          1   -1    0    0  501    0 -0.00000000000E+00 -0.00000000000E+00 -0.11554730616E+04  0.11554730616E+04  0.00000000000E+00 0. -1.
         25    2    1    2    0    0  0.11675299753E+03  0.18349198618E+02 -0.45554267092E+02  0.17795491925E+03  0.12499922604E+03 0.  0.
          2    1    1    2  501    0 -0.28685020259E+02 -0.12155388761E+00 -0.10178377675E+04  0.10182418996E+04  0.00000000000E+00 0. -1.
          1    1    1    2  502    0 -0.88067977273E+02 -0.18227644731E+02  0.53065968518E+02  0.10442323816E+03  0.00000000000E+00 0. -1.
         22    1    3    3    0    0  0.82569965526E+02 -0.48524233974E+02 -0.15301792922E+02  0.96987346372E+02  0.00000000000E+00 0. -1.
         22    1    3    3    0    0  0.34183032007E+02  0.66873432592E+02 -0.30252474170E+02  0.80967572875E+02  0.00000000000E+00 0. -1.
</event>
<event>
 7    1  0.5553952E-006  0.7019923E+02  0.7818608E-02  0.1378356E+00
          2   -1    0    0  502    0  0.00000000000E+00  0.00000000000E+00  0.71476181445E+03  0.71476181445E+03  0.00000000000E+00 0. -1.
          1   -1    0    0  501    0 -0.00000000000E+00 -0.00000000000E+00 -0.43235902304E+03  0.43235902304E+03  0.00000000000E+00 0. -1.
         25    2    1    2    0    0  0.81755898085E+02 -0.56489095757E+02  0.18053769690E+03  0.24100347030E+03  0.12495506345E+03 0.  0.
          2    1    1    2  501    0 -0.70014828154E+02 -0.23479486382E+01 -0.39726492253E+03  0.40339435754E+03  0.00000000000E+00 0. -1.
          1    1    1    2  502    0 -0.11741069931E+02  0.58837044395E+02  0.49913001704E+03  0.50272300964E+03  0.00000000000E+00 0. -1.
         22    1    3    3    0    0  0.89688420403E+02  0.90348614003E+01  0.78786874274E+02  0.11972056228E+03  0.00000000000E+00 0. -1.
         22    1    3    3    0    0 -0.79325223187E+01 -0.65523957158E+02  0.10175082263E+03  0.12128290802E+03  0.00000000000E+00 0. -1.
</event>
<event>
 7    1  0.5553952E-006  0.1219414E+03  0.7818608E-02  0.1319583E+00
          2   -1    0    0  502    0  0.00000000000E+00  0.00000000000E+00  0.18350287534E+03  0.18350287534E+03  0.00000000000E+00 0. -1.
          1   -1    0    0  501    0 -0.00000000000E+00 -0.00000000000E+00 -0.13693379479E+04  0.13693379479E+04  0.00000000000E+00 0. -1.
         25    2    1    2    0    0 -0.57574276690E+02 -0.44979402746E+02 -0.95911199440E+03  0.96997846229E+03  0.12499782196E+03 0.  0.
          2    1    1    2  501    0 -0.57084358972E+02  0.17929663703E+00 -0.38113518498E+03  0.38538641052E+03  0.00000000000E+00 0. -1.
          1    1    1    2  502    0  0.11465863566E+03  0.44800106109E+02  0.15441210686E+03  0.19747595039E+03  0.00000000000E+00 0. -1.
         22    1    3    3    0    0 -0.73402644939E+02  0.33004207641E+01 -0.29830056223E+03  0.30721664422E+03  0.00000000000E+00 0. -1.
         22    1    3    3    0    0  0.15828368249E+02 -0.48279823510E+02 -0.66081143217E+03  0.66276181806E+03  0.00000000000E+00 0. -1.
</event>
<event>
 7    1  0.5553952E-006  0.8564852E+02  0.7818608E-02  0.1343453E+00
          2   -1    0    0  502    0  0.00000000000E+00  0.00000000000E+00  0.46991375737E+03  0.46991375737E+03  0.00000000000E+00 0. -1.
          1   -1    0    0  501    0 -0.00000000000E+00 -0.00000000000E+00 -0.25574442923E+03  0.25574442923E+03  0.00000000000E+00 0. -1.
         25    2    1    2    0    0 -0.33093142091E+02 -0.29224958848E+02  0.28755459829E+03  0.31664198203E+03  0.12500097404E+03 0.  0.
          2    1    1    2  501    0  0.37790836615E+02 -0.76860402077E+02 -0.21533480637E+03  0.23174284795E+03  0.00000000000E+00 0. -1.
          1    1    1    2  502    0 -0.46976945242E+01  0.10608536092E+03  0.14194953623E+03  0.17727335663E+03  0.00000000000E+00 0. -1.
         22    1    3    3    0    0 -0.64053861892E+02 -0.48530162492E+02  0.25628636869E+03  0.26859035104E+03  0.00000000000E+00 0.  1.
         22    1    3    3    0    0  0.30960719802E+02  0.19305203644E+02  0.31268229604E+02  0.48051630992E+02  0.00000000000E+00 0.  1.
</event>
<event>
 7    1  0.5553952E-006  0.9201818E+02  0.7818608E-02  0.1315163E+00
          2   -1    0    0  502    0  0.00000000000E+00  0.00000000000E+00  0.15973045944E+04  0.15973045944E+04  0.00000000000E+00 0. -1.
          1   -1    0    0  501    0 -0.00000000000E+00 -0.00000000000E+00 -0.76327555288E+02  0.76327555288E+02  0.00000000000E+00 0. -1.
         25    2    1    2    0    0 -0.61251329630E+01 -0.11533282629E+03  0.40825504180E+03  0.44230961604E+03  0.12500575674E+03 0.  0.
          2    1    1    2  501    0  0.65138396631E+02  0.44180045711E+02 -0.30469607601E+02  0.84399550604E+02  0.00000000000E+00 0. -1.
          1    1    1    2  502    0 -0.59013263668E+02  0.71152780582E+02  0.11431916049E+04  0.11469229831E+04  0.00000000000E+00 0. -1.
         22    1    3    3    0    0  0.33753247321E+02 -0.12296829229E+03  0.33669133306E+03  0.36002991039E+03  0.00000000000E+00 0.  1.
         22    1    3    3    0    0 -0.39878380284E+02  0.76354660000E+01  0.71563708735E+02  0.82279705657E+02  0.00000000000E+00 0.  1.
</event>
<event>
 7    1  0.5553952E-006  0.9247584E+02  0.7818608E-02  0.1377022E+00
          2   -1    0    0  502    0  0.00000000000E+00  0.00000000000E+00  0.72333898487E+03  0.72333898487E+03  0.00000000000E+00 0. -1.
          1   -1    0    0  501    0 -0.00000000000E+00 -0.00000000000E+00 -0.21249823322E+03  0.21249823322E+03  0.00000000000E+00 0. -1.
         25    2    1    2    0    0  0.50368327436E+00  0.11325601393E+03  0.36440041651E+03  0.40154660205E+03  0.12499932671E+03 0.  0.
          2    1    1    2  501    0  0.33110372633E+02 -0.31996228250E+02 -0.18538152511E+03  0.19101404465E+03  0.00000000000E+00 0. -1.
          1    1    1    2  502    0 -0.33614055907E+02 -0.81259785676E+02  0.33182186025E+03  0.34327657139E+03  0.00000000000E+00 0. -1.
         22    1    3    3    0    0  0.13487469826E+02  0.12628593596E+03  0.20545600490E+03  0.24154134100E+03  0.00000000000E+00 0.  1.
         22    1    3    3    0    0 -0.12983786551E+02 -0.13029922031E+02  0.15894441162E+03  0.16000526105E+03  0.00000000000E+00 0.  1.
</event>
<event>
 7    1  0.5553952E-006  0.2275353E+03  0.7818608E-02  0.1226271E+00
          2   -1    0    0  502    0  0.00000000000E+00  0.00000000000E+00  0.12993860121E+04  0.12993860121E+04  0.00000000000E+00 0. -1.
          1   -1    0    0  501    0 -0.00000000000E+00 -0.00000000000E+00 -0.45365855598E+03  0.45365855598E+03  0.00000000000E+00 0. -1.
         25    2    1    2    0    0 -0.16134559584E+03 -0.14344988030E+02 -0.96312223358E+02  0.22614108074E+03  0.12500225618E+03 0.  0.
          2    1    1    2  501    0 -0.70437621526E+02  0.26315253388E+02 -0.27645682474E+03  0.28650013444E+03  0.00000000000E+00 0. -1.
          1    1    1    2  502    0  0.23178321736E+03 -0.11970265358E+02  0.12184965042E+04  0.12404033529E+04  0.00000000000E+00 0. -1.
         22    1    3    3    0    0 -0.10610502505E+03  0.28947286522E+02 -0.10897053698E+03  0.15482506150E+03  0.00000000000E+00 0.  1.
         22    1    3    3    0    0 -0.55240570781E+02 -0.43292274552E+02  0.12658313619E+02  0.71316019237E+02  0.00000000000E+00 0.  1.
</event>
<event>
 7    1  0.5553952E-006  0.1085828E+03  0.7818608E-02  0.1344044E+00
          2   -1    0    0  502    0  0.00000000000E+00  0.00000000000E+00  0.19244487099E+04  0.19244487099E+04  0.00000000000E+00 0. -1.
          1   -1    0    0  501    0 -0.00000000000E+00 -0.00000000000E+00 -0.34049113987E+03  0.34049113987E+03  0.00000000000E+00 0. -1.
         25    2    1    2    0    0 -0.11788207221E+03  0.10006699029E+03  0.16218630246E+04  0.16340032490E+04  0.12496944203E+03 0.  0.
          2    1    1    2  501    0  0.93747930375E+02 -0.54315800391E+02 -0.32325887144E+03  0.34093280656E+03  0.00000000000E+00 0. -1.
          1    1    1    2  502    0  0.24134141840E+02 -0.45751189901E+02  0.28535341687E+03  0.29000379428E+03  0.00000000000E+00 0. -1.
         22    1    3    3    0    0 -0.14578217971E+02 -0.28272967897E+02  0.36602539923E+03  0.36740505990E+03  0.00000000000E+00 0. -1.
         22    1    3    3    0    0 -0.10330385424E+03  0.12833995819E+03  0.12558376254E+04  0.12665981891E+04  0.00000000000E+00 0. -1.
</event>
<event>
 7    1  0.5553952E-006  0.1822668E+03  0.7818608E-02  0.1343005E+00
          2   -1    0    0  502    0  0.00000000000E+00  0.00000000000E+00  0.37191552063E+03  0.37191552063E+03  0.00000000000E+00 0. -1.
          1   -1    0    0  501    0 -0.00000000000E+00 -0.00000000000E+00 -0.22795301478E+04  0.22795301478E+04  0.00000000000E+00 0. -1.
         25    2    1    2    0    0  0.75050202456E+02 -0.14444876154E+03 -0.44091322331E+03  0.48634072754E+03  0.12499942072E+03 0.  0.
          2    1    1    2  501    0 -0.10443869696E+03  0.15460027560E+03 -0.18104073808E+04  0.18199954866E+04  0.00000000000E+00 0. -1.
          1    1    1    2  502    0  0.29388494504E+02 -0.10151514063E+02  0.34370597696E+03  0.34510945430E+03  0.00000000000E+00 0. -1.
         22    1    3    3    0    0  0.39916961598E+01 -0.61358169676E+02 -0.30876710360E+03  0.31482992693E+03  0.00000000000E+00 0. -1.
         22    1    3    3    0    0  0.71058506297E+02 -0.83090591859E+02 -0.13214611970E+03  0.17151080061E+03  0.00000000000E+00 0. -1.
</event>
<event>
 7    1  0.5553952E-006  0.7405774E+02  0.7818608E-02  0.1490431E+00
          2   -1    0    0  502    0  0.00000000000E+00  0.00000000000E+00  0.37436094662E+03  0.37436094662E+03  0.00000000000E+00 0. -1.
          1   -1    0    0  501    0 -0.00000000000E+00 -0.00000000000E+00 -0.30786896240E+03  0.30786896240E+03  0.00000000000E+00 0. -1.
         25    2    1    2    0    0  0.36501970800E+02  0.88719970611E+02  0.90993532536E+02  0.18195832362E+03  0.12500152605E+03 0.  0.
          2    1    1    2  501    0 -0.20414993615E+02 -0.70353938771E+02 -0.25662069119E+03  0.26687193148E+03  0.00000000000E+00 0. -1.
          1    1    1    2  502    0 -0.16086977185E+02 -0.18366031839E+02  0.23211914287E+03  0.23339965392E+03  0.00000000000E+00 0. -1.
         22    1    3    3    0    0  0.78914874953E+02  0.59549795467E+02  0.84539677615E+02  0.13007956304E+03  0.00000000000E+00 0. -1.
         22    1    3    3    0    0 -0.42412904153E+02  0.29170175144E+02  0.64538549204E+01  0.51878760586E+02  0.00000000000E+00 0. -1.
</event>
<event>
 7    1  0.5553952E-006  0.7871915E+02  0.7818608E-02  0.1396928E+00
          2   -1    0    0  502    0  0.00000000000E+00  0.00000000000E+00  0.12576548773E+04  0.12576548773E+04  0.00000000000E+00 0. -1.
          1   -1    0    0  501    0 -0.00000000000E+00 -0.00000000000E+00 -0.14383086493E+04  0.14383086493E+04  0.00000000000E+00 0. -1.
         25    2    1    2    0    0 -0.26814492455E+02 -0.21273350639E+02  0.15608539241E+03  0.20287747343E+03  0.12500018819E+03 0.  0.
          2    1    1    2  501    0  0.70719628989E+02  0.35203408693E+02 -0.14133171150E+04  0.14155231589E+04  0.00000000000E+00 0. -1.
          1    1    1    2  502    0 -0.43905136534E+02 -0.13930058054E+02  0.10765779506E+04  0.10775628943E+04  0.00000000000E+00 0. -1.
         22    1    3    3    0    0 -0.54050659995E+02  0.26773857782E+02  0.12668014134E+03  0.14030741789E+03  0.00000000000E+00 0.  1.
         22    1    3    3    0    0  0.27236167540E+02 -0.48047208421E+02  0.29405251071E+02  0.62570055537E+02  0.00000000000E+00 0.  1.
</event>
<event>
 7    1  0.5553952E-006  0.7854929E+02  0.7818608E-02  0.1457953E+00
          2   -1    0    0  502    0  0.00000000000E+00  0.00000000000E+00  0.33338957392E+03  0.33338957392E+03  0.00000000000E+00 0. -1.
          1   -1    0    0  501    0 -0.00000000000E+00 -0.00000000000E+00 -0.87536310050E+03  0.87536310050E+03  0.00000000000E+00 0. -1.
         25    2    1    2    0    0  0.51144214924E+02  0.52728049299E+02 -0.13842368358E+02  0.14564694678E+03  0.12500177615E+03 0.  0.
          2    1    1    2  501    0 -0.30224950229E+02 -0.72826251049E+02 -0.79287058924E+03  0.79678163994E+03  0.00000000000E+00 0. -1.
          1    1    1    2  502    0 -0.20919264695E+02  0.20098201750E+02  0.26473943103E+03  0.26632408770E+03  0.00000000000E+00 0. -1.
         22    1    3    3    0    0  0.58344653598E+01  0.31401934169E+02  0.53148731149E+02  0.62007338907E+02  0.00000000000E+00 0. -1.
         22    1    3    3    0    0  0.45309749565E+02  0.21326115130E+02 -0.66991099506E+02  0.83639607873E+02  0.00000000000E+00 0. -1.
</event>
<event>
 7    1  0.5553952E-006  0.8781169E+02  0.7818608E-02  0.1448632E+00
          2   -1    0    0  502    0  0.00000000000E+00  0.00000000000E+00  0.44171347414E+04  0.44171347414E+04  0.00000000000E+00 0. -1.
          1   -1    0    0  501    0 -0.00000000000E+00 -0.00000000000E+00 -0.25957319069E+03  0.25957319069E+03  0.00000000000E+00 0. -1.
         25    2    1    2    0    0  0.42754737066E+02  0.43283548947E+02  0.41051980985E+04  0.41075512274E+04  0.12499689870E+03 0.  0.
          2    1    1    2  501    0 -0.55978129106E+02 -0.67720430668E+02 -0.25027302132E+03  0.26524741822E+03  0.00000000000E+00 0. -1.
          1    1    1    2  502    0  0.13223392040E+02  0.24436881721E+02  0.30263647351E+03  0.30390928644E+03  0.00000000000E+00 0. -1.
         22    1    3    3    0    0 -0.79149652675E+01  0.68721828915E+02  0.30876424159E+04  0.30884172362E+04  0.00000000000E+00 0. -1.
         22    1    3    3    0    0  0.50669702334E+02 -0.25438279968E+02  0.10175556826E+04  0.10191339912E+04  0.00000000000E+00 0. -1.
</event>
<event>
 7    1  0.5553952E-006  0.1249784E+03  0.7818608E-02  0.1276118E+00
          2   -1    0    0  502    0  0.00000000000E+00  0.00000000000E+00  0.94795455089E+03  0.94795455089E+03  0.00000000000E+00 0. -1.
          1   -1    0    0  501    0 -0.00000000000E+00 -0.00000000000E+00 -0.82449145167E+03  0.82449145167E+03  0.00000000000E+00 0. -1.
         25    2    1    2    0    0 -0.94951180601E+01 -0.77856100612E+02 -0.43334181716E+03  0.45777917261E+03  0.12499964283E+03 0.  0.
          2    1    1    2  501    0 -0.82960483364E+02 -0.71547648364E+01 -0.37006927135E+03  0.37932162878E+03  0.00000000000E+00 0. -1.
          1    1    1    2  502    0  0.92455601424E+02  0.85010865449E+02  0.92687418773E+03  0.93534520117E+03  0.00000000000E+00 0. -1.
         22    1    3    3    0    0  0.40857117410E+02 -0.25001716807E+02 -0.57144305068E+02  0.74564478729E+02  0.00000000000E+00 0. -1.
         22    1    3    3    0    0 -0.50352235470E+02 -0.52854383805E+02 -0.37619751209E+03  0.38321469388E+03  0.00000000000E+00 0. -1.
</event>
<event>
 7    1  0.5553952E-006  0.2940060E+02  0.7818608E-02  0.1639332E+00
          2   -1    0    0  502    0  0.00000000000E+00  0.00000000000E+00  0.17040583066E+04  0.17040583066E+04  0.00000000000E+00 0. -1.
          1   -1    0    0  501    0 -0.00000000000E+00 -0.00000000000E+00 -0.96123188305E+02  0.96123188305E+02  0.00000000000E+00 0. -1.
         25    2    1    2    0    0  0.36406248434E+02 -0.23070486747E+02  0.68191445221E+03  0.69461526682E+03  0.12500154591E+03 0.  0.
          2    1    1    2  501    0 -0.72509812206E+01  0.22904249103E+02 -0.87952138435E+02  0.91174338555E+02  0.00000000000E+00 0. -1.
          1    1    1    2  502    0 -0.29155267214E+02  0.16623764391E+00  0.10139728045E+04  0.10143918896E+04  0.00000000000E+00 0. -1.
         22    1    3    3    0    0 -0.38637077905E+02  0.22219318293E+02  0.22795898390E+03  0.23227531129E+03  0.00000000000E+00 0. -1.
         22    1    3    3    0    0  0.75043326340E+02 -0.45289805041E+02  0.45395546831E+03  0.46233995552E+03  0.00000000000E+00 0. -1.
</event>
<event>
 7    1  0.5553952E-006  0.4388182E+02  0.7818608E-02  0.1591048E+00
          2   -1    0    0  502    0  0.00000000000E+00  0.00000000000E+00  0.25559087800E+03  0.25559087800E+03  0.00000000000E+00 0. -1.
          1   -1    0    0  501    0 -0.00000000000E+00 -0.00000000000E+00 -0.86957408667E+03  0.86957408667E+03  0.00000000000E+00 0. -1.
         25    2    1    2    0    0  0.30680730701E+01  0.33545979867E+02  0.57901624765E+02  0.14181987518E+03  0.12500213201E+03 0.  0.
          2    1    1    2  501    0 -0.24241124116E+02 -0.36678003937E+02 -0.82629237188E+03  0.82746117244E+03  0.00000000000E+00 0. -1.
          1    1    1    2  502    0  0.21173051046E+02  0.31320240706E+01  0.15440753845E+03  0.15588391705E+03  0.00000000000E+00 0. -1.
         22    1    3    3    0    0  0.41475885345E+02 -0.23845956543E+02 -0.53912058980E+01  0.48145028919E+02  0.00000000000E+00 0. -1.
         22    1    3    3    0    0 -0.38407812274E+02  0.57391936410E+02  0.63292830663E+02  0.93674846261E+02  0.00000000000E+00 0. -1.
</event>
<event>
 7    1  0.5553952E-006  0.8831428E+02  0.7818608E-02  0.1393442E+00
          2   -1    0    0  502    0  0.00000000000E+00  0.00000000000E+00  0.22887457245E+03  0.22887457245E+03  0.00000000000E+00 0. -1.
          1   -1    0    0  501    0 -0.00000000000E+00 -0.00000000000E+00 -0.13664237804E+03  0.13664237804E+03  0.00000000000E+00 0. -1.
         25    2    1    2    0    0  0.10894568473E+03  0.32977427904E+02  0.83913224105E+02  0.18874363423E+03  0.12500422917E+03 0.  0.
          2    1    1    2  501    0 -0.28815646533E+02 -0.30850476994E+02 -0.58690356070E+02  0.72295582932E+02  0.00000000000E+00 0. -1.
          1    1    1    2  502    0 -0.80130038196E+02 -0.21269509101E+01  0.67009326375E+02  0.10447773333E+03  0.00000000000E+00 0. -1.
         22    1    3    3    0    0  0.78719211232E+02  0.51769238014E+02  0.10983836456E+03  0.14471086535E+03  0.00000000000E+00 0.  1.
         22    1    3    3    0    0  0.30226473498E+02 -0.18791810110E+02 -0.25925140456E+02  0.44032768877E+02  0.00000000000E+00 0.  1.
</event>
<event>
 7    1  0.7668297E-006  0.1345358E+03  0.7818608E-02  0.1308896E+00
          2   -1    0    0  502    0  0.00000000000E+00  0.00000000000E+00  0.37780107679E+04  0.37780107679E+04  0.00000000000E+00 0. -1.
          1   -1    0    0  501    0 -0.00000000000E+00 -0.00000000000E+00 -0.79139505314E+03  0.79139505314E+03  0.00000000000E+00 0. -1.
         25    2    1    2    0    0 -0.21106254028E+02 -0.16904261813E+03 -0.35929460082E+03  0.41683724781E+03  0.12505918709E+03 0.  0.
          2    1    1    2  501    0 -0.33414303923E+02  0.46146244522E+02 -0.40010513475E+03  0.40414120112E+03  0.00000000000E+00 0. -1.
          1    1    1    2  502    0  0.54520557951E+02  0.12289637361E+03  0.37460154504E+04  0.37484273721E+04  0.00000000000E+00 0. -1.
         22    1    3    3    0    0 -0.29066448150E+02 -0.13062990314E+03 -0.35246887087E+03  0.37701901137E+03  0.00000000000E+00 0.  1.
         22    1    3    3    0    0  0.79601941218E+01 -0.38412714996E+02 -0.68257299528E+01  0.39818236440E+02  0.00000000000E+00 0.  1.
</event>
<event>
 7    1  0.5553952E-006  0.5483345E+02  0.7818608E-02  0.1464742E+00
          2   -1    0    0  502    0  0.00000000000E+00  0.00000000000E+00  0.16465622012E+04  0.16465622012E+04  0.00000000000E+00 0. -1.
          1   -1    0    0  501    0 -0.00000000000E+00 -0.00000000000E+00 -0.53054193787E+02  0.53054193787E+02  0.00000000000E+00 0. -1.
         25    2    1    2    0    0  0.61921629691E+02 -0.35981652382E+02  0.53733011359E+03  0.55630794652E+03  0.12500365138E+03 0.  0.
          2    1    1    2  501    0 -0.75955470437E+01  0.38824356962E+02 -0.33763934446E+02  0.52009867311E+02  0.00000000000E+00 0. -1.
          1    1    1    2  502    0 -0.54326082647E+02 -0.28427045801E+01  0.10899418283E+04  0.10912985812E+04  0.00000000000E+00 0. -1.
         22    1    3    3    0    0  0.30369807437E+02 -0.29433924925E+02  0.40904504313E+02  0.58837569743E+02  0.00000000000E+00 0.  1.
         22    1    3    3    0    0  0.31551822254E+02 -0.65477274575E+01  0.49642560928E+03  0.49747037678E+03  0.00000000000E+00 0.  1.
</event>
<event>
 7    1  0.5553952E-006  0.8818506E+02  0.7818608E-02  0.1352133E+00
          2   -1    0    0  502    0  0.00000000000E+00  0.00000000000E+00  0.29477181021E+04  0.29477181021E+04  0.00000000000E+00 0. -1.
          1   -1    0    0  501    0 -0.00000000000E+00 -0.00000000000E+00 -0.11288458832E+03  0.11288458832E+03  0.00000000000E+00 0. -1.
         25    2    1    2    0    0 -0.29329360488E+01  0.67796627847E+02  0.19140845066E+03  0.23846860906E+03  0.12500039063E+03 0.  0.
          2    1    1    2  501    0 -0.56280778843E+02 -0.72888771272E+02 -0.65215107323E+02  0.11284196590E+03  0.00000000000E+00 0. -1.
          1    1    1    2  502    0  0.59213714892E+02  0.50921434251E+01  0.27086401704E+04  0.27092921154E+04  0.00000000000E+00 0. -1.
         22    1    3    3    0    0  0.51535445583E+02 -0.15610187219E+01  0.50047417497E+02  0.71854595741E+02  0.00000000000E+00 0. -1.
         22    1    3    3    0    0 -0.54468381632E+02  0.69357646569E+02  0.14136103317E+03  0.16661401332E+03  0.00000000000E+00 0. -1.
</event>
<event>
 7    1  0.5553952E-006  0.5435917E+02  0.7818608E-02  0.1428226E+00
          2   -1    0    0  502    0  0.00000000000E+00  0.00000000000E+00  0.27414317467E+03  0.27414317467E+03  0.00000000000E+00 0. -1.
          1   -1    0    0  501    0 -0.00000000000E+00 -0.00000000000E+00 -0.84122790485E+03  0.84122790485E+03  0.00000000000E+00 0. -1.
         25    2    1    2    0    0  0.11588220784E+02  0.21084793784E+01 -0.12525556070E+03  0.17735144022E+03  0.12500338121E+03 0.  0.
          2    1    1    2  501    0  0.36876406404E+01 -0.54277123801E+02 -0.68585670777E+03  0.68801092176E+03  0.00000000000E+00 0. -1.
          1    1    1    2  502    0 -0.15275861424E+02  0.52168644423E+02  0.24402753829E+03  0.25000871754E+03  0.00000000000E+00 0. -1.
         22    1    3    3    0    0 -0.28622553028E+02 -0.32943010662E+02 -0.27396966444E+01  0.43726404277E+02  0.00000000000E+00 0. -1.
         22    1    3    3    0    0  0.40210773812E+02  0.35051490040E+02 -0.12251586406E+03  0.13362503594E+03  0.00000000000E+00 0. -1.
</event>
<event>
 7    1  0.5553952E-006  0.2933623E+02  0.7818608E-02  0.1650154E+00
          2   -1    0    0  502    0  0.00000000000E+00  0.00000000000E+00  0.14029937410E+04  0.14029937410E+04  0.00000000000E+00 0. -1.
          1   -1    0    0  501    0 -0.00000000000E+00 -0.00000000000E+00 -0.84075433823E+02  0.84075433823E+02  0.00000000000E+00 0. -1.
         25    2    1    2    0    0  0.43780903866E+01 -0.13874261780E+02  0.36948126017E+03  0.39032380273E+03  0.12499842619E+03 0.  0.
          2    1    1    2  501    0 -0.26940625286E+02  0.11992761946E+02 -0.70571784476E+02  0.76485295280E+02  0.00000000000E+00 0. -1.
          1    1    1    2  502    0  0.22562534899E+02  0.18814998340E+01  0.10200088315E+04  0.10202600768E+04  0.00000000000E+00 0. -1.
         22    1    3    3    0    0  0.14577104568E+02  0.34870707931E+02  0.31195397068E+03  0.31423516364E+03  0.00000000000E+00 0.  1.
         22    1    3    3    0    0 -0.10199014182E+02 -0.48744969712E+02  0.57527289492E+02  0.76088639091E+02  0.00000000000E+00 0.  1.
</event>
<event>
 7    1  0.5553952E-006  0.7890065E+02  0.7818608E-02  0.1389283E+00
          2   -1    0    0  502    0  0.00000000000E+00  0.00000000000E+00  0.37858723646E+03  0.37858723646E+03  0.00000000000E+00 0. -1.
          1   -1    0    0  501    0 -0.00000000000E+00 -0.00000000000E+00 -0.11283655169E+03  0.11283655169E+03  0.00000000000E+00 0. -1.
         25    2    1    2    0    0  0.38796249274E+02  0.14562830006E+02  0.60583041602E+02  0.14495243815E+03  0.12499471756E+03 0.  0.
          2    1    1    2  501    0 -0.87203601168E+02 -0.21151469111E+02 -0.38726646446E+02  0.97732317312E+02  0.00000000000E+00 0. -1.
          1    1    1    2  502    0  0.48407351894E+02  0.65886391051E+01  0.24389428961E+03  0.24873903270E+03  0.00000000000E+00 0. -1.
         22    1    3    3    0    0  0.79309720086E+02  0.10174959038E+02  0.66211914750E+02  0.10381512003E+03  0.00000000000E+00 0.  1.
         22    1    3    3    0    0 -0.40513470813E+02  0.43878709680E+01 -0.56288731483E+01  0.41137318117E+02  0.00000000000E+00 0.  1.
</event>
<event>
 7    1  0.5553952E-006  0.3821707E+02  0.7818608E-02  0.1521816E+00
          2   -1    0    0  502    0  0.00000000000E+00  0.00000000000E+00  0.38093487471E+03  0.38093487471E+03  0.00000000000E+00 0. -1.
          1   -1    0    0  501    0 -0.00000000000E+00 -0.00000000000E+00 -0.42409931712E+03  0.42409931712E+03  0.00000000000E+00 0. -1.
         25    2    1    2    0    0  0.19240542590E+02 -0.15871505677E+02  0.11941342564E+03  0.17465681328E+03  0.12499333194E+03 0.  0.
          2    1    1    2  501    0 -0.31030964727E+02 -0.22307484069E+02 -0.39383934776E+03  0.39568924229E+03  0.00000000000E+00 0. -1.
          1    1    1    2  502    0  0.11790422136E+02  0.38178989747E+02  0.23126147971E+03  0.23468813627E+03  0.00000000000E+00 0. -1.
         22    1    3    3    0    0  0.41651709083E+02 -0.19084966771E+02 -0.68980495179E+01  0.46332320396E+02  0.00000000000E+00 0. -1.
         22    1    3    3    0    0 -0.22411166492E+02  0.32134610939E+01  0.12631147516E+03  0.12832449288E+03  0.00000000000E+00 0. -1.
</event>
<event>
 7    1  0.5553952E-006  0.9973393E+02  0.7818608E-02  0.1428197E+00
          2   -1    0    0  502    0  0.00000000000E+00  0.00000000000E+00  0.14009287430E+04  0.14009287430E+04  0.00000000000E+00 0. -1.
          1   -1    0    0  501    0 -0.00000000000E+00 -0.00000000000E+00 -0.12183960174E+04  0.12183960174E+04  0.00000000000E+00 0. -1.
         25    2    1    2    0    0  0.58604284356E+02 -0.70505200745E+02  0.39215456339E+02  0.15990255423E+03  0.12500211740E+03 0.  0.
          2    1    1    2  501    0  0.24463759881E+02  0.14640443562E+02 -0.11559513254E+04  0.11563028517E+04  0.00000000000E+00 0. -1.
          1    1    1    2  502    0 -0.83068044237E+02  0.55864757182E+02  0.12992685947E+04  0.13031193545E+04  0.00000000000E+00 0. -1.
         22    1    3    3    0    0 -0.16331821674E+02  0.24593657402E+02  0.23657322953E+02  0.37831802929E+02  0.00000000000E+00 0.  1.
         22    1    3    3    0    0  0.74936106030E+02 -0.95098858146E+02  0.15558133386E+02  0.12207075130E+03  0.00000000000E+00 0.  1.
</event>
<event>
 7    1  0.5553952E-006  0.1726000E+03  0.7818608E-02  0.1319671E+00
          2   -1    0    0  502    0  0.00000000000E+00  0.00000000000E+00  0.27679681160E+02  0.27679681160E+02  0.00000000000E+00 0. -1.
          1   -1    0    0  501    0 -0.00000000000E+00 -0.00000000000E+00 -0.23614179083E+04  0.23614179083E+04  0.00000000000E+00 0. -1.
         25    2    1    2    0    0 -0.99456332142E+02 -0.11229597836E+03 -0.97659043682E+03  0.99591916691E+03  0.12499662784E+03 0.  0.
          2    1    1    2  501    0  0.13509958130E+03  0.13109863426E+03 -0.13329399734E+04  0.13461677910E+04  0.00000000000E+00 0. -1.
          1    1    1    2  502    0 -0.35643249159E+02 -0.18802655905E+02 -0.24207816890E+02  0.47010631545E+02  0.00000000000E+00 0. -1.
         22    1    3    3    0    0 -0.11405075041E+03 -0.42096091159E+02 -0.68024196496E+03  0.69102010495E+03  0.00000000000E+00 0.  1.
         22    1    3    3    0    0  0.14594418264E+02 -0.70199887199E+02 -0.29634847186E+03  0.30489906196E+03  0.00000000000E+00 0.  1.
</event>
<event>
 7    1  0.5553952E-006  0.2542817E+03  0.7818608E-02  0.1186231E+00
          2   -1    0    0  502    0  0.00000000000E+00  0.00000000000E+00  0.26504475928E+04  0.26504475928E+04  0.00000000000E+00 0. -1.
          1   -1    0    0  501    0 -0.00000000000E+00 -0.00000000000E+00 -0.18899216440E+03  0.18899216440E+03  0.00000000000E+00 0. -1.
         25    2    1    2    0    0  0.12154317877E+03 -0.19111016584E+03  0.54350193704E+03  0.60192649606E+03  0.12500124520E+03 0.  0.
          2    1    1    2  501    0 -0.21607644030E+03  0.14904896700E+03 -0.49683764398E+02  0.26715744246E+03  0.00000000000E+00 0. -1.
          1    1    1    2  502    0  0.94533261531E+02  0.42061198841E+02  0.19676372557E+04  0.19703558187E+04  0.00000000000E+00 0. -1.
         22    1    3    3    0    0  0.12686787096E+03 -0.85602848631E+02  0.32294833043E+03  0.35737785116E+03  0.00000000000E+00 0. -1.
         22    1    3    3    0    0 -0.53246921911E+01 -0.10550731721E+03  0.22055360661E+03  0.24454864490E+03  0.00000000000E+00 0. -1.
</event>
<event>
 7    1  0.5553952E-006  0.4264217E+02  0.7818608E-02  0.1507344E+00
          2   -1    0    0  502    0  0.00000000000E+00  0.00000000000E+00  0.90519106308E+03  0.90519106308E+03  0.00000000000E+00 0. -1.
          1   -1    0    0  501    0 -0.00000000000E+00 -0.00000000000E+00 -0.78649167150E+02  0.78649167150E+02  0.00000000000E+00 0. -1.
         25    2    1    2    0    0  0.98736614541E+01 -0.56675141678E+02  0.34844229166E+03  0.37462831884E+03  0.12499914313E+03 0.  0.
          2    1    1    2  501    0 -0.31843393482E+02  0.20262271129E+02 -0.59212851883E+02  0.70219108282E+02  0.00000000000E+00 0. -1.
          1    1    1    2  502    0  0.21969732028E+02  0.36412870548E+02  0.53731245615E+03  0.53899280311E+03  0.00000000000E+00 0. -1.
         22    1    3    3    0    0  0.25194498427E+02  0.13583527948E+02  0.12774326765E+02  0.31344192553E+02  0.00000000000E+00 0. -1.
         22    1    3    3    0    0 -0.15320836972E+02 -0.70258669626E+02  0.33566796490E+03  0.34328412629E+03  0.00000000000E+00 0. -1.
</event>
<event>
 7    1  0.5553952E-006  0.1172054E+03  0.7818608E-02  0.1285440E+00
          2   -1    0    0  502    0  0.00000000000E+00  0.00000000000E+00  0.25339359499E+04  0.25339359499E+04  0.00000000000E+00 0. -1.
          1   -1    0    0  501    0 -0.00000000000E+00 -0.00000000000E+00 -0.24181423772E+03  0.24181423772E+03  0.00000000000E+00 0. -1.
         25    2    1    2    0    0  0.14402220894E+03 -0.86921514858E+02  0.12574579383E+04  0.12748036934E+04  0.12500497428E+03 0.  0.
          2    1    1    2  501    0 -0.38736179403E+02  0.71436563090E+02 -0.22374545002E+03  0.23804558502E+03  0.00000000000E+00 0. -1.
          1    1    1    2  502    0 -0.10528602954E+03  0.15484951767E+02  0.12584092239E+04  0.12629009092E+04  0.00000000000E+00 0. -1.
         22    1    3    3    0    0  0.13409018632E+03 -0.64934285370E+02  0.12266910591E+04  0.12357053022E+04  0.00000000000E+00 0. -1.
         22    1    3    3    0    0  0.99320226286E+01 -0.21987229487E+02  0.30766879250E+02  0.39098391180E+02  0.00000000000E+00 0. -1.
</event>
<event>
 7    1  0.5553952E-006  0.5432174E+02  0.7818608E-02  0.1475285E+00
          2   -1    0    0  502    0  0.00000000000E+00  0.00000000000E+00  0.25329516246E+02  0.25329516246E+02  0.00000000000E+00 0. -1.
          1   -1    0    0  501    0 -0.00000000000E+00 -0.00000000000E+00 -0.55756780509E+03  0.55756780509E+03  0.00000000000E+00 0. -1.
         25    2    1    2    0    0 -0.48142728233E+01  0.29336029067E+02 -0.26155734912E+03  0.29142364299E+03  0.12502684908E+03 0.  0.
          2    1    1    2  501    0 -0.53460486824E+01  0.36640600040E+02 -0.13888415537E+03  0.14373559901E+03  0.00000000000E+00 0. -1.
          1    1    1    2  502    0  0.10160321506E+02 -0.65976629107E+02 -0.13179678435E+03  0.14773807934E+03  0.00000000000E+00 0. -1.
         22    1    3    3    0    0  0.46537156387E+01  0.44794452596E+02 -0.20152028792E+02  0.49338669591E+02  0.00000000000E+00 0.  1.
         22    1    3    3    0    0 -0.94679884621E+01 -0.15458423528E+02 -0.24140532033E+03  0.24208497340E+03  0.00000000000E+00 0.  1.
</event>
<event>
 7    1  0.5553952E-006  0.9799425E+02  0.7818608E-02  0.1377000E+00
          2   -1    0    0  502    0  0.00000000000E+00  0.00000000000E+00  0.16145212805E+03  0.16145212805E+03  0.00000000000E+00 0. -1.
          1   -1    0    0  501    0 -0.00000000000E+00 -0.00000000000E+00 -0.90774378832E+03  0.90774378832E+03  0.00000000000E+00 0. -1.
         25    2    1    2    0    0  0.19994980272E+02  0.86785318166E+02 -0.56544919407E+03  0.58590741981E+03  0.12499289113E+03 0.  0.
          2    1    1    2  501    0  0.42195082194E+02 -0.10404758654E+02 -0.31437196149E+03  0.31736164566E+03  0.00000000000E+00 0. -1.
          1    1    1    2  502    0 -0.62190062466E+02 -0.76380559512E+02  0.13352949528E+03  0.16592685090E+03  0.00000000000E+00 0. -1.
         22    1    3    3    0    0 -0.44026839995E+02  0.76458926788E+01 -0.10115548293E+03  0.11058595771E+03  0.00000000000E+00 0. -1.
         22    1    3    3    0    0  0.64021820267E+02  0.79139425487E+02 -0.46429371113E+03  0.47532146210E+03  0.00000000000E+00 0. -1.
</event>
<event>
 7    1  0.5553952E-006  0.5485142E+02  0.7818608E-02  0.1426101E+00
          2   -1    0    0  502    0  0.00000000000E+00  0.00000000000E+00  0.70941963345E+03  0.70941963345E+03  0.00000000000E+00 0. -1.
          1   -1    0    0  501    0 -0.00000000000E+00 -0.00000000000E+00 -0.92063661101E+03  0.92063661101E+03  0.00000000000E+00 0. -1.
         25    2    1    2    0    0  0.99135794287E+02 -0.40916749689E+02 -0.18939954043E+03  0.25099656969E+03  0.12500002387E+03 0.  0.
          2    1    1    2  501    0 -0.49011418435E+02  0.19292673066E+02 -0.69834734784E+03  0.70033088223E+03  0.00000000000E+00 0. -1.
          1    1    1    2  502    0 -0.50124375852E+02  0.21624076622E+02  0.67652991071E+03  0.67872879254E+03  0.00000000000E+00 0. -1.
         22    1    3    3    0    0  0.91372865113E+02 -0.40211381023E+02 -0.50495191463E+02  0.11187367878E+03  0.00000000000E+00 0.  1.
         22    1    3    3    0    0  0.77629291744E+01 -0.70536866582E+00 -0.13890434896E+03  0.13912289091E+03  0.00000000000E+00 0.  1.
</event>
<event>
 7    1  0.5553952E-006  0.3169955E+02  0.7818608E-02  0.1656309E+00
          2   -1    0    0  502    0  0.00000000000E+00  0.00000000000E+00  0.44103055781E+03  0.44103055781E+03  0.00000000000E+00 0. -1.
          1   -1    0    0  501    0 -0.00000000000E+00 -0.00000000000E+00 -0.73698535364E+03  0.73698535364E+03  0.00000000000E+00 0. -1.
         25    2    1    2    0    0  0.92998520745E+01  0.18648608100E+02  0.34738956618E+03  0.36978238414E+03  0.12500097238E+03 0.  0.
          2    1    1    2  501    0  0.20063917514E+02  0.26640889417E+01 -0.72164821254E+03  0.72193199182E+03  0.00000000000E+00 0. -1.
          1    1    1    2  502    0 -0.29363769588E+02 -0.21312697042E+02  0.78303850527E+02  0.86301535484E+02  0.00000000000E+00 0. -1.
         22    1    3    3    0    0 -0.55959408216E+02  0.20622158904E+02  0.13505000466E+03  0.14763208515E+03  0.00000000000E+00 0.  1.
         22    1    3    3    0    0  0.65259260291E+02 -0.19735508034E+01  0.21233956152E+03  0.22215029899E+03  0.00000000000E+00 0.  1.
</event>
<event>
 7    1  0.6359912E-006  0.5903578E+02  0.7818608E-02  0.1410162E+00
          2   -1    0    0  502    0  0.00000000000E+00  0.00000000000E+00  0.20313860617E+04  0.20313860617E+04  0.00000000000E+00 0. -1.
          1   -1    0    0  501    0 -0.00000000000E+00 -0.00000000000E+00 -0.32818498296E+03  0.32818498296E+03  0.00000000000E+00 0. -1.
         25    2    1    2    0    0 -0.83133129480E+01 -0.55563428139E+02 -0.16963515152E+03  0.21807553098E+03  0.12499778743E+03 0.  0.
          2    1    1    2  501    0 -0.48268541989E+02  0.38719530400E+02 -0.12674457868E+03  0.14104340610E+03  0.00000000000E+00 0. -1.
          1    1    1    2  502    0  0.56581854937E+02  0.16843897739E+02  0.19995808089E+04  0.20004521076E+04  0.00000000000E+00 0. -1.
         22    1    3    3    0    0  0.67230593316E+01 -0.94591840933E+02 -0.10996900032E+03  0.14521018190E+03  0.00000000000E+00 0. -1.
         22    1    3    3    0    0 -0.15036372280E+02  0.39028412794E+02 -0.59666151204E+02  0.72865349076E+02  0.00000000000E+00 0. -1.
</event>
<event>
 7    1  0.5553952E-006  0.6830117E+02  0.7818608E-02  0.1382022E+00
          2   -1    0    0  502    0  0.00000000000E+00  0.00000000000E+00  0.94280605269E+03  0.94280605269E+03  0.00000000000E+00 0. -1.
          1   -1    0    0  501    0 -0.00000000000E+00 -0.00000000000E+00 -0.32911923369E+03  0.32911923369E+03  0.00000000000E+00 0. -1.
         25    2    1    2    0    0  0.87004033998E+02 -0.60507657395E+02 -0.12960742426E+03  0.20893587313E+03  0.12500094449E+03 0.  0.
          2    1    1    2  501    0 -0.59816274764E+02 -0.19653230689E+01 -0.15290686559E+03  0.16420218868E+03  0.00000000000E+00 0. -1.
          1    1    1    2  502    0 -0.27187759234E+02  0.62472980464E+02  0.89620110885E+03  0.89878722457E+03  0.00000000000E+00 0. -1.
         22    1    3    3    0    0  0.15874273825E+02  0.98316448890E+01  0.21020425800E+02  0.28116047224E+02  0.00000000000E+00 0. -1.
         22    1    3    3    0    0  0.71129760173E+02 -0.70339302284E+02 -0.15062785006E+03  0.18081982591E+03  0.00000000000E+00 0. -1.
</event>
<event>
 7    1  0.5553952E-006  0.1089228E+03  0.7818608E-02  0.1407089E+00
          2   -1    0    0  502    0  0.00000000000E+00  0.00000000000E+00  0.28807138779E+03  0.28807138779E+03  0.00000000000E+00 0. -1.
          1   -1    0    0  501    0 -0.00000000000E+00 -0.00000000000E+00 -0.49811090544E+03  0.49811090544E+03  0.00000000000E+00 0. -1.
         25    2    1    2    0    0  0.42256857563E+02  0.81221586475E+02 -0.57683246755E+01  0.15505090360E+03  0.12499968406E+03 0.  0.
          2    1    1    2  501    0 -0.72891979336E+02 -0.83546311327E+02 -0.40917815889E+03  0.42393394827E+03  0.00000000000E+00 0. -1.
          1    1    1    2  502    0  0.30635121773E+02  0.23247248521E+01  0.20490696590E+03  0.20719744136E+03  0.00000000000E+00 0. -1.
         22    1    3    3    0    0 -0.34260552839E+01  0.80354194369E+02 -0.47299963928E+02  0.93304989122E+02  0.00000000000E+00 0.  1.
         22    1    3    3    0    0  0.45682912847E+02  0.86739210607E+00  0.41531639253E+02  0.61745914475E+02  0.00000000000E+00 0.  1.
</event>
<event>
 7    1  0.5553952E-006  0.1412049E+03  0.7818608E-02  0.1282251E+00
          2   -1    0    0  502    0  0.00000000000E+00  0.00000000000E+00  0.94923355738E+03  0.94923355738E+03  0.00000000000E+00 0. -1.
          1   -1    0    0  501    0 -0.00000000000E+00 -0.00000000000E+00 -0.63628579157E+03  0.63628579157E+03  0.00000000000E+00 0. -1.
         25    2    1    2    0    0 -0.13049230528E+03  0.39259409034E+02 -0.10435657036E+02  0.18521158307E+03  0.12499953852E+03 0.  0.
          2    1    1    2  501    0  0.30668543342E+02  0.62385552388E+02 -0.53029059315E+03  0.53482766372E+03  0.00000000000E+00 0. -1.
          1    1    1    2  502    0  0.99823761935E+02 -0.10164496142E+03  0.85367401600E+03  0.86548010215E+03  0.00000000000E+00 0. -1.
         22    1    3    3    0    0 -0.14886189984E+03  0.56211405606E+02 -0.30631868858E+01  0.15915077901E+03  0.00000000000E+00 0.  1.
         22    1    3    3    0    0  0.18369594563E+02 -0.16951996572E+02 -0.73724701503E+01  0.26060804061E+02  0.00000000000E+00 0.  1.
</event>
<event>
 7    1  0.5553952E-006  0.1306814E+03  0.7818608E-02  0.1368173E+00
          2   -1    0    0  502    0  0.00000000000E+00  0.00000000000E+00  0.86158324705E+03  0.86158324705E+03  0.00000000000E+00 0. -1.
          1   -1    0    0  501    0 -0.00000000000E+00 -0.00000000000E+00 -0.11008224963E+04  0.11008224963E+04  0.00000000000E+00 0. -1.
         25    2    1    2    0    0 -0.46995930626E+02 -0.15123558687E+03 -0.51545005356E+02  0.20823817680E+03  0.12500172187E+03 0.  0.
          2    1    1    2  501    0  0.21223509811E+02  0.12748196126E+03 -0.96623435015E+03  0.97483891347E+03  0.00000000000E+00 0. -1.
          1    1    1    2  502    0  0.25772420815E+02  0.23753625611E+02  0.77854010627E+03  0.77932865306E+03  0.00000000000E+00 0. -1.
         22    1    3    3    0    0 -0.80015687277E+02 -0.72084878415E+02  0.91936829401E+00  0.10770137021E+03  0.00000000000E+00 0.  1.
         22    1    3    3    0    0  0.33019756651E+02 -0.79150708451E+02 -0.52464373650E+02  0.10053680659E+03  0.00000000000E+00 0.  1.
</event>
<event>
 7    1  0.5553952E-006  0.8323521E+02  0.7818608E-02  0.1372772E+00
          2   -1    0    0  502    0  0.00000000000E+00  0.00000000000E+00  0.32270462579E+02  0.32270462579E+02  0.00000000000E+00 0. -1.
          1   -1    0    0  501    0 -0.00000000000E+00 -0.00000000000E+00 -0.17362537194E+04  0.17362537194E+04  0.00000000000E+00 0. -1.
         25    2    1    2    0    0 -0.11946106215E+03 -0.52203078943E+02 -0.58141926465E+03  0.60882675254E+03  0.12500218588E+03 0.  0.
          2    1    1    2  501    0  0.68200081714E+02  0.38840793072E+02 -0.10988645243E+04  0.11016637877E+04  0.00000000000E+00 0. -1.
          1    1    1    2  502    0  0.51260980440E+02  0.13362285871E+02 -0.23699467902E+02  0.58033641779E+02  0.00000000000E+00 0. -1.
         22    1    3    3    0    0 -0.12145159949E+02  0.34292218055E+02 -0.66744002312E+02  0.76014623422E+02  0.00000000000E+00 0. -1.
         22    1    3    3    0    0 -0.10731590220E+03 -0.86495296998E+02 -0.51467526234E+03  0.53281212911E+03  0.00000000000E+00 0. -1.
</event>
<event>
 7    1  0.5553952E-006  0.8494855E+02  0.7818608E-02  0.1402290E+00
          2   -1    0    0  502    0  0.00000000000E+00  0.00000000000E+00  0.19027332747E+04  0.19027332747E+04  0.00000000000E+00 0. -1.
          1   -1    0    0  501    0 -0.00000000000E+00 -0.00000000000E+00 -0.15316568569E+03  0.15316568569E+03  0.00000000000E+00 0. -1.
         25    2    1    2    0    0 -0.59073452335E+02 -0.51096334277E+02  0.92732804364E+03  0.93896894190E+03  0.12499946074E+03 0.  0.
          2    1    1    2  501    0  0.25366825728E+02 -0.32094335333E+02 -0.14238147116E+03  0.14814184263E+03  0.00000000000E+00 0. -1.
          1    1    1    2  502    0  0.33706626607E+02  0.83190669610E+02  0.96462101655E+03  0.96878817589E+03  0.00000000000E+00 0. -1.
         22    1    3    3    0    0  0.74251084971E+01  0.18191069146E+02  0.26256018941E+02  0.32793684812E+02  0.00000000000E+00 0. -1.
         22    1    3    3    0    0 -0.66498560832E+02 -0.69287403422E+02  0.90107202470E+03  0.90617525709E+03  0.00000000000E+00 0. -1.
</event>
<event>
 7    1  0.5553952E-006  0.1257071E+03  0.7818608E-02  0.1264429E+00
          2   -1    0    0  502    0  0.00000000000E+00  0.00000000000E+00  0.17318387358E+04  0.17318387358E+04  0.00000000000E+00 0. -1.
          1   -1    0    0  501    0 -0.00000000000E+00 -0.00000000000E+00 -0.76444081350E+03  0.76444081350E+03  0.00000000000E+00 0. -1.
         25    2    1    2    0    0 -0.98791537776E+02 -0.41965056627E+02 -0.28038101238E+02  0.16713028351E+03  0.12500225050E+03 0.  0.
          2    1    1    2  501    0  0.49307633821E+02  0.12033775677E+03 -0.65920692722E+03  0.67191233904E+03  0.00000000000E+00 0. -1.
          1    1    1    2  502    0  0.49483903955E+02 -0.78372700147E+02  0.16546429507E+04  0.16572369267E+04  0.00000000000E+00 0. -1.
         22    1    3    3    0    0  0.16190535040E+02  0.11679298588E+02 -0.34746133629E+02  0.40072849194E+02  0.00000000000E+00 0. -1.
         22    1    3    3    0    0 -0.11498207282E+03 -0.53644355215E+02  0.67080323904E+01  0.12705743431E+03  0.00000000000E+00 0. -1.
</event>
<event>
 7    1  0.5553952E-006  0.1363970E+03  0.7818608E-02  0.1329251E+00
          2   -1    0    0  502    0  0.00000000000E+00  0.00000000000E+00  0.19275544997E+04  0.19275544997E+04  0.00000000000E+00 0. -1.
          1   -1    0    0  501    0 -0.00000000000E+00 -0.00000000000E+00 -0.20148016477E+03  0.20148016477E+03  0.00000000000E+00 0. -1.
         25    2    1    2    0    0 -0.78288498304E+02 -0.96714455480E+02  0.35247019870E+03  0.39413471271E+03  0.12499662363E+03 0.  0.
          2    1    1    2  501    0 -0.40275074290E+02  0.23913179283E+02 -0.17443855334E+03  0.18061763658E+03  0.00000000000E+00 0. -1.
          1    1    1    2  502    0  0.11856357259E+03  0.72801276197E+02  0.15480426896E+04  0.15542823152E+04  0.00000000000E+00 0. -1.
         22    1    3    3    0    0  0.26339363860E+02 -0.53992511226E+02  0.16042254781E+03  0.17130191827E+03  0.00000000000E+00 0. -1.
         22    1    3    3    0    0 -0.10462786216E+03 -0.42721944254E+02  0.19204765089E+03  0.22283279443E+03  0.00000000000E+00 0. -1.
</event>
<event>
 7    1  0.5553952E-006  0.3814812E+02  0.7818608E-02  0.1539861E+00
          2   -1    0    0  502    0  0.00000000000E+00  0.00000000000E+00  0.10040894185E+04  0.10040894185E+04  0.00000000000E+00 0. -1.
          1   -1    0    0  501    0 -0.00000000000E+00 -0.00000000000E+00 -0.10823483997E+04  0.10823483997E+04  0.00000000000E+00 0. -1.
         25    2    1    2    0    0 -0.33643696108E+02 -0.41086850229E+02  0.30363542283E+02  0.13916636833E+03  0.12500122330E+03 0.  0.
          2    1    1    2  501    0 -0.37749674423E+01  0.33770095639E+02 -0.10272706233E+04  0.10278324782E+04  0.00000000000E+00 0. -1.
          1    1    1    2  502    0  0.37418663550E+02  0.73167545905E+01  0.91864809986E+03  0.91943897168E+03  0.00000000000E+00 0. -1.
         22    1    3    3    0    0 -0.23430165051E+02 -0.79808582856E+02  0.47300946818E+02  0.95685746596E+02  0.00000000000E+00 0. -1.
         22    1    3    3    0    0 -0.10213531057E+02  0.38721732627E+02 -0.16937404535E+02  0.43480621737E+02  0.00000000000E+00 0. -1.
</event>
<event>
 7    1  0.5553952E-006  0.6492265E+02  0.7818608E-02  0.1383119E+00
          2   -1    0    0  502    0  0.00000000000E+00  0.00000000000E+00  0.57918649975E+03  0.57918649975E+03  0.00000000000E+00 0. -1.
          1   -1    0    0  501    0 -0.00000000000E+00 -0.00000000000E+00 -0.12037296870E+03  0.12037296870E+03  0.00000000000E+00 0. -1.
         25    2    1    2    0    0 -0.25141772387E+01  0.69541885626E+02  0.25043966605E+03  0.28842185332E+03  0.12499897679E+03 0.  0.
          2    1    1    2  501    0  0.55167416897E+02 -0.36046607542E+02 -0.87057649180E+02  0.10918716080E+03  0.00000000000E+00 0. -1.
          1    1    1    2  502    0 -0.52653239659E+02 -0.33495278084E+02  0.29543151417E+03  0.30195045433E+03  0.00000000000E+00 0. -1.
         22    1    3    3    0    0  0.47176001002E+02  0.35674732224E+02  0.44877369293E+02  0.74244460160E+02  0.00000000000E+00 0.  1.
         22    1    3    3    0    0 -0.49690178241E+02  0.33867153402E+02  0.20556229676E+03  0.21417739316E+03  0.00000000000E+00 0.  1.
</event>
<event>
 7    1  0.5553952E-006  0.2728685E+02  0.7818608E-02  0.1650478E+00
          2   -1    0    0  502    0  0.00000000000E+00  0.00000000000E+00  0.39199673294E+03  0.39199673294E+03  0.00000000000E+00 0. -1.
          1   -1    0    0  501    0 -0.00000000000E+00 -0.00000000000E+00 -0.20980611833E+04  0.20980611833E+04  0.00000000000E+00 0. -1.
         25    2    1    2    0    0 -0.50340833777E+01  0.75702668816E+01 -0.99995240363E+02  0.16033249216E+03  0.12499923604E+03 0.  0.
          2    1    1    2  501    0 -0.12599928033E+02 -0.24284893035E+02 -0.19673942144E+04  0.19675844351E+04  0.00000000000E+00 0. -1.
          1    1    1    2  502    0  0.17634011411E+02  0.16714626153E+02  0.36132500443E+03  0.36214098900E+03  0.00000000000E+00 0. -1.
         22    1    3    3    0    0 -0.37022073492E+02 -0.25995945012E+02 -0.10437722309E+03  0.11375863828E+03  0.00000000000E+00 0. -1.
         22    1    3    3    0    0  0.31987990114E+02  0.33566211893E+02  0.43819827285E+01  0.46573853878E+02  0.00000000000E+00 0. -1.
</event>
<event>
 7    1  0.5553952E-006  0.1837613E+03  0.7818608E-02  0.1336665E+00
          2   -1    0    0  502    0  0.00000000000E+00  0.00000000000E+00  0.20565511555E+04  0.20565511555E+04  0.00000000000E+00 0. -1.
          1   -1    0    0  501    0 -0.00000000000E+00 -0.00000000000E+00 -0.39411208445E+03  0.39411208445E+03  0.00000000000E+00 0. -1.
         25    2    1    2    0    0  0.89246068967E+02 -0.12637627007E+03  0.16374870849E+03  0.25763214414E+03  0.12499943879E+03 0.  0.
          2    1    1    2  501    0 -0.10640787745E+03  0.15407116862E+03 -0.32176661979E+03  0.37228257949E+03  0.00000000000E+00 0. -1.
          1    1    1    2  502    0  0.17161808483E+02 -0.27694898548E+02  0.18204569823E+04  0.18207485163E+04  0.00000000000E+00 0. -1.
         22    1    3    3    0    0  0.98096466590E+02 -0.14014427343E+03  0.16897636417E+03  0.24045029794E+03  0.00000000000E+00 0.  1.
         22    1    3    3    0    0 -0.88503976225E+01  0.13768003365E+02 -0.52276556785E+01  0.17181846194E+02  0.00000000000E+00 0.  1.
</event>
<event>
 7    1  0.5553952E-006  0.1699629E+03  0.7818608E-02  0.1214678E+00
          2   -1    0    0  502    0  0.00000000000E+00  0.00000000000E+00  0.73643831395E+03  0.73643831395E+03  0.00000000000E+00 0. -1.
          1   -1    0    0  501    0 -0.00000000000E+00 -0.00000000000E+00 -0.17574817528E+04  0.17574817528E+04  0.00000000000E+00 0. -1.
         25    2    1    2    0    0 -0.93245329635E+02  0.17533988704E+03 -0.61773571897E+03  0.66080349248E+03  0.12500027883E+03 0.  0.
          2    1    1    2  501    0  0.11349607143E+03 -0.64856441642E+01 -0.11051410569E+04  0.11109726268E+04  0.00000000000E+00 0. -1.
          1    1    1    2  502    0 -0.20250741797E+02 -0.16885424288E+03  0.70183333703E+03  0.72214394746E+03  0.00000000000E+00 0. -1.
         22    1    3    3    0    0 -0.51830943072E+02  0.22683469998E+02 -0.30652704194E+03  0.31170469023E+03  0.00000000000E+00 0.  1.
         22    1    3    3    0    0 -0.41414386563E+02  0.15265641705E+03 -0.31120867702E+03  0.34909880225E+03  0.00000000000E+00 0.  1.
</event>
<event>
 7    1  0.5553952E-006  0.1445311E+03  0.7818608E-02  0.1215780E+00
          2   -1    0    0  502    0  0.00000000000E+00  0.00000000000E+00  0.52753728919E+03  0.52753728919E+03  0.00000000000E+00 0. -1.
          1   -1    0    0  501    0 -0.00000000000E+00 -0.00000000000E+00 -0.38433649596E+03  0.38433649596E+03  0.00000000000E+00 0. -1.
         25    2    1    2    0    0 -0.63691991261E+02  0.86814589716E+02  0.23935771064E+03  0.29070715891E+03  0.12500038343E+03 0.  0.
          2    1    1    2  501    0  0.95015994982E+02  0.10890914347E+03 -0.30237010439E+03  0.33513716723E+03  0.00000000000E+00 0. -1.
          1    1    1    2  502    0 -0.31324003721E+02 -0.19572373318E+03  0.20621318698E+03  0.28602945901E+03  0.00000000000E+00 0. -1.
         22    1    3    3    0    0 -0.25176441662E+02  0.55444874624E+02  0.23276415577E+03  0.24059746372E+03  0.00000000000E+00 0.  1.
         22    1    3    3    0    0 -0.38515549598E+02  0.31369715092E+02  0.65935548696E+01  0.50109695186E+02  0.00000000000E+00 0.  1.
</event>
<event>
 7    1  0.5553952E-006  0.1076195E+03  0.7818608E-02  0.1342124E+00
          2   -1    0    0  502    0  0.00000000000E+00  0.00000000000E+00  0.25014778310E+03  0.25014778310E+03  0.00000000000E+00 0. -1.
          1   -1    0    0  501    0 -0.00000000000E+00 -0.00000000000E+00 -0.11505549152E+04  0.11505549152E+04  0.00000000000E+00 0. -1.
         25    2    1    2    0    0 -0.62739364138E+02 -0.52537518968E+01 -0.68296601568E+02  0.15574988100E+03  0.12501907824E+03 0.  0.
          2    1    1    2  501    0 -0.50875374923E+02  0.15071786366E+02 -0.10220405560E+04  0.10234170023E+04  0.00000000000E+00 0. -1.
          1    1    1    2  502    0  0.11361473906E+03 -0.98180344689E+01  0.18993002548E+03  0.22153581496E+03  0.00000000000E+00 0. -1.
         22    1    3    3    0    0  0.36507625810E+02 -0.15976799465E+02 -0.24168636715E+02  0.46606736252E+02  0.00000000000E+00 0. -1.
         22    1    3    3    0    0 -0.99246989948E+02  0.10723047568E+02 -0.44127964853E+02  0.10914314475E+03  0.00000000000E+00 0. -1.
</event>
<event>
 7    1  0.5553952E-006  0.9778912E+02  0.7818608E-02  0.1380403E+00
          2   -1    0    0  502    0  0.00000000000E+00  0.00000000000E+00  0.37525448874E+03  0.37525448874E+03  0.00000000000E+00 0. -1.
          1   -1    0    0  501    0 -0.00000000000E+00 -0.00000000000E+00 -0.14749361220E+04  0.14749361220E+04  0.00000000000E+00 0. -1.
         25    2    1    2    0    0 -0.25248209093E+02  0.12076480809E+03  0.86206918202E+02  0.19564826589E+03  0.12500000106E+03 0.  0.
          2    1    1    2  501    0  0.32646662217E+02 -0.26985377164E+02 -0.14104434945E+04  0.14110793267E+04  0.00000000000E+00 0. -1.
          1    1    1    2  502    0 -0.73984531242E+01 -0.93779430923E+02  0.22455494302E+03  0.24346301815E+03  0.00000000000E+00 0. -1.
         22    1    3    3    0    0  0.24085429949E+02 -0.15177482502E+02  0.25621208334E+01  0.28583708193E+02  0.00000000000E+00 0. -1.
         22    1    3    3    0    0 -0.49333639042E+02  0.13594229059E+03  0.83644797369E+02  0.16706455770E+03  0.00000000000E+00 0. -1.
</event>
<event>
 7    1  0.6000691E-006  0.7787017E+02  0.7818608E-02  0.1386507E+00
          2   -1    0    0  502    0  0.00000000000E+00  0.00000000000E+00  0.29107585883E+04  0.29107585883E+04  0.00000000000E+00 0. -1.
          1   -1    0    0  501    0 -0.00000000000E+00 -0.00000000000E+00 -0.42883725482E+03  0.42883725482E+03  0.00000000000E+00 0. -1.
         25    2    1    2    0    0 -0.23863748283E+02 -0.10788891072E+03 -0.18334689203E+03  0.24789129282E+03  0.12499805878E+03 0.  0.
          2    1    1    2  501    0 -0.22459074742E+02  0.45365347731E+02 -0.20967982760E+03  0.21570362750E+03  0.00000000000E+00 0. -1.
          1    1    1    2  502    0  0.46322823024E+02  0.62523562992E+02  0.28749480531E+04  0.28760009228E+04  0.00000000000E+00 0. -1.
         22    1    3    3    0    0  0.42987602873E+01  0.84971959162E+01  0.14074256833E+02  0.16993127547E+02  0.00000000000E+00 0. -1.
         22    1    3    3    0    0 -0.28162508570E+02 -0.11638610664E+03 -0.19742114886E+03  0.23089816527E+03  0.00000000000E+00 0. -1.
</event>
<event>
 7    1  0.5553952E-006  0.5687449E+02  0.7818608E-02  0.1422540E+00
          2   -1    0    0  502    0  0.00000000000E+00  0.00000000000E+00  0.30455836756E+04  0.30455836756E+04  0.00000000000E+00 0. -1.
          1   -1    0    0  501    0 -0.00000000000E+00 -0.00000000000E+00 -0.13031277716E+02  0.13031277716E+02  0.00000000000E+00 0. -1.
         25    2    1    2    0    0 -0.27691147455E+01  0.34597518025E+02  0.95628669344E+03  0.96504801147E+03  0.12501507171E+03 0.  0.
          2    1    1    2  501    0 -0.51685827503E+02 -0.73075250738E+01  0.75015988210E+02  0.91390498273E+02  0.00000000000E+00 0. -1.
          1    1    1    2  502    0  0.54454942248E+02 -0.27289992951E+02  0.20012497163E+04  0.20021764436E+04  0.00000000000E+00 0. -1.
         22    1    3    3    0    0 -0.83755030822E+01  0.22695292884E+02  0.95027530659E+03  0.95058318084E+03  0.00000000000E+00 0. -1.
         22    1    3    3    0    0  0.56063883367E+01  0.11902225142E+02  0.60113868420E+01  0.14464830634E+02  0.00000000000E+00 0. -1.
</event>
<event>
 7    1  0.5553952E-006  0.6314410E+02  0.7818608E-02  0.1494829E+00
          2   -1    0    0  502    0  0.00000000000E+00  0.00000000000E+00  0.13659351429E+04  0.13659351429E+04  0.00000000000E+00 0. -1.
          1   -1    0    0  501    0 -0.00000000000E+00 -0.00000000000E+00 -0.26763646628E+03  0.26763646628E+03  0.00000000000E+00 0. -1.
         25    2    1    2    0    0 -0.17386511196E+02  0.60037487979E+02  0.16569445615E+03  0.21676344745E+03  0.12499979448E+03 0.  0.
          2    1    1    2  501    0 -0.10282995080E+02 -0.62446124254E+02 -0.23779848349E+03  0.24607595813E+03  0.00000000000E+00 0. -1.
          1    1    1    2  502    0  0.27669506276E+02  0.24086362751E+01  0.11704027040E+04  0.11707322036E+04  0.00000000000E+00 0. -1.
         22    1    3    3    0    0 -0.69533593460E+02  0.45184956858E+02  0.79142637616E+02  0.11463052837E+03  0.00000000000E+00 0. -1.
         22    1    3    3    0    0  0.52147082264E+02  0.14852531120E+02  0.86551818531E+02  0.10213291908E+03  0.00000000000E+00 0. -1.
</event>
<event>
 7    1  0.5553952E-006  0.5119934E+02  0.7818608E-02  0.1444051E+00
          2   -1    0    0  502    0  0.00000000000E+00  0.00000000000E+00  0.11633700665E+04  0.11633700665E+04  0.00000000000E+00 0. -1.
          1   -1    0    0  501    0 -0.00000000000E+00 -0.00000000000E+00 -0.53664653918E+02  0.53664653918E+02  0.00000000000E+00 0. -1.
         25    2    1    2    0    0  0.17651704145E+02  0.20611235848E+02  0.87875736658E+02  0.15519052944E+03  0.12500219851E+03 0.  0.
          2    1    1    2  501    0 -0.64666213210E+02 -0.57792520615E+01  0.34949042072E+02  0.73732994155E+02  0.00000000000E+00 0. -1.
          1    1    1    2  502    0  0.47014509066E+02 -0.14831983787E+02  0.98688063386E+03  0.98811119683E+03  0.00000000000E+00 0. -1.
         22    1    3    3    0    0  0.38436021578E+02  0.57372781884E+02  0.89359717682E+02  0.11293415338E+03  0.00000000000E+00 0. -1.
         22    1    3    3    0    0 -0.20784317434E+02 -0.36761546036E+02 -0.14839810237E+01  0.42256376061E+02  0.00000000000E+00 0. -1.
</event>
<event>
 7    1  0.5553952E-006  0.5734705E+02  0.7818608E-02  0.1448279E+00
          2   -1    0    0  502    0  0.00000000000E+00  0.00000000000E+00  0.11205784418E+04  0.11205784418E+04  0.00000000000E+00 0. -1.
          1   -1    0    0  501    0 -0.00000000000E+00 -0.00000000000E+00 -0.38808155248E+03  0.38808155248E+03  0.00000000000E+00 0. -1.
         25    2    1    2    0    0 -0.16994386085E+02  0.29168391629E+02 -0.66824495654E+02  0.14570548961E+03  0.12499988902E+03 0.  0.
          2    1    1    2  501    0  0.57703021704E+02 -0.16424387526E+02 -0.27819672821E+03  0.28459237306E+03  0.00000000000E+00 0. -1.
          1    1    1    2  502    0 -0.40708635618E+02 -0.12744004103E+02  0.10775181132E+04  0.10783621316E+04  0.00000000000E+00 0. -1.
         22    1    3    3    0    0  0.39646031177E+02  0.48786278041E+02 -0.11048393730E+02  0.63827703367E+02  0.00000000000E+00 0.  1.
         22    1    3    3    0    0 -0.56640417262E+02 -0.19617886412E+02 -0.55776101925E+02  0.81877786247E+02  0.00000000000E+00 0.  1.
</event>
<event>
 7    1  0.5553952E-006  0.2557337E+03  0.7818608E-02  0.1243517E+00
          2   -1    0    0  502    0  0.00000000000E+00  0.00000000000E+00  0.86213221580E+02  0.86213221580E+02  0.00000000000E+00 0. -1.
          1   -1    0    0  501    0 -0.00000000000E+00 -0.00000000000E+00 -0.19462196601E+04  0.19462196601E+04  0.00000000000E+00 0. -1.
         25    2    1    2    0    0  0.72382609780E+02  0.24279459876E+03 -0.10641884972E+04  0.11010495966E+04  0.12499838836E+03 0.  0.
          2    1    1    2  501    0 -0.12666438277E+03 -0.22874659558E+03 -0.82691297459E+03  0.86726808912E+03  0.00000000000E+00 0. -1.
          1    1    1    2  502    0  0.54281772992E+02 -0.14048003180E+02  0.31095033241E+02  0.64115196052E+02  0.00000000000E+00 0. -1.
         22    1    3    3    0    0  0.10253961737E+03  0.14133191234E+03 -0.72489216608E+03  0.74562573387E+03  0.00000000000E+00 0. -1.
         22    1    3    3    0    0 -0.30157007587E+02  0.10146268642E+03 -0.33929633114E+03  0.35542386269E+03  0.00000000000E+00 0. -1.
</event>
<event>
 7    1  0.5553952E-006  0.3071678E+02  0.7818608E-02  0.1618542E+00
          2   -1    0    0  502    0  0.00000000000E+00  0.00000000000E+00  0.14754916937E+04  0.14754916937E+04  0.00000000000E+00 0. -1.
          1   -1    0    0  501    0 -0.00000000000E+00 -0.00000000000E+00 -0.10410703271E+04  0.10410703271E+04  0.00000000000E+00 0. -1.
         25    2    1    2    0    0  0.19291590841E+01 -0.51242083260E+02  0.45222088568E+03  0.47197201434E+03  0.12499752047E+03 0.  0.
          2    1    1    2  501    0 -0.13041852432E+02  0.27801608761E+02 -0.10308000523E+04  0.10312573719E+04  0.00000000000E+00 0. -1.
          1    1    1    2  502    0  0.11112693348E+02  0.23440474500E+02  0.10130005332E+04  0.10133326345E+04  0.00000000000E+00 0. -1.
         22    1    3    3    0    0 -0.54183835021E+02 -0.22914844845E+02  0.32252620263E+03  0.32784772300E+03  0.00000000000E+00 0. -1.
         22    1    3    3    0    0  0.56112994105E+02 -0.28327238415E+02  0.12969468305E+03  0.14412429134E+03  0.00000000000E+00 0. -1.
</event>
<event>
 7    1  0.5553952E-006  0.1037012E+03  0.7818608E-02  0.1362155E+00
          2   -1    0    0  502    0  0.00000000000E+00  0.00000000000E+00  0.29976645260E+04  0.29976645260E+04  0.00000000000E+00 0. -1.
          1   -1    0    0  501    0 -0.00000000000E+00 -0.00000000000E+00 -0.15047969416E+04  0.15047969416E+04  0.00000000000E+00 0. -1.
         25    2    1    2    0    0  0.29964126411E+02  0.12431324790E+03 -0.64314936352E+02  0.19003799914E+03  0.12500559030E+03 0.  0.
          2    1    1    2  501    0  0.11079490446E+02 -0.10258378688E+03 -0.13755043846E+04  0.13793688776E+04  0.00000000000E+00 0. -1.
          1    1    1    2  502    0 -0.41043616857E+02 -0.21729461018E+02  0.29326869054E+04  0.29330545908E+04  0.00000000000E+00 0. -1.
         22    1    3    3    0    0  0.44084860171E+02  0.14483704984E+03 -0.65806707713E+02  0.16508109729E+03  0.00000000000E+00 0. -1.
         22    1    3    3    0    0 -0.14120733760E+02 -0.20523801943E+02  0.14917713609E+01  0.24956901850E+02  0.00000000000E+00 0. -1.
</event>
<event>
 7    1  0.5553952E-006  0.8008034E+02  0.7818608E-02  0.1427988E+00
          2   -1    0    0  502    0  0.00000000000E+00  0.00000000000E+00  0.46668672897E+03  0.46668672897E+03  0.00000000000E+00 0. -1.
          1   -1    0    0  501    0 -0.00000000000E+00 -0.00000000000E+00 -0.18882303252E+04  0.18882303252E+04  0.00000000000E+00 0. -1.
         25    2    1    2    0    0 -0.32376591003E+02  0.71861532714E+02 -0.46183972629E+03  0.48490589599E+03  0.12500188662E+03 0.  0.
          2    1    1    2  501    0  0.34591794936E+02  0.82559540571E+01 -0.14111034160E+04  0.14115514882E+04  0.00000000000E+00 0. -1.
          1    1    1    2  502    0 -0.22152039327E+01 -0.80117486771E+02  0.45139954608E+03  0.45845967000E+03  0.00000000000E+00 0. -1.
         22    1    3    3    0    0 -0.74096478997E+02  0.75297523259E+02 -0.31708467720E+03  0.33421953522E+03  0.00000000000E+00 0.  1.
         22    1    3    3    0    0  0.41719887994E+02 -0.34359905458E+01 -0.14475504909E+03  0.15068636077E+03  0.00000000000E+00 0.  1.
</event>
<event>
 7    1  0.5553952E-006  0.2665205E+03  0.7818608E-02  0.1129836E+00
          2   -1    0    0  502    0  0.00000000000E+00  0.00000000000E+00  0.16133588717E+04  0.16133588717E+04  0.00000000000E+00 0. -1.
          1   -1    0    0  501    0 -0.00000000000E+00 -0.00000000000E+00 -0.23279926964E+03  0.23279926964E+03  0.00000000000E+00 0. -1.
         25    2    1    2    0    0  0.30200595562E+02 -0.19765477796E+02  0.11619753968E+03  0.17443626276E+03  0.12499356564E+03 0.  0.
          2    1    1    2  501    0 -0.10207614669E+03 -0.24619835387E+03 -0.96348063842E+02  0.28340098549E+03  0.00000000000E+00 0. -1.
          1    1    1    2  502    0  0.71875551124E+02  0.26596383166E+03  0.13607101262E+04  0.13883208931E+04  0.00000000000E+00 0. -1.
         22    1    3    3    0    0  0.76038555536E+01 -0.72411473799E+02  0.65209841567E+02  0.97742332662E+02  0.00000000000E+00 0. -1.
         22    1    3    3    0    0  0.22596740009E+02  0.52645996003E+02  0.50987698116E+02  0.76693930094E+02  0.00000000000E+00 0. -1.
</event>
<event>
 7    1  0.5553952E-006  0.1128909E+03  0.7818608E-02  0.1403937E+00
          2   -1    0    0  502    0  0.00000000000E+00  0.00000000000E+00  0.21378356894E+04  0.21378356894E+04  0.00000000000E+00 0. -1.
          1   -1    0    0  501    0 -0.00000000000E+00 -0.00000000000E+00 -0.16742695183E+04  0.16742695183E+04  0.00000000000E+00 0. -1.
         25    2    1    2    0    0 -0.13081172699E+02  0.12903497107E+03  0.32470403423E+03  0.37132094372E+03  0.12500157023E+03 0.  0.
          2    1    1    2  501    0 -0.20540959004E+02 -0.22391715521E+02 -0.16490745295E+04  0.16493544566E+04  0.00000000000E+00 0. -1.
          1    1    1    2  502    0  0.33622131702E+02 -0.10664325555E+03  0.17879366664E+04  0.17914298073E+04  0.00000000000E+00 0. -1.
         22    1    3    3    0    0  0.15232875732E+02  0.12811797494E+03  0.16669500996E+03  0.21079251019E+03  0.00000000000E+00 0. -1.
         22    1    3    3    0    0 -0.28314048431E+02  0.91699612743E+00  0.15800902427E+03  0.16052843352E+03  0.00000000000E+00 0. -1.
</event>
<event>
 7    1  0.5553952E-006  0.5105260E+02  0.7818608E-02  0.1548073E+00
          2   -1    0    0  502    0  0.00000000000E+00  0.00000000000E+00  0.14644833608E+04  0.14644833608E+04  0.00000000000E+00 0. -1.
          1   -1    0    0  501    0 -0.00000000000E+00 -0.00000000000E+00 -0.27749146886E+03  0.27749146886E+03  0.00000000000E+00 0. -1.
         25    2    1    2    0    0 -0.57960103830E+02 -0.24788264148E+02 -0.11732195441E+03  0.18265135445E+03  0.12499297828E+03 0.  0.
          2    1    1    2  501    0  0.49731763184E+02  0.21614902165E+01 -0.12254089952E+03  0.13226561293E+03  0.00000000000E+00 0. -1.
          1    1    1    2  502    0  0.82283406463E+01  0.22626773932E+02  0.14268547458E+04  0.14270578622E+04  0.00000000000E+00 0. -1.
         22    1    3    3    0    0 -0.63376599685E+02 -0.49170286913E+02 -0.20684104063E+02  0.82838050819E+02  0.00000000000E+00 0.  1.
         22    1    3    3    0    0  0.54164958547E+01  0.24382022765E+02 -0.96637850347E+02  0.99813303628E+02  0.00000000000E+00 0.  1.
</event>
<event>
 7    1  0.5553952E-006  0.1911312E+03  0.7818608E-02  0.1386026E+00
          2   -1    0    0  502    0  0.00000000000E+00  0.00000000000E+00  0.10943005401E+03  0.10943005401E+03  0.00000000000E+00 0. -1.
          1   -1    0    0  501    0 -0.00000000000E+00 -0.00000000000E+00 -0.16534828031E+04  0.16534828031E+04  0.00000000000E+00 0. -1.
         25    2    1    2    0    0  0.18752838423E+03 -0.83324167947E+02 -0.24464854042E+03  0.34291240811E+03  0.12500479771E+03 0.  0.
          2    1    1    2  501    0 -0.17776013165E+03  0.65069564735E+02 -0.13511087372E+04  0.13643047798E+04  0.00000000000E+00 0. -1.
          1    1    1    2  502    0 -0.97682525745E+01  0.18254603212E+02  0.51704528487E+02  0.55695669157E+02  0.00000000000E+00 0. -1.
         22    1    3    3    0    0  0.13136024677E+03 -0.69365947712E+02 -0.80715223730E+02  0.16906240409E+03  0.00000000000E+00 0. -1.
         22    1    3    3    0    0  0.56168137458E+02 -0.13958220235E+02 -0.16393331669E+03  0.17385000403E+03  0.00000000000E+00 0. -1.
</event>
<event>
 7    1  0.5553952E-006  0.3801207E+02  0.7818608E-02  0.1551363E+00
          2   -1    0    0  502    0  0.00000000000E+00  0.00000000000E+00  0.13568639195E+03  0.13568639195E+03  0.00000000000E+00 0. -1.
          1   -1    0    0  501    0 -0.00000000000E+00 -0.00000000000E+00 -0.14508999689E+04  0.14508999689E+04  0.00000000000E+00 0. -1.
         25    2    1    2    0    0  0.36156384859E+02 -0.20497027886E+02 -0.96703527197E+03  0.97596588773E+03  0.12499913778E+03 0.  0.
          2    1    1    2  501    0 -0.98348744488E+01  0.38090478888E+02 -0.47666755768E+03  0.47828816615E+03  0.00000000000E+00 0. -1.
          1    1    1    2  502    0 -0.26321510411E+02 -0.17593451002E+02  0.12848925267E+03  0.13233230701E+03  0.00000000000E+00 0. -1.
         22    1    3    3    0    0 -0.39605256997E+02 -0.14195186307E+02 -0.16291289410E+03  0.16825781040E+03  0.00000000000E+00 0.  1.
         22    1    3    3    0    0  0.75761641857E+02 -0.63018415797E+01 -0.80412237787E+03  0.80770807733E+03  0.00000000000E+00 0.  1.
</event>
<event>
 7    1  0.5553952E-006  0.8054531E+02  0.7818608E-02  0.1393732E+00
          2   -1    0    0  502    0  0.00000000000E+00  0.00000000000E+00  0.11785292438E+04  0.11785292438E+04  0.00000000000E+00 0. -1.
          1   -1    0    0  501    0 -0.00000000000E+00 -0.00000000000E+00 -0.72381577902E+03  0.72381577902E+03  0.00000000000E+00 0. -1.
         25    2    1    2    0    0  0.38980781575E+02  0.88885946212E+02  0.25665964345E+02  0.16032336716E+03  0.12499851026E+03 0.  0.
          2    1    1    2  501    0 -0.63273237237E+02 -0.49612374979E+02 -0.65353106112E+03  0.65845860777E+03  0.00000000000E+00 0. -1.
          1    1    1    2  502    0  0.24292455661E+02 -0.39273571234E+02  0.10825785616E+04  0.10835630479E+04  0.00000000000E+00 0. -1.
         22    1    3    3    0    0 -0.51466239258E+01  0.89454220014E+02 -0.25105726015E+02  0.93052902667E+02  0.00000000000E+00 0. -1.
         22    1    3    3    0    0  0.44127405501E+02 -0.56827380150E+00  0.50771690360E+02  0.67270464495E+02  0.00000000000E+00 0. -1.
</event>
<event>
 7    1  0.5553952E-006  0.3625480E+02  0.7818608E-02  0.1581927E+00
          2   -1    0    0  502    0  0.00000000000E+00  0.00000000000E+00  0.13025893453E+04  0.13025893453E+04  0.00000000000E+00 0. -1.
          1   -1    0    0  501    0 -0.00000000000E+00 -0.00000000000E+00 -0.13226488541E+03  0.13226488541E+03  0.00000000000E+00 0. -1.
         25    2    1    2    0    0 -0.20181139343E+02  0.32126383832E+02 -0.44531415062E+02  0.13802029687E+03  0.12500868969E+03 0.  0.
          2    1    1    2  501    0  0.36196278754E+02 -0.99014296328E+01 -0.32218035333E+02  0.49459182213E+02  0.00000000000E+00 0. -1.
          1    1    1    2  502    0 -0.16015139411E+02 -0.22224954199E+02  0.12470739103E+04  0.12473747517E+04  0.00000000000E+00 0. -1.
         22    1    3    3    0    0  0.56580474833E+01 -0.35221797701E+02  0.20289743654E+02  0.41039764036E+02  0.00000000000E+00 0. -1.
         22    1    3    3    0    0 -0.25839186827E+02  0.67348181533E+02 -0.64821158715E+02  0.96980532834E+02  0.00000000000E+00 0. -1.
</event>
<event>
 7    1  0.5553952E-006  0.5458674E+02  0.7818608E-02  0.1452427E+00
          2   -1    0    0  502    0  0.00000000000E+00  0.00000000000E+00  0.29635316715E+03  0.29635316715E+03  0.00000000000E+00 0. -1.
          1   -1    0    0  501    0 -0.00000000000E+00 -0.00000000000E+00 -0.38628410871E+03  0.38628410871E+03  0.00000000000E+00 0. -1.
         25    2    1    2    0    0  0.95102237502E+02  0.22285577197E+02  0.23403818276E+03  0.28273735767E+03  0.12500183962E+03 0.  0.
          2    1    1    2  501    0 -0.52557192502E+02 -0.13386702565E+02 -0.34665372231E+03  0.35087072474E+03  0.00000000000E+00 0. -1.
          1    1    1    2  502    0 -0.42545045000E+02 -0.88988746319E+01  0.22684597995E+02  0.49029193446E+02  0.00000000000E+00 0. -1.
         22    1    3    3    0    0  0.11795950471E+03  0.37497782141E+02  0.21867362221E+03  0.25127411620E+03  0.00000000000E+00 0. -1.
         22    1    3    3    0    0 -0.22857267212E+02 -0.15212204944E+02  0.15364560543E+02  0.31463241479E+02  0.00000000000E+00 0. -1.
</event>
<event>
 7    1  0.5553952E-006  0.6856390E+02  0.7818608E-02  0.1392511E+00
          2   -1    0    0  502    0  0.00000000000E+00  0.00000000000E+00  0.17858631482E+04  0.17858631482E+04  0.00000000000E+00 0. -1.
          1   -1    0    0  501    0 -0.00000000000E+00 -0.00000000000E+00 -0.91727041445E+02  0.91727041445E+02  0.00000000000E+00 0. -1.
         25    2    1    2    0    0  0.35593820817E+02 -0.41422152012E+02  0.72817481495E+02  0.15463067595E+03  0.12500218229E+03 0.  0.
          2    1    1    2  501    0  0.74238569632E+01  0.75341036354E+02 -0.21914187224E+02  0.78813812322E+02  0.00000000000E+00 0. -1.
          1    1    1    2  502    0 -0.43017677780E+02 -0.33918884342E+02  0.16432328125E+04  0.16441457014E+04  0.00000000000E+00 0. -1.
         22    1    3    3    0    0 -0.27463683085E+02 -0.56592813354E+02  0.63012549057E+02  0.89036968448E+02  0.00000000000E+00 0. -1.
         22    1    3    3    0    0  0.63057503902E+02  0.15170661342E+02  0.98049324381E+01  0.65593707503E+02  0.00000000000E+00 0. -1.
</event>
<event>
 7    1  0.5553952E-006  0.6108434E+02  0.7818608E-02  0.1536821E+00
          2   -1    0    0  502    0  0.00000000000E+00  0.00000000000E+00  0.10580116819E+04  0.10580116819E+04  0.00000000000E+00 0. -1.
          1   -1    0    0  501    0 -0.00000000000E+00 -0.00000000000E+00 -0.11696452512E+03  0.11696452512E+03  0.00000000000E+00 0. -1.
         25    2    1    2    0    0  0.17475766992E+02  0.39608975258E+02 -0.57631270589E+02  0.14429105311E+03  0.12499708518E+03 0.  0.
          2    1    1    2  501    0 -0.64762372976E+01  0.20654855787E+02 -0.72993203066E+01  0.22843922475E+02  0.00000000000E+00 0. -1.
          1    1    1    2  502    0 -0.10999529695E+02 -0.60263831045E+02  0.10059777477E+04  0.10078412314E+04  0.00000000000E+00 0. -1.
         22    1    3    3    0    0 -0.49630979019E+02  0.18917410914E+02  0.51792446359E+00  0.53116577072E+02  0.00000000000E+00 0.  1.
         22    1    3    3    0    0  0.67106746011E+02  0.20691564344E+02 -0.58149195053E+02  0.91174476036E+02  0.00000000000E+00 0.  1.
</event>
<event>
 7    1  0.5553952E-006  0.6614723E+02  0.7818608E-02  0.1490976E+00
          2   -1    0    0  502    0  0.00000000000E+00  0.00000000000E+00  0.11533740250E+03  0.11533740250E+03  0.00000000000E+00 0. -1.
          1   -1    0    0  501    0 -0.00000000000E+00 -0.00000000000E+00 -0.37491214101E+03  0.37491214101E+03  0.00000000000E+00 0. -1.
         25    2    1    2    0    0  0.75822449224E+00 -0.54531332425E+02 -0.13613676454E+03  0.19269718124E+03  0.12499897551E+03 0.  0.
          2    1    1    2  501    0  0.26257344772E+02 -0.72187550540E+01 -0.19636745539E+03  0.19824665474E+03  0.00000000000E+00 0. -1.
          1    1    1    2  502    0 -0.27015569265E+02  0.61750087479E+02  0.72929481419E+02  0.99305707521E+02  0.00000000000E+00 0. -1.
         22    1    3    3    0    0 -0.36153864564E+02 -0.78936806155E+02 -0.63208507198E+02  0.10739383907E+03  0.00000000000E+00 0.  1.
         22    1    3    3    0    0  0.36912089056E+02  0.24405473730E+02 -0.72928257340E+02  0.85303342169E+02  0.00000000000E+00 0.  1.
</event>
<event>
 7    1  0.5553952E-006  0.1016982E+03  0.7818608E-02  0.1277218E+00
          2   -1    0    0  502    0  0.00000000000E+00  0.00000000000E+00  0.23139331780E+03  0.23139331780E+03  0.00000000000E+00 0. -1.
          1   -1    0    0  501    0 -0.00000000000E+00 -0.00000000000E+00 -0.35593921012E+03  0.35593921012E+03  0.00000000000E+00 0. -1.
         25    2    1    2    0    0  0.54177208127E+02  0.20212489535E+02 -0.14212374171E+03  0.19790549842E+03  0.12499485483E+03 0.  0.
          2    1    1    2  501    0 -0.14607657456E+03 -0.63767358139E+02 -0.13309071875E+03  0.20764821458E+03  0.00000000000E+00 0. -1.
          1    1    1    2  502    0  0.91899366434E+02  0.43554868604E+02  0.15066856814E+03  0.18177881493E+03  0.00000000000E+00 0. -1.
         22    1    3    3    0    0 -0.12593583924E+02 -0.43355410051E+02 -0.39918829712E+02  0.60264441442E+02  0.00000000000E+00 0.  1.
         22    1    3    3    0    0  0.66770792050E+02  0.63567899587E+02 -0.10220491200E+03  0.13764105698E+03  0.00000000000E+00 0.  1.
</event>
<event>
 7    1  0.5553952E-006  0.2326519E+03  0.7818608E-02  0.1243160E+00
          2   -1    0    0  502    0  0.00000000000E+00  0.00000000000E+00  0.14605156409E+04  0.14605156409E+04  0.00000000000E+00 0. -1.
          1   -1    0    0  501    0 -0.00000000000E+00 -0.00000000000E+00 -0.11747505804E+03  0.11747505804E+03  0.00000000000E+00 0. -1.
         25    2    1    2    0    0 -0.14990777567E+03 -0.17069801671E+03  0.20762495147E+03  0.33217713462E+03  0.12499349653E+03 0.  0.
          2    1    1    2  501    0  0.46798163244E+02 -0.40448097559E+02 -0.21339930124E+02  0.65433243056E+02  0.00000000000E+00 0. -1.
          1    1    1    2  502    0  0.10310961243E+03  0.21114611427E+03  0.11567555615E+04  0.11803803212E+04  0.00000000000E+00 0. -1.
         22    1    3    3    0    0 -0.30055764020E+02 -0.27436460317E+02 -0.13356402050E+02  0.42831084288E+02  0.00000000000E+00 0.  1.
         22    1    3    3    0    0 -0.11985201165E+03 -0.14326155639E+03  0.22098135352E+03  0.28934605033E+03  0.00000000000E+00 0.  1.
</event>
<event>
 7    1  0.5553952E-006  0.9065600E+02  0.7818608E-02  0.1364161E+00
          2   -1    0    0  502    0  0.00000000000E+00  0.00000000000E+00  0.48232254877E+03  0.48232254877E+03  0.00000000000E+00 0. -1.
          1   -1    0    0  501    0 -0.00000000000E+00 -0.00000000000E+00 -0.16934193638E+03  0.16934193638E+03  0.00000000000E+00 0. -1.
         25    2    1    2    0    0  0.19983671243E+02 -0.96927348848E+02  0.21715382411E+03  0.26939814038E+03  0.12500126657E+03 0.  0.
          2    1    1    2  501    0  0.42633726155E+02  0.30188370260E+02 -0.12918967751E+03  0.13935187505E+03  0.00000000000E+00 0. -1.
          1    1    1    2  502    0 -0.62617397398E+02  0.66738978589E+02  0.22501646579E+03  0.24291446972E+03  0.00000000000E+00 0. -1.
         22    1    3    3    0    0 -0.11989796137E+02 -0.70922726567E+02  0.21654665511E+03  0.22818028441E+03  0.00000000000E+00 0. -1.
         22    1    3    3    0    0  0.31973467380E+02 -0.26004622281E+02  0.60716899568E+00  0.41217855967E+02  0.00000000000E+00 0. -1.
</event>
<event>
 7    1  0.5553952E-006  0.3756987E+02  0.7818608E-02  0.1542271E+00
          2   -1    0    0  502    0  0.00000000000E+00  0.00000000000E+00  0.13929165724E+03  0.13929165724E+03  0.00000000000E+00 0. -1.
          1   -1    0    0  501    0 -0.00000000000E+00 -0.00000000000E+00 -0.46874862065E+03  0.46874862065E+03  0.00000000000E+00 0. -1.
         25    2    1    2    0    0  0.71925878276E+01 -0.13285274679E+01  0.10349317111E+02  0.12564232721E+03  0.12500155086E+03 0.  0.
          2    1    1    2  501    0  0.32825107634E+02  0.87338210685E+01 -0.40452407934E+03  0.40594765437E+03  0.00000000000E+00 0. -1.
          1    1    1    2  502    0 -0.40017695462E+02 -0.74052936005E+01  0.64717798811E+02  0.76450296313E+02  0.00000000000E+00 0. -1.
         22    1    3    3    0    0 -0.21653587261E+02  0.25862254257E+02  0.55881075010E+02  0.65271958610E+02  0.00000000000E+00 0. -1.
         22    1    3    3    0    0  0.28846175089E+02 -0.27190781725E+02 -0.45531757899E+02  0.60370368605E+02  0.00000000000E+00 0. -1.
</event>
<event>
 7    1  0.5553952E-006  0.3295784E+02  0.7818608E-02  0.1589547E+00
          2   -1    0    0  502    0  0.00000000000E+00  0.00000000000E+00  0.61854650332E+03  0.61854650332E+03  0.00000000000E+00 0. -1.
          1   -1    0    0  501    0 -0.00000000000E+00 -0.00000000000E+00 -0.31751605965E+03  0.31751605965E+03  0.00000000000E+00 0. -1.
         25    2    1    2    0    0  0.12462564404E+02  0.17963680989E+02  0.14371274692E+03  0.19172658598E+03  0.12501088271E+03 0.  0.
          2    1    1    2  501    0 -0.25754898822E+02  0.12797962131E+02 -0.29217944323E+03  0.29359143328E+03  0.00000000000E+00 0. -1.
          1    1    1    2  502    0  0.13292334418E+02 -0.30761643121E+02  0.44949713997E+03  0.45074454371E+03  0.00000000000E+00 0. -1.
         22    1    3    3    0    0 -0.48443919625E+02 -0.22217332326E+02  0.51230323465E+02  0.73925430311E+02  0.00000000000E+00 0.  1.
         22    1    3    3    0    0  0.60906484028E+02  0.40181013315E+02  0.92482423460E+02  0.11780115567E+03  0.00000000000E+00 0.  1.
</event>
<event>
 7    1  0.5553952E-006  0.1204103E+03  0.7818608E-02  0.1380396E+00
          2   -1    0    0  502    0  0.00000000000E+00  0.00000000000E+00  0.28532300078E+03  0.28532300078E+03  0.00000000000E+00 0. -1.
          1   -1    0    0  501    0 -0.00000000000E+00 -0.00000000000E+00 -0.26981832343E+03  0.26981832343E+03  0.00000000000E+00 0. -1.
         25    2    1    2    0    0 -0.85702742706E+02 -0.56214386462E+02  0.16832278851E+03  0.23337174274E+03  0.12499916730E+03 0.  0.
          2    1    1    2  501    0  0.11561110932E+03  0.39217418177E+02 -0.21698059500E+03  0.24896689156E+03  0.00000000000E+00 0. -1.
          1    1    1    2  502    0 -0.29908366612E+02  0.16996968285E+02  0.64162483837E+02  0.72802689898E+02  0.00000000000E+00 0. -1.
         22    1    3    3    0    0 -0.59651613596E+01 -0.58970498558E+02  0.15959231574E+02  0.61382407273E+02  0.00000000000E+00 0. -1.
         22    1    3    3    0    0 -0.79737581347E+02  0.27561120957E+01  0.15236355694E+03  0.17198933547E+03  0.00000000000E+00 0. -1.
</event>
<event>
 7    1  0.5553952E-006  0.8536371E+02  0.7818608E-02  0.1322943E+00
          2   -1    0    0  502    0  0.00000000000E+00  0.00000000000E+00  0.12329770803E+04  0.12329770803E+04  0.00000000000E+00 0. -1.
          1   -1    0    0  501    0 -0.00000000000E+00 -0.00000000000E+00 -0.53153818627E+03  0.53153818627E+03  0.00000000000E+00 0. -1.
         25    2    1    2    0    0  0.32029311207E+02 -0.34878755409E+01  0.10851255728E+03  0.16863592638E+03  0.12500023410E+03 0.  0.
          2    1    1    2  501    0 -0.28504170428E+02  0.82547773244E+02 -0.49622783513E+03  0.50385383491E+03  0.00000000000E+00 0. -1.
          1    1    1    2  502    0 -0.35251407794E+01 -0.79059897703E+02  0.10891541719E+04  0.10920255053E+04  0.00000000000E+00 0. -1.
         22    1    3    3    0    0  0.55792707699E+01  0.58052585373E+02  0.70935694714E+02  0.91831931894E+02  0.00000000000E+00 0. -1.
         22    1    3    3    0    0  0.26450040437E+02 -0.61540460913E+02  0.37576862566E+02  0.76803994485E+02  0.00000000000E+00 0. -1.
</event>
<event>
 7    1  0.5553952E-006  0.1913380E+03  0.7818608E-02  0.1245731E+00
          2   -1    0    0  502    0  0.00000000000E+00  0.00000000000E+00  0.19778577905E+03  0.19778577905E+03  0.00000000000E+00 0. -1.
          1   -1    0    0  501    0 -0.00000000000E+00 -0.00000000000E+00 -0.68602339368E+03  0.68602339368E+03  0.00000000000E+00 0. -1.
         25    2    1    2    0    0  0.23598758129E+03 -0.74406860464E+02 -0.25277570860E+03  0.37516624398E+03  0.12501052898E+03 0.  0.
          2    1    1    2  501    0 -0.73178262483E+02 -0.39938208427E+01 -0.30600505691E+03  0.31465870965E+03  0.00000000000E+00 0. -1.
          1    1    1    2  502    0 -0.16280931880E+03  0.78400681306E+02  0.70543150887E+02  0.19398421909E+03  0.00000000000E+00 0. -1.
         22    1    3    3    0    0  0.84678899893E+01 -0.45005919288E+02 -0.60215966457E+02  0.75651837705E+02  0.00000000000E+00 0.  1.
         22    1    3    3    0    0  0.22751969130E+03 -0.29400941176E+02 -0.19255974215E+03  0.29951440628E+03  0.00000000000E+00 0.  1.
</event>
<event>
 7    1  0.5553952E-006  0.8178411E+02  0.7818608E-02  0.1368445E+00
          2   -1    0    0  502    0  0.00000000000E+00  0.00000000000E+00  0.21079618992E+04  0.21079618992E+04  0.00000000000E+00 0. -1.
          1   -1    0    0  501    0 -0.00000000000E+00 -0.00000000000E+00 -0.15500564065E+03  0.15500564065E+03  0.00000000000E+00 0. -1.
         25    2    1    2    0    0  0.12405687888E+03  0.40406410378E+02  0.65060891047E+03  0.67523301291E+03  0.12499952061E+03 0.  0.
          2    1    1    2  501    0 -0.55792265301E+02 -0.30972808836E+01 -0.13613154389E+03  0.14715354994E+03  0.00000000000E+00 0. -1.
          1    1    1    2  502    0 -0.68264613579E+02 -0.37309129495E+02  0.14384788920E+04  0.14405809770E+04  0.00000000000E+00 0. -1.
         22    1    3    3    0    0  0.10756050024E+03  0.34328356424E+02  0.25085352560E+03  0.27509123681E+03  0.00000000000E+00 0. -1.
         22    1    3    3    0    0  0.16496378638E+02  0.60780539540E+01  0.39975538487E+03  0.40014177610E+03  0.00000000000E+00 0. -1.
</event>
<event>
 7    1  0.5553952E-006  0.1134382E+03  0.7818608E-02  0.1344959E+00
          2   -1    0    0  502    0  0.00000000000E+00  0.00000000000E+00  0.97647943891E+03  0.97647943891E+03  0.00000000000E+00 0. -1.
          1   -1    0    0  501    0 -0.00000000000E+00 -0.00000000000E+00 -0.42736737553E+03  0.42736737553E+03  0.00000000000E+00 0. -1.
         25    2    1    2    0    0  0.30692347728E+01 -0.12083168996E+03 -0.11837033908E+03  0.21034310962E+03  0.12499187610E+03 0.  0.
          2    1    1    2  501    0  0.45590476227E+02  0.18295950030E+02 -0.25721657175E+03  0.26186561074E+03  0.00000000000E+00 0. -1.
          1    1    1    2  502    0 -0.48659710999E+02  0.10253573993E+03  0.92469897420E+03  0.93163809407E+03  0.00000000000E+00 0. -1.
         22    1    3    3    0    0 -0.44018099845E+02 -0.53582238991E+02 -0.38691656099E+01  0.69452285000E+02  0.00000000000E+00 0. -1.
         22    1    3    3    0    0  0.47087334617E+02 -0.67249450969E+02 -0.11450117347E+03  0.14089082462E+03  0.00000000000E+00 0. -1.
</event>
<event>
 7    1  0.5553952E-006  0.1084933E+03  0.7818608E-02  0.1306917E+00
          2   -1    0    0  502    0  0.00000000000E+00  0.00000000000E+00  0.23048117639E+04  0.23048117639E+04  0.00000000000E+00 0. -1.
          1   -1    0    0  501    0 -0.00000000000E+00 -0.00000000000E+00 -0.10228644817E+03  0.10228644817E+03  0.00000000000E+00 0. -1.
         25    2    1    2    0    0 -0.17529200474E+01  0.86030292353E+02  0.74296294506E+03  0.75830293623E+03  0.12500048569E+03 0.  0.
          2    1    1    2  501    0 -0.70175372217E+02 -0.85143963612E+02 -0.61307806254E+02  0.12622489657E+03  0.00000000000E+00 0. -1.
          1    1    1    2  502    0  0.71928292265E+02 -0.88632874044E+00  0.15208701769E+04  0.15225703793E+04  0.00000000000E+00 0. -1.
         22    1    3    3    0    0 -0.50405299910E+02  0.69738193980E+02  0.29152774157E+03  0.30396140226E+03  0.00000000000E+00 0. -1.
         22    1    3    3    0    0  0.48652379863E+02  0.16292098373E+02  0.45143520349E+03  0.45434153397E+03  0.00000000000E+00 0. -1.
</event>
<event>
 7    1  0.5553952E-006  0.7841264E+02  0.7818608E-02  0.1473030E+00
          2   -1    0    0  502    0  0.00000000000E+00  0.00000000000E+00  0.48306805754E+03  0.48306805754E+03  0.00000000000E+00 0. -1.
          1   -1    0    0  501    0 -0.00000000000E+00 -0.00000000000E+00 -0.15927116242E+04  0.15927116242E+04  0.00000000000E+00 0. -1.
         25    2    1    2    0    0 -0.51179029751E+02  0.38834218531E+02  0.37851916936E+02  0.14555463993E+03  0.12500398384E+03 0.  0.
          2    1    1    2  501    0  0.44320046349E+01  0.25687899567E+02 -0.15346931435E+04  0.15349145108E+04  0.00000000000E+00 0. -1.
          1    1    1    2  502    0  0.46747025116E+02 -0.64522118098E+02  0.38719765990E+03  0.39531053099E+03  0.00000000000E+00 0. -1.
         22    1    3    3    0    0 -0.48750501438E+02  0.15475326115E+02  0.81366437628E+02  0.96107202025E+02  0.00000000000E+00 0. -1.
         22    1    3    3    0    0 -0.24285283138E+01  0.23358892415E+02 -0.43514520692E+02  0.49447437908E+02  0.00000000000E+00 0. -1.
</event>
<event>
 7    1  0.5553952E-006  0.1065162E+03  0.7818608E-02  0.1301336E+00
          2   -1    0    0  502    0  0.00000000000E+00  0.00000000000E+00  0.20371043097E+04  0.20371043097E+04  0.00000000000E+00 0. -1.
          1   -1    0    0  501    0 -0.00000000000E+00 -0.00000000000E+00 -0.15128122177E+03  0.15128122177E+03  0.00000000000E+00 0. -1.
         25    2    1    2    0    0  0.37547094407E+02 -0.24008424212E+02  0.22896234965E+03  0.26464065059E+03  0.12499891062E+03 0.  0.
          2    1    1    2  501    0 -0.11284775650E+03  0.73986289719E+01 -0.10848783286E+03  0.15671300436E+03  0.00000000000E+00 0. -1.
          1    1    1    2  502    0  0.75300662089E+02  0.16609795240E+02  0.17653485711E+04  0.17670318765E+04  0.00000000000E+00 0. -1.
         22    1    3    3    0    0  0.62463972969E+02  0.32212331588E+02  0.10639980624E+03  0.12751588526E+03  0.00000000000E+00 0.  1.
         22    1    3    3    0    0 -0.24916878562E+02 -0.56220755800E+02  0.12256254341E+03  0.13712476533E+03  0.00000000000E+00 0.  1.
</event>
<event>
 7    1  0.5553952E-006  0.5312028E+02  0.7818608E-02  0.1447045E+00
          2   -1    0    0  502    0  0.00000000000E+00  0.00000000000E+00  0.97013373598E+03  0.97013373598E+03  0.00000000000E+00 0. -1.
          1   -1    0    0  501    0 -0.00000000000E+00 -0.00000000000E+00 -0.54306631236E+02  0.54306631236E+02  0.00000000000E+00 0. -1.
         25    2    1    2    0    0 -0.56676418342E+01  0.43408246295E+02  0.31968938111E+03  0.34603953495E+03  0.12500264535E+03 0.  0.
          2    1    1    2  501    0 -0.40341675684E+02 -0.36860786524E+02 -0.21715375490E+02  0.58802431181E+02  0.00000000000E+00 0. -1.
          1    1    1    2  502    0  0.46009317518E+02 -0.65474597715E+01  0.61785309912E+03  0.61959840108E+03  0.00000000000E+00 0. -1.
         22    1    3    3    0    0  0.40916195648E+02 -0.16283552160E+02  0.19703598983E+03  0.20189717785E+03  0.00000000000E+00 0. -1.
         22    1    3    3    0    0 -0.46583837482E+02  0.59691798455E+02  0.12265339128E+03  0.14414235710E+03  0.00000000000E+00 0. -1.
</event>
<event>
 7    1  0.5553952E-006  0.9838000E+02  0.7818608E-02  0.1357514E+00
          2   -1    0    0  502    0  0.00000000000E+00  0.00000000000E+00  0.40175238364E+03  0.40175238364E+03  0.00000000000E+00 0. -1.
          1   -1    0    0  501    0 -0.00000000000E+00 -0.00000000000E+00 -0.12483293334E+04  0.12483293334E+04  0.00000000000E+00 0. -1.
         25    2    1    2    0    0  0.98910383889E+02 -0.99721556335E+01  0.14611719370E+03  0.21646614634E+03  0.12499860114E+03 0.  0.
          2    1    1    2  501    0 -0.61154904324E+01  0.50531298943E+02 -0.12009571508E+04  0.12020353113E+04  0.00000000000E+00 0. -1.
          1    1    1    2  502    0 -0.92794893456E+02 -0.40559143309E+02  0.20826300733E+03  0.23158025948E+03  0.00000000000E+00 0. -1.
         22    1    3    3    0    0  0.46304498820E+02 -0.60534629078E+02  0.11308995482E+03  0.13637406575E+03  0.00000000000E+00 0.  1.
         22    1    3    3    0    0  0.52605885069E+02  0.50562473445E+02  0.33027238881E+02  0.80092080587E+02  0.00000000000E+00 0.  1.
</event>
<event>
 7    1  0.5553952E-006  0.1178678E+03  0.7818608E-02  0.1253747E+00
          2   -1    0    0  502    0  0.00000000000E+00  0.00000000000E+00  0.10382133788E+04  0.10382133788E+04  0.00000000000E+00 0. -1.
          1   -1    0    0  501    0 -0.00000000000E+00 -0.00000000000E+00 -0.96960194406E+02  0.96960194406E+02  0.00000000000E+00 0. -1.
         25    2    1    2    0    0 -0.12373576414E+03 -0.64224364176E+02  0.47168912233E+03  0.50749448150E+03  0.12499884940E+03 0.  0.
          2    1    1    2  501    0  0.27432638592E+02  0.11698951422E+03 -0.23581978503E+02  0.12245491337E+03  0.00000000000E+00 0. -1.
          1    1    1    2  502    0  0.96303125546E+02 -0.52765150042E+02  0.49314604053E+03  0.50522417830E+03  0.00000000000E+00 0. -1.
         22    1    3    3    0    0  0.18969567750E+02 -0.10952793713E+02  0.16296581620E+02  0.27301772163E+02  0.00000000000E+00 0. -1.
         22    1    3    3    0    0 -0.14270533189E+03 -0.53271570464E+02  0.45539254071E+03  0.48019270934E+03  0.00000000000E+00 0. -1.
</event>
<event>
 7    1  0.5553952E-006  0.1412892E+03  0.7818608E-02  0.1247483E+00
          2   -1    0    0  502    0  0.00000000000E+00  0.00000000000E+00  0.19866486046E+04  0.19866486046E+04  0.00000000000E+00 0. -1.
          1   -1    0    0  501    0 -0.00000000000E+00 -0.00000000000E+00 -0.40974841225E+03  0.40974841225E+03  0.00000000000E+00 0. -1.
         25    2    1    2    0    0 -0.50593553505E+02 -0.13824113039E+03  0.33214502757E+03  0.38420787654E+03  0.12500022109E+03 0.  0.
          2    1    1    2  501    0  0.97498684584E+02  0.18787909902E+01 -0.37426447505E+03  0.38676015906E+03  0.00000000000E+00 0. -1.
          1    1    1    2  502    0 -0.46905131079E+02  0.13636233940E+03  0.16190196398E+04  0.16254289813E+04  0.00000000000E+00 0. -1.
         22    1    3    3    0    0 -0.19491051540E+02 -0.96599345114E+02  0.31408920757E+03  0.32918591234E+03  0.00000000000E+00 0. -1.
         22    1    3    3    0    0 -0.31102501965E+02 -0.41641785273E+02  0.18055819992E+02  0.55021964203E+02  0.00000000000E+00 0. -1.
</event>
<event>
 7    1  0.5553952E-006  0.6399723E+02  0.7818608E-02  0.1401350E+00
          2   -1    0    0  502    0  0.00000000000E+00  0.00000000000E+00  0.34391969174E+03  0.34391969174E+03  0.00000000000E+00 0. -1.
          1   -1    0    0  501    0 -0.00000000000E+00 -0.00000000000E+00 -0.69222198012E+03  0.69222198012E+03  0.00000000000E+00 0. -1.
         25    2    1    2    0    0  0.63387574384E+02 -0.11386220929E+02 -0.47759636094E+03  0.49786612888E+03  0.12499907073E+03 0.  0.
          2    1    1    2  501    0 -0.31858280345E+02 -0.44472684043E+02 -0.19765905806E+03  0.20508991414E+03  0.00000000000E+00 0. -1.
          1    1    1    2  502    0 -0.31529294039E+02  0.55858904972E+02  0.32695313062E+03  0.33318562884E+03  0.00000000000E+00 0. -1.
         22    1    3    3    0    0  0.72064255958E+02  0.36984804990E+02 -0.19706313810E+03  0.21306105507E+03  0.00000000000E+00 0.  1.
         22    1    3    3    0    0 -0.86766815735E+01 -0.48371025919E+02 -0.28053322284E+03  0.28480507381E+03  0.00000000000E+00 0.  1.
</event>
<event>
 7    1  0.5553952E-006  0.1278345E+03  0.7818608E-02  0.1362335E+00
          2   -1    0    0  502    0  0.00000000000E+00  0.00000000000E+00  0.13222523748E+04  0.13222523748E+04  0.00000000000E+00 0. -1.
          1   -1    0    0  501    0 -0.00000000000E+00 -0.00000000000E+00 -0.40030837673E+03  0.40030837673E+03  0.00000000000E+00 0. -1.
         25    2    1    2    0    0  0.13661772737E+03 -0.75704103371E+02  0.45170156173E+03  0.49401894364E+03  0.12499960441E+03 0.  0.
          2    1    1    2  501    0 -0.12015316175E+03  0.41882128207E+02 -0.36804021900E+03  0.38941558488E+03  0.00000000000E+00 0. -1.
          1    1    1    2  502    0 -0.16464565617E+02  0.33821975163E+02  0.83828265529E+03  0.83912622297E+03  0.00000000000E+00 0. -1.
         22    1    3    3    0    0 -0.79292038742E+00 -0.20311506214E+02  0.18647015381E+01  0.20412327629E+02  0.00000000000E+00 0. -1.
         22    1    3    3    0    0  0.13741064775E+03 -0.55392597157E+02  0.44983686019E+03  0.47360661601E+03  0.00000000000E+00 0. -1.
</event>
<event>
 7    1  0.5553952E-006  0.5816554E+02  0.7818608E-02  0.1426344E+00
          2   -1    0    0  502    0  0.00000000000E+00  0.00000000000E+00  0.32916214170E+03  0.32916214170E+03  0.00000000000E+00 0. -1.
          1   -1    0    0  501    0 -0.00000000000E+00 -0.00000000000E+00 -0.30014686082E+04  0.30014686082E+04  0.00000000000E+00 0. -1.
         25    2    1    2    0    0 -0.36163914298E+01  0.92256800550E+02 -0.12600284199E+04  0.12695750251E+04  0.12499891977E+03 0.  0.
          2    1    1    2  501    0 -0.25969635568E+02 -0.42233215899E+02 -0.17337065390E+04  0.17344152991E+04  0.00000000000E+00 0. -1.
          1    1    1    2  502    0  0.29586026998E+02 -0.50023584651E+02  0.32142849233E+03  0.32664042570E+03  0.00000000000E+00 0. -1.
         22    1    3    3    0    0 -0.10805425237E+02  0.58366663621E+02 -0.19157815549E+03  0.20056324264E+03  0.00000000000E+00 0.  1.
         22    1    3    3    0    0  0.71890338071E+01  0.33890136929E+02 -0.10684502644E+04  0.10690117824E+04  0.00000000000E+00 0.  1.
</event>
<event>
 7    1  0.5553952E-006  0.4031284E+02  0.7818608E-02  0.1541799E+00
          2   -1    0    0  502    0  0.00000000000E+00  0.00000000000E+00  0.21538117391E+03  0.21538117391E+03  0.00000000000E+00 0. -1.
          1   -1    0    0  501    0 -0.00000000000E+00 -0.00000000000E+00 -0.10105273776E+03  0.10105273776E+03  0.00000000000E+00 0. -1.
         25    2    1    2    0    0 -0.14401391878E+01  0.13019483285E+02  0.35761265458E+02  0.13067406745E+03  0.12500105140E+03 0.  0.
          2    1    1    2  501    0 -0.23487162876E+02  0.21368553049E+02 -0.45012503802E+02  0.55085273693E+02  0.00000000000E+00 0. -1.
          1    1    1    2  502    0  0.24927302064E+02 -0.34388036334E+02  0.12357967450E+03  0.13067457052E+03  0.00000000000E+00 0. -1.
         22    1    3    3    0    0  0.55633695480E+02 -0.10137799316E+02  0.39481993745E+02  0.68968912401E+02  0.00000000000E+00 0.  1.
         22    1    3    3    0    0 -0.57073834668E+02  0.23157282601E+02 -0.37207282870E+01  0.61705155053E+02  0.00000000000E+00 0.  1.
</event>
<event>
 7    1  0.5553952E-006  0.1050375E+03  0.7818608E-02  0.1370559E+00
          2   -1    0    0  502    0  0.00000000000E+00  0.00000000000E+00  0.38568151421E+03  0.38568151421E+03  0.00000000000E+00 0. -1.
          1   -1    0    0  501    0 -0.00000000000E+00 -0.00000000000E+00 -0.68944730808E+02  0.68944730808E+02  0.00000000000E+00 0. -1.
         25    2    1    2    0    0  0.79886319807E+02 -0.66165008678E+02  0.13597246189E+03  0.21183213011E+03  0.12499883395E+03 0.  0.
          2    1    1    2  501    0 -0.30444709800E+02 -0.30014942602E+02  0.15874462550E+02  0.45604557837E+02  0.00000000000E+00 0. -1.
          1    1    1    2  502    0 -0.49441610008E+02  0.96179951280E+02  0.16488985896E+03  0.19718955706E+03  0.00000000000E+00 0. -1.
         22    1    3    3    0    0 -0.25316903924E+02 -0.81186298284E+00 -0.32008974114E+01  0.25531362871E+02  0.00000000000E+00 0.  1.
         22    1    3    3    0    0  0.10520322373E+03 -0.65353145695E+02  0.13917335930E+03  0.18630076724E+03  0.00000000000E+00 0.  1.
</event>
<event>
 7    1  0.5553952E-006  0.9543730E+02  0.7818608E-02  0.1341524E+00
          2   -1    0    0  502    0  0.00000000000E+00  0.00000000000E+00  0.67357934508E+02  0.67357934508E+02  0.00000000000E+00 0. -1.
          1   -1    0    0  501    0 -0.00000000000E+00 -0.00000000000E+00 -0.12326178556E+04  0.12326178556E+04  0.00000000000E+00 0. -1.
         25    2    1    2    0    0 -0.91823156948E+02  0.58908956128E+02 -0.92863551478E+03  0.94334109145E+03  0.12500695278E+03 0.  0.
          2    1    1    2  501    0  0.52995829143E+02  0.28440033827E+02 -0.25265054814E+03  0.25971078704E+03  0.00000000000E+00 0. -1.
          1    1    1    2  502    0  0.38827327804E+02 -0.87348989955E+02  0.16026141785E+02  0.96923911658E+02  0.00000000000E+00 0. -1.
         22    1    3    3    0    0 -0.10068406014E+02 -0.23957645447E+02 -0.44167428156E+02  0.51245519657E+02  0.00000000000E+00 0. -1.
         22    1    3    3    0    0 -0.81754750934E+02  0.82866601575E+02 -0.88446808662E+03  0.89209557179E+03  0.00000000000E+00 0. -1.
</event>
<event>
 7    1  0.5553952E-006  0.7805210E+02  0.7818608E-02  0.1413777E+00
          2   -1    0    0  502    0  0.00000000000E+00  0.00000000000E+00  0.37652975234E+03  0.37652975234E+03  0.00000000000E+00 0. -1.
          1   -1    0    0  501    0 -0.00000000000E+00 -0.00000000000E+00 -0.12847518521E+04  0.12847518521E+04  0.00000000000E+00 0. -1.
         25    2    1    2    0    0  0.46812803154E+02  0.33323866128E+02 -0.11371660493E+03  0.17848400615E+03  0.12499262228E+03 0.  0.
          2    1    1    2  501    0 -0.78814683691E+02 -0.81834994320E+01 -0.11360636023E+04  0.11388236178E+04  0.00000000000E+00 0. -1.
          1    1    1    2  502    0  0.32001880537E+02 -0.25140366696E+02  0.34155810752E+03  0.34397398042E+03  0.00000000000E+00 0. -1.
         22    1    3    3    0    0  0.77629644951E+02  0.50071441604E+02 -0.48261671516E+02  0.10422427729E+03  0.00000000000E+00 0. -1.
         22    1    3    3    0    0 -0.30816841798E+02 -0.16747575476E+02 -0.65454933412E+02  0.74259728862E+02  0.00000000000E+00 0. -1.
</event>
<event>
 7    1  0.5553952E-006  0.9321706E+02  0.7818608E-02  0.1343991E+00
          2   -1    0    0  502    0  0.00000000000E+00  0.00000000000E+00  0.21471237162E+04  0.21471237162E+04  0.00000000000E+00 0. -1.
          1   -1    0    0  501    0 -0.00000000000E+00 -0.00000000000E+00 -0.10415925854E+03  0.10415925854E+03  0.00000000000E+00 0. -1.
         25    2    1    2    0    0  0.12622391924E+03 -0.45837375095E+01  0.31986945583E+03  0.36593029043E+03  0.12504007454E+03 0.  0.
          2    1    1    2  501    0 -0.83428078339E+02 -0.37869752583E+02 -0.54586655888E+02  0.10664926356E+03  0.00000000000E+00 0. -1.
          1    1    1    2  502    0 -0.42795840898E+02  0.42453490092E+02  0.17776816577E+04  0.17787034208E+04  0.00000000000E+00 0. -1.
         22    1    3    3    0    0  0.73441938819E+02 -0.61965609650E+02  0.13908522761E+03  0.16905074888E+03  0.00000000000E+00 0.  1.
         22    1    3    3    0    0  0.52781980419E+02  0.57381872140E+02  0.18078422823E+03  0.19687954155E+03  0.00000000000E+00 0.  1.
</event>
<event>
 7    1  0.5553952E-006  0.1870748E+03  0.7818608E-02  0.1276776E+00
          2   -1    0    0  502    0  0.00000000000E+00  0.00000000000E+00  0.31607231219E+04  0.31607231219E+04  0.00000000000E+00 0. -1.
          1   -1    0    0  501    0 -0.00000000000E+00 -0.00000000000E+00 -0.16713943300E+04  0.16713943300E+04  0.00000000000E+00 0. -1.
         25    2    1    2    0    0  0.12797570724E+03 -0.48167560259E+02 -0.46337301561E+02  0.19097285830E+03  0.12500236633E+03 0.  0.
          2    1    1    2  501    0 -0.18259667701E+03  0.56675568098E+02 -0.15466051228E+04  0.15583777053E+04  0.00000000000E+00 0. -1.
          1    1    1    2  502    0  0.54620969765E+02 -0.85080078390E+01  0.30822712163E+04  0.30827668883E+04  0.00000000000E+00 0. -1.
         22    1    3    3    0    0 -0.17182636401E+02 -0.21191947877E+01 -0.34040256551E+02  0.38189960020E+02  0.00000000000E+00 0.  1.
         22    1    3    3    0    0  0.14515834364E+03 -0.46048365471E+02 -0.12297045009E+02  0.15278289828E+03  0.00000000000E+00 0.  1.
</event>
<event>
 7    1  0.5553952E-006  0.5462257E+02  0.7818608E-02  0.1431341E+00
          2   -1    0    0  502    0  0.00000000000E+00  0.00000000000E+00  0.37583092852E+04  0.37583092852E+04  0.00000000000E+00 0. -1.
          1   -1    0    0  501    0 -0.00000000000E+00 -0.00000000000E+00 -0.35465969860E+03  0.35465969860E+03  0.00000000000E+00 0. -1.
         25    2    1    2    0    0  0.54049675158E+02  0.17246947842E+02  0.27457157346E+04  0.27491450401E+04  0.12499892657E+03 0.  0.
          2    1    1    2  501    0 -0.10312172914E+02 -0.53640322421E+02 -0.35002452002E+03  0.35426090628E+03  0.00000000000E+00 0. -1.
          1    1    1    2  502    0 -0.43737502244E+02  0.36393374579E+02  0.10079583720E+04  0.10095630374E+04  0.00000000000E+00 0. -1.
         22    1    3    3    0    0  0.32305405257E+02 -0.52106468192E+02  0.96411342131E+03  0.96606077055E+03  0.00000000000E+00 0.  1.
         22    1    3    3    0    0  0.21744269901E+02  0.69353416034E+02  0.17816023133E+04  0.17830842696E+04  0.00000000000E+00 0.  1.
</event>
<event>
 7    1  0.5553952E-006  0.9740038E+02  0.7818608E-02  0.1298133E+00
          2   -1    0    0  502    0  0.00000000000E+00  0.00000000000E+00  0.35866422030E+02  0.35866422030E+02  0.00000000000E+00 0. -1.
          1   -1    0    0  501    0 -0.00000000000E+00 -0.00000000000E+00 -0.22724633627E+04  0.22724633627E+04  0.00000000000E+00 0. -1.
         25    2    1    2    0    0 -0.19909921852E+02  0.10603533215E+03 -0.55359721225E+03  0.57769890371E+03  0.12500501303E+03 0.  0.
          2    1    1    2  501    0 -0.62476139817E+02 -0.78530334856E+02 -0.16205508857E+04  0.16236549679E+04  0.00000000000E+00 0. -1.
          1    1    1    2  502    0  0.82386061669E+02 -0.27504997290E+02 -0.62448842663E+02  0.10697591310E+03  0.00000000000E+00 0. -1.
         22    1    3    3    0    0 -0.55483566411E+02  0.11564843160E+03 -0.42802067363E+03  0.44682735248E+03  0.00000000000E+00 0.  1.
         22    1    3    3    0    0  0.35573644559E+02 -0.96130994499E+01 -0.12557653862E+03  0.13087155123E+03  0.00000000000E+00 0.  1.
</event>
<event>
 7    1  0.5553952E-006  0.3414591E+02  0.7818608E-02  0.1626415E+00
          2   -1    0    0  502    0  0.00000000000E+00  0.00000000000E+00  0.18189370062E+04  0.18189370062E+04  0.00000000000E+00 0. -1.
          1   -1    0    0  501    0 -0.00000000000E+00 -0.00000000000E+00 -0.11841804145E+03  0.11841804145E+03  0.00000000000E+00 0. -1.
         25    2    1    2    0    0 -0.32222629281E+01 -0.23937858128E+02  0.11630079510E+04  0.11699549891E+04  0.12499511353E+03 0.  0.
          2    1    1    2  501    0 -0.22206457757E+02 -0.18848564477E+01 -0.11335540143E+03  0.11552543652E+03  0.00000000000E+00 0. -1.
          1    1    1    2  502    0  0.25428720685E+02  0.25822714576E+02  0.65086641515E+03  0.65187462199E+03  0.00000000000E+00 0. -1.
         22    1    3    3    0    0  0.50530063894E+02 -0.35688678057E+02  0.84167722303E+03  0.84394757946E+03  0.00000000000E+00 0. -1.
         22    1    3    3    0    0 -0.53752326822E+02  0.11750819929E+02  0.32133072798E+03  0.32600740966E+03  0.00000000000E+00 0. -1.
</event>
<event>
 7    1  0.5553952E-006  0.1118635E+03  0.7818608E-02  0.1315569E+00
          2   -1    0    0  502    0  0.00000000000E+00  0.00000000000E+00  0.14827014127E+04  0.14827014127E+04  0.00000000000E+00 0. -1.
          1   -1    0    0  501    0 -0.00000000000E+00 -0.00000000000E+00 -0.33040662395E+03  0.33040662395E+03  0.00000000000E+00 0. -1.
         25    2    1    2    0    0  0.52227351357E+02  0.60787320498E+02  0.23157443431E+02  0.15027871416E+03  0.12499852071E+03 0.  0.
          2    1    1    2  501    0 -0.19840433545E+02 -0.11657630158E+03 -0.25295575023E+03  0.27923160364E+03  0.00000000000E+00 0. -1.
          1    1    1    2  502    0 -0.32386917812E+02  0.55788981083E+02  0.13820930955E+04  0.13835977188E+04  0.00000000000E+00 0. -1.
         22    1    3    3    0    0  0.14696449144E+01 -0.34667644114E+02 -0.11809752637E+02  0.36653453615E+02  0.00000000000E+00 0.  1.
         22    1    3    3    0    0  0.50757706443E+02  0.95454964612E+02  0.34967196067E+02  0.11362526054E+03  0.00000000000E+00 0.  1.
</event>
<event>
 7    1  0.5553952E-006  0.7486758E+02  0.7818608E-02  0.1404561E+00
          2   -1    0    0  502    0  0.00000000000E+00  0.00000000000E+00  0.77366241030E+03  0.77366241030E+03  0.00000000000E+00 0. -1.
          1   -1    0    0  501    0 -0.00000000000E+00 -0.00000000000E+00 -0.13416576939E+04  0.13416576939E+04  0.00000000000E+00 0. -1.
         25    2    1    2    0    0  0.79538627278E+02 -0.36859531665E+02 -0.49922265333E+03  0.52204787615E+03  0.12500283635E+03 0.  0.
          2    1    1    2  501    0 -0.41500196653E+02  0.61997203969E+02 -0.82866332416E+03  0.83201491839E+03  0.00000000000E+00 0. -1.
          1    1    1    2  502    0 -0.38038430625E+02 -0.25137672303E+02  0.75989069391E+03  0.76125730963E+03  0.00000000000E+00 0. -1.
         22    1    3    3    0    0  0.47095895160E+02 -0.46088843068E+02 -0.90567257879E+02  0.11200282584E+03  0.00000000000E+00 0. -1.
         22    1    3    3    0    0  0.32442732119E+02  0.92293114030E+01 -0.40865539545E+03  0.41004505032E+03  0.00000000000E+00 0. -1.
</event>
<event>
 7    1  0.5553952E-006  0.8321457E+02  0.7818608E-02  0.1383862E+00
          2   -1    0    0  502    0  0.00000000000E+00  0.00000000000E+00  0.48682612375E+02  0.48682612375E+02  0.00000000000E+00 0. -1.
          1   -1    0    0  501    0 -0.00000000000E+00 -0.00000000000E+00 -0.28468982439E+04  0.28468982439E+04  0.00000000000E+00 0. -1.
         25    2    1    2    0    0 -0.93841079979E+02  0.68043369640E+02 -0.19650343254E+03  0.26014240097E+03  0.12499768534E+03 0.  0.
          2    1    1    2  501    0  0.45457970895E+02 -0.69068938394E+02 -0.25817746440E+04  0.25830983833E+04  0.00000000000E+00 0. -1.
          1    1    1    2  502    0  0.48383109084E+02  0.10255687541E+01 -0.19937554936E+02  0.52340071960E+02  0.00000000000E+00 0. -1.
         22    1    3    3    0    0 -0.27370135067E+02 -0.36595233388E+02 -0.42126519929E+02  0.62152868651E+02  0.00000000000E+00 0.  1.
         22    1    3    3    0    0 -0.66470944912E+02  0.10463860303E+03 -0.15437691261E+03  0.19798953232E+03  0.00000000000E+00 0.  1.
</event>
<event>
 7    1  0.5553952E-006  0.3332126E+03  0.7818608E-02  0.1257672E+00
          2   -1    0    0  502    0  0.00000000000E+00  0.00000000000E+00  0.30130311943E+03  0.30130311943E+03  0.00000000000E+00 0. -1.
          1   -1    0    0  501    0 -0.00000000000E+00 -0.00000000000E+00 -0.80271685490E+03  0.80271685490E+03  0.00000000000E+00 0. -1.
         25    2    1    2    0    0  0.32927506648E+03 -0.59856742579E+02 -0.21383775607E+03  0.41636339774E+03  0.12500797583E+03 0.  0.
          2    1    1    2  501    0 -0.31907151904E+03  0.95800093070E+02 -0.42798514746E+03  0.54236111452E+03  0.00000000000E+00 0. -1.
          1    1    1    2  502    0 -0.10203547438E+02 -0.35943350491E+02  0.14040916806E+03  0.14529546207E+03  0.00000000000E+00 0. -1.
         22    1    3    3    0    0  0.31598365048E+03 -0.22418725653E+02 -0.18114354701E+03  0.36491266250E+03  0.00000000000E+00 0.  1.
         22    1    3    3    0    0  0.13291415998E+02 -0.37438016926E+02 -0.32694209063E+02  0.51450735241E+02  0.00000000000E+00 0.  1.
</event>
<event>
 7    1  0.5553952E-006  0.1072619E+03  0.7818608E-02  0.1290104E+00
          2   -1    0    0  502    0  0.00000000000E+00  0.00000000000E+00  0.63310197110E+03  0.63310197110E+03  0.00000000000E+00 0. -1.
          1   -1    0    0  501    0 -0.00000000000E+00 -0.00000000000E+00 -0.57316730275E+03  0.57316730275E+03  0.00000000000E+00 0. -1.
         25    2    1    2    0    0  0.86448642132E+02 -0.13463788181E+02  0.18635334146E+03  0.24084659914E+03  0.12499950050E+03 0.  0.
          2    1    1    2  501    0 -0.15302819638E+02 -0.83599216986E+02 -0.53385862911E+03  0.54058120689E+03  0.00000000000E+00 0. -1.
          1    1    1    2  502    0 -0.71145822494E+02  0.97063005166E+02  0.40743995599E+03  0.42484146781E+03  0.00000000000E+00 0. -1.
         22    1    3    3    0    0  0.21896364191E+02 -0.22440183735E+02 -0.10830751020E+02  0.33171038249E+02  0.00000000000E+00 0.  1.
         22    1    3    3    0    0  0.64552277942E+02  0.89763955548E+01  0.19718409248E+03  0.20767556089E+03  0.00000000000E+00 0.  1.
</event>
<event>
 7    1  0.5553952E-006  0.8529761E+02  0.7818608E-02  0.1492166E+00
          2   -1    0    0  502    0  0.00000000000E+00  0.00000000000E+00  0.74795331411E+02  0.74795331411E+02  0.00000000000E+00 0. -1.
          1   -1    0    0  501    0 -0.00000000000E+00 -0.00000000000E+00 -0.12845991377E+04  0.12845991377E+04  0.00000000000E+00 0. -1.
         25    2    1    2    0    0  0.13988797397E+02 -0.98341071117E+02 -0.18574169041E+03  0.24492861602E+03  0.12499359451E+03 0.  0.
          2    1    1    2  501    0 -0.14216075117E+02  0.15379909984E+02 -0.10310019235E+04  0.10312146259E+04  0.00000000000E+00 0. -1.
          1    1    1    2  502    0  0.22727771996E+00  0.82961161133E+02  0.69398075418E+01  0.83251227260E+02  0.00000000000E+00 0. -1.
         22    1    3    3    0    0 -0.20347647227E+02 -0.81301813446E+01 -0.13327883228E+03  0.13506803371E+03  0.00000000000E+00 0. -1.
         22    1    3    3    0    0  0.34336444624E+02 -0.90210889772E+02 -0.52462858131E+02  0.10986058231E+03  0.00000000000E+00 0. -1.
</event>
<event>
 7    1  0.5553952E-006  0.1582905E+03  0.7818608E-02  0.1301720E+00
          2   -1    0    0  502    0  0.00000000000E+00  0.00000000000E+00  0.15513034694E+04  0.15513034694E+04  0.00000000000E+00 0. -1.
          1   -1    0    0  501    0 -0.00000000000E+00 -0.00000000000E+00 -0.13395145589E+04  0.13395145589E+04  0.00000000000E+00 0. -1.
         25    2    1    2    0    0  0.47594943767E+01  0.20561901527E+03 -0.12378147231E+02  0.24099508031E+03  0.12499431179E+03 0.  0.
          2    1    1    2  501    0  0.95795302744E+01 -0.15594062441E+03 -0.12073277711E+04  0.12173945920E+04  0.00000000000E+00 0. -1.
          1    1    1    2  502    0 -0.14339024651E+02 -0.49678390856E+02  0.14314948288E+04  0.14324283560E+04  0.00000000000E+00 0. -1.
         22    1    3    3    0    0 -0.45358555913E+02  0.50789715811E+02 -0.35214231596E+02  0.76661828399E+02  0.00000000000E+00 0.  1.
         22    1    3    3    0    0  0.50118050289E+02  0.15482929946E+03  0.22836084366E+02  0.16433325191E+03  0.00000000000E+00 0.  1.
</event>
<event>
 7    1  0.5553952E-006  0.1096451E+03  0.7818608E-02  0.1283326E+00
          2   -1    0    0  502    0  0.00000000000E+00  0.00000000000E+00  0.19599052646E+04  0.19599052646E+04  0.00000000000E+00 0. -1.
          1   -1    0    0  501    0 -0.00000000000E+00 -0.00000000000E+00 -0.10503325874E+04  0.10503325874E+04  0.00000000000E+00 0. -1.
         25    2    1    2    0    0 -0.15168244030E+03  0.10959592398E+03  0.50810186311E+03  0.55570740331E+03  0.12499754218E+03 0.  0.
          2    1    1    2  501    0  0.82587642644E+02 -0.32133372558E+02 -0.10227248816E+04  0.10265570885E+04  0.00000000000E+00 0. -1.
          1    1    1    2  502    0  0.69094797660E+02 -0.77462551418E+02  0.14241956958E+04  0.14279733603E+04  0.00000000000E+00 0. -1.
         22    1    3    3    0    0 -0.15424804710E+03  0.12064307040E+03  0.50792309321E+03  0.54436484005E+03  0.00000000000E+00 0. -1.
         22    1    3    3    0    0  0.25656067992E+01 -0.11047146429E+02  0.17876989610E+00  0.11342563253E+02  0.00000000000E+00 0. -1.
</event>
<event>
 7    1  0.5553952E-006  0.1101619E+03  0.7818608E-02  0.1363659E+00
          2   -1    0    0  502    0  0.00000000000E+00  0.00000000000E+00  0.50611921673E+03  0.50611921673E+03  0.00000000000E+00 0. -1.
          1   -1    0    0  501    0 -0.00000000000E+00 -0.00000000000E+00 -0.27253379829E+03  0.27253379829E+03  0.00000000000E+00 0. -1.
         25    2    1    2    0    0  0.42300108461E+02 -0.11826548540E+03 -0.99395324850E+02  0.20317456006E+03  0.12499778815E+03 0.  0.
          2    1    1    2  501    0 -0.42330057843E+02  0.84768965715E+01 -0.11048761575E+03  0.11862210927E+03  0.00000000000E+00 0. -1.
          1    1    1    2  502    0  0.29949382038E-01  0.10978858883E+03  0.44346835904E+03  0.45685634570E+03  0.00000000000E+00 0. -1.
         22    1    3    3    0    0  0.43177262857E+02 -0.20583858742E+02  0.17412316048E+02  0.50903438182E+02  0.00000000000E+00 0.  1.
         22    1    3    3    0    0 -0.87715439589E+00 -0.97681626655E+02 -0.11680764090E+03  0.15227112188E+03  0.00000000000E+00 0.  1.
</event>
<event>
 7    1  0.5553952E-006  0.1270236E+03  0.7818608E-02  0.1304625E+00
          2   -1    0    0  502    0  0.00000000000E+00  0.00000000000E+00  0.93103926726E+03  0.93103926726E+03  0.00000000000E+00 0. -1.
          1   -1    0    0  501    0 -0.00000000000E+00 -0.00000000000E+00 -0.71862513853E+03  0.71862513853E+03  0.00000000000E+00 0. -1.
         25    2    1    2    0    0  0.96879468797E+02 -0.35434898750E+02 -0.94233330737E+02  0.18746877572E+03  0.12499343072E+03 0.  0.
          2    1    1    2  501    0  0.29816435133E+02  0.55202315856E+02 -0.57140013927E+03  0.57483426711E+03  0.00000000000E+00 0. -1.
          1    1    1    2  502    0 -0.12669590393E+03 -0.19767417106E+02  0.87804759873E+03  0.88736136297E+03  0.00000000000E+00 0. -1.
         22    1    3    3    0    0 -0.44518286236E+01  0.37038727441E+02 -0.18078430447E+02  0.41454984694E+02  0.00000000000E+00 0. -1.
         22    1    3    3    0    0  0.10133129742E+03 -0.72473626192E+02 -0.76154900290E+02  0.14601379102E+03  0.00000000000E+00 0. -1.
</event>
<event>
 7    1  0.5553952E-006  0.3599747E+02  0.7818608E-02  0.1550007E+00
          2   -1    0    0  502    0  0.00000000000E+00  0.00000000000E+00  0.13011985858E+04  0.13011985858E+04  0.00000000000E+00 0. -1.
          1   -1    0    0  501    0 -0.00000000000E+00 -0.00000000000E+00 -0.35605428503E+02  0.35605428503E+02  0.00000000000E+00 0. -1.
         25    2    1    2    0    0  0.35588525621E+02 -0.31479582845E+02  0.85528983621E+03  0.86568004829E+03  0.12499493906E+03 0.  0.
          2    1    1    2  501    0  0.40254865825E+00  0.33721390903E+02 -0.20068957846E+02  0.39243564044E+02  0.00000000000E+00 0. -1.
          1    1    1    2  502    0 -0.35991074279E+02 -0.22418080584E+01  0.43037227896E+03  0.43188040199E+03  0.00000000000E+00 0. -1.
         22    1    3    3    0    0  0.61756533717E+02  0.14559837680E+02  0.66921775710E+03  0.67221891133E+03  0.00000000000E+00 0.  1.
         22    1    3    3    0    0 -0.26168008096E+02 -0.46039420525E+02  0.18607207911E+03  0.19346113696E+03  0.00000000000E+00 0.  1.
</event>
<event>
 7    1  0.5553952E-006  0.1432286E+03  0.7818608E-02  0.1355002E+00
          2   -1    0    0  502    0  0.00000000000E+00  0.00000000000E+00  0.12767253850E+03  0.12767253850E+03  0.00000000000E+00 0. -1.
          1   -1    0    0  501    0 -0.00000000000E+00 -0.00000000000E+00 -0.43312315065E+03  0.43312315065E+03  0.00000000000E+00 0. -1.
         25    2    1    2    0    0  0.68589166137E+02  0.15814829221E+03 -0.66849248236E+02  0.22317204858E+03  0.12498634020E+03 0.  0.
          2    1    1    2  501    0 -0.50768307052E+02 -0.12720063223E+03 -0.26150463870E+03  0.29519840431E+03  0.00000000000E+00 0. -1.
          1    1    1    2  502    0 -0.17820859086E+02 -0.30947659977E+02  0.22903274784E+02  0.42425236268E+02  0.00000000000E+00 0. -1.
         22    1    3    3    0    0  0.79481846060E+02  0.32887867898E+02 -0.38722129254E+02  0.94331219657E+02  0.00000000000E+00 0.  1.
         22    1    3    3    0    0 -0.10892679922E+02  0.12526042431E+03 -0.28127118982E+02  0.12884082892E+03  0.00000000000E+00 0.  1.
</event>
<event>
 7    1  0.5553952E-006  0.8854540E+02  0.7818608E-02  0.1488297E+00
          2   -1    0    0  502    0  0.00000000000E+00  0.00000000000E+00  0.16692832038E+04  0.16692832038E+04  0.00000000000E+00 0. -1.
          1   -1    0    0  501    0 -0.00000000000E+00 -0.00000000000E+00 -0.56283093560E+02  0.56283093560E+02  0.00000000000E+00 0. -1.
         25    2    1    2    0    0 -0.96897749010E+02 -0.48244007623E+02  0.10116148931E+04  0.10250396017E+04  0.12499934047E+03 0.  0.
          2    1    1    2  501    0  0.77190410778E+02  0.41824422712E+02 -0.10385192038E+02  0.88405283015E+02  0.00000000000E+00 0. -1.
          1    1    1    2  502    0  0.19707338232E+02  0.64195849115E+01  0.61177040917E+03  0.61212141261E+03  0.00000000000E+00 0. -1.
         22    1    3    3    0    0  0.57173270308E+01  0.20026338061E+02  0.35375817274E+02  0.41051071756E+02  0.00000000000E+00 0. -1.
         22    1    3    3    0    0 -0.10261507604E+03 -0.68270345684E+02  0.97623907582E+03  0.98398852996E+03  0.00000000000E+00 0. -1.
</event>
<event>
 7    1  0.5553952E-006  0.2596939E+03  0.7818608E-02  0.1187636E+00
          2   -1    0    0  502    0  0.00000000000E+00  0.00000000000E+00  0.25976899384E+04  0.25976899384E+04  0.00000000000E+00 0. -1.
          1   -1    0    0  501    0 -0.00000000000E+00 -0.00000000000E+00 -0.52581723048E+03  0.52581723048E+03  0.00000000000E+00 0. -1.
         25    2    1    2    0    0 -0.30954553390E+03  0.99137849534E+02  0.15075273850E+03  0.37947198924E+03  0.12500340670E+03 0.  0.
          2    1    1    2  501    0  0.25061654871E+03 -0.18664381743E+02 -0.37189812675E+03  0.44884878335E+03  0.00000000000E+00 0. -1.
          1    1    1    2  502    0  0.58928985189E+02 -0.80473467792E+02  0.22930180961E+04  0.22951863963E+04  0.00000000000E+00 0. -1.
         22    1    3    3    0    0 -0.56974638158E+02 -0.22999988501E+01 -0.17304916553E+02  0.59589088975E+02  0.00000000000E+00 0.  1.
         22    1    3    3    0    0 -0.25257089574E+03  0.10143784838E+03  0.16805765505E+03  0.31988290027E+03  0.00000000000E+00 0.  1.
</event>
<event>
 7    1  0.5553952E-006  0.3466315E+02  0.7818608E-02  0.1561954E+00
          2   -1    0    0  502    0  0.00000000000E+00  0.00000000000E+00  0.57832277046E+03  0.57832277046E+03  0.00000000000E+00 0. -1.
          1   -1    0    0  501    0 -0.00000000000E+00 -0.00000000000E+00 -0.14007550510E+03  0.14007550510E+03  0.00000000000E+00 0. -1.
         25    2    1    2    0    0 -0.12622750053E+02 -0.45995962601E+02 -0.89557632013E+02  0.16099844559E+03  0.12499987054E+03 0.  0.
          2    1    1    2  501    0  0.28643788573E+02  0.15259232821E+02  0.42880680636E+01  0.32736804026E+02  0.00000000000E+00 0. -1.
          1    1    1    2  502    0 -0.16021038520E+02  0.30736729779E+02  0.52351682931E+03  0.52466302595E+03  0.00000000000E+00 0. -1.
         22    1    3    3    0    0  0.12273480888E+02 -0.80651689658E+02 -0.85434017849E+02  0.11812834031E+03  0.00000000000E+00 0.  1.
         22    1    3    3    0    0 -0.24896230941E+02  0.34655727057E+02 -0.41236141646E+01  0.42870105280E+02  0.00000000000E+00 0.  1.
</event>
<event>
 7    1  0.5553952E-006  0.8334301E+02  0.7818608E-02  0.1461304E+00
          2   -1    0    0  502    0  0.00000000000E+00  0.00000000000E+00  0.29003387953E+03  0.29003387953E+03  0.00000000000E+00 0. -1.
          1   -1    0    0  501    0 -0.00000000000E+00 -0.00000000000E+00 -0.37531858236E+03  0.37531858236E+03  0.00000000000E+00 0. -1.
         25    2    1    2    0    0  0.86587881374E+02  0.10285667298E+02 -0.14507767106E+03  0.21041671137E+03  0.12499762250E+03 0.  0.
          2    1    1    2  501    0 -0.81647035685E+02  0.15936009506E+02 -0.18806689661E+03  0.20564375127E+03  0.00000000000E+00 0. -1.
          1    1    1    2  502    0 -0.49408456888E+01 -0.26221676804E+02  0.24785986484E+03  0.24929199925E+03  0.00000000000E+00 0. -1.
         22    1    3    3    0    0  0.71871170750E+02  0.60933827770E+02 -0.64776432021E+02  0.11434326695E+03  0.00000000000E+00 0.  1.
         22    1    3    3    0    0  0.14716710624E+02 -0.50648160472E+02 -0.80301239042E+02  0.96073444418E+02  0.00000000000E+00 0.  1.
</event>
<event>
 7    1  0.7328102E-006  0.6040061E+02  0.7818608E-02  0.1450451E+00
          2   -1    0    0  502    0  0.00000000000E+00  0.00000000000E+00  0.57809195006E+03  0.57809195006E+03  0.00000000000E+00 0. -1.
          1   -1    0    0  501    0 -0.00000000000E+00 -0.00000000000E+00 -0.10959616136E+04  0.10959616136E+04  0.00000000000E+00 0. -1.
         25    2    1    2    0    0  0.94538316599E+02 -0.25689429009E+02 -0.34822917466E+03  0.38273495369E+03  0.12500018651E+03 0.  0.
          2    1    1    2  501    0 -0.39854557049E+02  0.41948445829E+00 -0.72831548410E+03  0.72940524132E+03  0.00000000000E+00 0. -1.
          1    1    1    2  502    0 -0.54683759550E+02  0.25269944551E+02  0.55867499519E+03  0.56191336868E+03  0.00000000000E+00 0. -1.
         22    1    3    3    0    0  0.97354890066E+01 -0.63189173920E+02 -0.17389327451E+03  0.18527418159E+03  0.00000000000E+00 0. -1.
         22    1    3    3    0    0  0.84802827593E+02  0.37499744911E+02 -0.17433590015E+03  0.19746077210E+03  0.00000000000E+00 0. -1.
</event>
<event>
 7    1  0.5553952E-006  0.7816379E+02  0.7818608E-02  0.1479024E+00
          2   -1    0    0  502    0  0.00000000000E+00  0.00000000000E+00  0.14914447897E+04  0.14914447897E+04  0.00000000000E+00 0. -1.
          1   -1    0    0  501    0 -0.00000000000E+00 -0.00000000000E+00 -0.22435335301E+03  0.22435335301E+03  0.00000000000E+00 0. -1.
         25    2    1    2    0    0 -0.37906438346E+02 -0.92361020125E+02  0.12500687254E+03  0.20302253362E+03  0.12499589941E+03 0.  0.
          2    1    1    2  501    0  0.37689782071E+02  0.67301400258E+02 -0.17719581811E+03  0.19325722782E+03  0.00000000000E+00 0. -1.
          1    1    1    2  502    0  0.21665627436E+00  0.25059619868E+02  0.13192803823E+04  0.13195183813E+04  0.00000000000E+00 0. -1.
         22    1    3    3    0    0 -0.70748805787E+02 -0.10181606169E+03  0.10980742349E+03  0.16561876160E+03  0.00000000000E+00 0.  1.
         22    1    3    3    0    0  0.32842367441E+02  0.94550415681E+01  0.15199449055E+02  0.37403772026E+02  0.00000000000E+00 0.  1.
</event>
<event>
 7    1  0.5553952E-006  0.7450853E+02  0.7818608E-02  0.1382244E+00
          2   -1    0    0  502    0  0.00000000000E+00  0.00000000000E+00  0.89722932490E+03  0.89722932490E+03  0.00000000000E+00 0. -1.
          1   -1    0    0  501    0 -0.00000000000E+00 -0.00000000000E+00 -0.10214296364E+03  0.10214296364E+03  0.00000000000E+00 0. -1.
         25    2    1    2    0    0  0.98167496376E+02 -0.31234782572E+02  0.45865931199E+03  0.48642204176E+03  0.12500227695E+03 0.  0.
          2    1    1    2  501    0 -0.72064209425E+02 -0.16907101982E+02 -0.70578946877E+02  0.10227652771E+03  0.00000000000E+00 0. -1.
          1    1    1    2  502    0 -0.26103286952E+02  0.48141884554E+02  0.40700599615E+03  0.41067371907E+03  0.00000000000E+00 0. -1.
         22    1    3    3    0    0  0.66781518380E+02 -0.63466661013E+02  0.40970305316E+03  0.41993378053E+03  0.00000000000E+00 0.  1.
         22    1    3    3    0    0  0.31385977996E+02  0.32231878442E+02  0.48956258829E+02  0.66488261229E+02  0.00000000000E+00 0.  1.
</event>
<event>
 7    1  0.5553952E-006  0.9544129E+02  0.7818608E-02  0.1311140E+00
          2   -1    0    0  502    0  0.00000000000E+00  0.00000000000E+00  0.10725790380E+04  0.10725790380E+04  0.00000000000E+00 0. -1.
          1   -1    0    0  501    0 -0.00000000000E+00 -0.00000000000E+00 -0.12704019244E+03  0.12704019244E+03  0.00000000000E+00 0. -1.
         25    2    1    2    0    0 -0.79365703459E+02 -0.10558266807E+03  0.11733284443E+03  0.21642231911E+03  0.12500003659E+03 0.  0.
          2    1    1    2  501    0  0.17394255806E+01  0.92674408675E+02 -0.47368723556E+02  0.10409307180E+03  0.00000000000E+00 0. -1.
          1    1    1    2  502    0  0.77626277878E+02  0.12908259393E+02  0.87557472471E+03  0.87910383956E+03  0.00000000000E+00 0. -1.
         22    1    3    3    0    0 -0.10542190383E+03 -0.10192828761E+03  0.12066213764E+03  0.18990130353E+03  0.00000000000E+00 0.  1.
         22    1    3    3    0    0  0.26056200372E+02 -0.36543804554E+01 -0.33292932106E+01  0.26521015584E+02  0.00000000000E+00 0.  1.
</event>
<event>
 7    1  0.5553952E-006  0.1604493E+03  0.7818608E-02  0.1293957E+00
          2   -1    0    0  502    0  0.00000000000E+00  0.00000000000E+00  0.11143238055E+04  0.11143238055E+04  0.00000000000E+00 0. -1.
          1   -1    0    0  501    0 -0.00000000000E+00 -0.00000000000E+00 -0.17496857834E+03  0.17496857834E+03  0.00000000000E+00 0. -1.
         25    2    1    2    0    0 -0.97698058937E+02  0.84757924551E+02  0.16122952406E+03  0.24155263693E+03  0.12499560186E+03 0.  0.
          2    1    1    2  501    0  0.15177069385E+03 -0.75809889759E+02 -0.80209322556E+02  0.18765665009E+03  0.00000000000E+00 0. -1.
          1    1    1    2  502    0 -0.54072634916E+02 -0.89480347915E+01  0.85833502569E+03  0.86008309685E+03  0.00000000000E+00 0. -1.
         22    1    3    3    0    0 -0.25104969302E+02 -0.14298491124E+02 -0.10230122134E+02  0.30649008645E+02  0.00000000000E+00 0. -1.
         22    1    3    3    0    0 -0.72593089635E+02  0.99056415674E+02  0.17145964620E+03  0.21090362828E+03  0.00000000000E+00 0. -1.
</event>
<event>
 7    1  0.5553952E-006  0.6221292E+02  0.7818608E-02  0.1431279E+00
          2   -1    0    0  502    0  0.00000000000E+00  0.00000000000E+00  0.49026578040E+03  0.49026578040E+03  0.00000000000E+00 0. -1.
          1   -1    0    0  501    0 -0.00000000000E+00 -0.00000000000E+00 -0.73327835831E+03  0.73327835831E+03  0.00000000000E+00 0. -1.
         25    2    1    2    0    0  0.85587050300E+02  0.11587186841E+01 -0.34202357862E+03  0.37407773312E+03  0.12501014467E+03 0.  0.
          2    1    1    2  501    0 -0.52643184168E+02  0.28977776076E+02 -0.37175875528E+03  0.37658410545E+03  0.00000000000E+00 0. -1.
          1    1    1    2  502    0 -0.32943866132E+02 -0.30136494760E+02  0.47076975600E+03  0.47288230015E+03  0.00000000000E+00 0. -1.
         22    1    3    3    0    0  0.91879222158E+02  0.15762660225E+02 -0.34545326700E+03  0.35781030254E+03  0.00000000000E+00 0.  1.
         22    1    3    3    0    0 -0.62921718582E+01 -0.14603941541E+02  0.34296883770E+01  0.16267430577E+02  0.00000000000E+00 0.  1.
</event>
<event>
 7    1  0.5553952E-006  0.4685591E+02  0.7818608E-02  0.1499172E+00
          2   -1    0    0  502    0  0.00000000000E+00  0.00000000000E+00  0.11320076941E+04  0.11320076941E+04  0.00000000000E+00 0. -1.
          1   -1    0    0  501    0 -0.00000000000E+00 -0.00000000000E+00 -0.20089438995E+03  0.20089438995E+03  0.00000000000E+00 0. -1.
         25    2    1    2    0    0  0.56553939036E+02 -0.42553163722E+02  0.15779473128E+03  0.21338024594E+03  0.12499132919E+03 0.  0.
          2    1    1    2  501    0 -0.45920193864E+02  0.78204320852E+01 -0.16961185280E+03  0.17589202362E+03  0.00000000000E+00 0. -1.
          1    1    1    2  502    0 -0.10633745172E+02  0.34732731637E+02  0.94293042568E+03  0.94362981453E+03  0.00000000000E+00 0. -1.
         22    1    3    3    0    0  0.87951841063E+02  0.25055565979E+01  0.10743386491E+03  0.13886626476E+03  0.00000000000E+00 0. -1.
         22    1    3    3    0    0 -0.31397902027E+02 -0.45058720320E+02  0.50360866374E+02  0.74513981174E+02  0.00000000000E+00 0. -1.
</event>
<event>
 7    1  0.5553952E-006  0.1614220E+03  0.7818608E-02  0.1369194E+00
          2   -1    0    0  502    0  0.00000000000E+00  0.00000000000E+00  0.19466243332E+03  0.19466243332E+03  0.00000000000E+00 0. -1.
          1   -1    0    0  501    0 -0.00000000000E+00 -0.00000000000E+00 -0.75056243639E+03  0.75056243639E+03  0.00000000000E+00 0. -1.
         25    2    1    2    0    0 -0.44107145566E+02  0.12884919248E+03  0.10364025472E+02  0.18514260112E+03  0.12499125982E+03 0.  0.
          2    1    1    2  501    0  0.57153402774E+02 -0.15377684419E+03 -0.65071044629E+03  0.67107221233E+03  0.00000000000E+00 0. -1.
          1    1    1    2  502    0 -0.13046257207E+02  0.24927651706E+02  0.84446417745E+02  0.89010056267E+02  0.00000000000E+00 0. -1.
         22    1    3    3    0    0 -0.19284801405E+02  0.10996142996E+03 -0.45982795894E+02  0.12073871443E+03  0.00000000000E+00 0.  1.
         22    1    3    3    0    0 -0.24822344161E+02  0.18887762527E+02  0.56346821366E+02  0.64403886692E+02  0.00000000000E+00 0.  1.
</event>
<event>
 7    1  0.5553952E-006  0.7385577E+02  0.7818608E-02  0.1393036E+00
          2   -1    0    0  502    0  0.00000000000E+00  0.00000000000E+00  0.32833983174E+03  0.32833983174E+03  0.00000000000E+00 0. -1.
          1   -1    0    0  501    0 -0.00000000000E+00 -0.00000000000E+00 -0.27333979445E+03  0.27333979445E+03  0.00000000000E+00 0. -1.
         25    2    1    2    0    0  0.14020681409E+02  0.22237601794E+02  0.63456331879E+02  0.14263007779E+03  0.12500217036E+03 0.  0.
          2    1    1    2  501    0 -0.45902270424E+02 -0.61585846452E+02 -0.22443393663E+03  0.23721388413E+03  0.00000000000E+00 0. -1.
          1    1    1    2  502    0  0.31881589015E+02  0.39348244657E+02  0.21597764204E+03  0.22183566426E+03  0.00000000000E+00 0. -1.
         22    1    3    3    0    0  0.99262840402E+01 -0.16270832775E+02 -0.33323958546E+02  0.38389547108E+02  0.00000000000E+00 0. -1.
         22    1    3    3    0    0  0.40943973692E+01  0.38508434569E+02  0.96780290424E+02  0.10424053068E+03  0.00000000000E+00 0. -1.
</event>
<event>
 7    1  0.5553952E-006  0.1698965E+03  0.7818608E-02  0.1237327E+00
          2   -1    0    0  502    0  0.00000000000E+00  0.00000000000E+00  0.39421683408E+03  0.39421683408E+03  0.00000000000E+00 0. -1.
          1   -1    0    0  501    0 -0.00000000000E+00 -0.00000000000E+00 -0.14400539065E+04  0.14400539065E+04  0.00000000000E+00 0. -1.
         25    2    1    2    0    0  0.20021576966E+03 -0.14304293949E+03 -0.88576896985E+02  0.28985954137E+03  0.12500020032E+03 0.  0.
          2    1    1    2  501    0 -0.84383292281E+02  0.30921718740E+02 -0.12269367207E+04  0.12302237233E+04  0.00000000000E+00 0. -1.
          1    1    1    2  502    0 -0.11583247738E+03  0.11212122075E+03  0.26967654528E+03  0.31418747593E+03  0.00000000000E+00 0. -1.
         22    1    3    3    0    0  0.12840230015E+03 -0.15556808383E+03 -0.52043502850E+02  0.20831971962E+03  0.00000000000E+00 0.  1.
         22    1    3    3    0    0  0.71813469511E+02  0.12525144341E+02 -0.36533394134E+02  0.81539821749E+02  0.00000000000E+00 0.  1.
</event>
<event>
 7    1  0.5553952E-006  0.3470034E+02  0.7818608E-02  0.1601347E+00
          2   -1    0    0  502    0  0.00000000000E+00  0.00000000000E+00  0.11173657601E+04  0.11173657601E+04  0.00000000000E+00 0. -1.
          1   -1    0    0  501    0 -0.00000000000E+00 -0.00000000000E+00 -0.34228789446E+03  0.34228789446E+03  0.00000000000E+00 0. -1.
         25    2    1    2    0    0  0.43442865848E+02 -0.37889297494E+02  0.54597443350E+02  0.14808477189E+03  0.12500134954E+03 0.  0.
          2    1    1    2  501    0 -0.23539830691E+02  0.96281149449E+01 -0.29470238465E+03  0.29579776832E+03  0.00000000000E+00 0. -1.
          1    1    1    2  502    0 -0.19903035157E+02  0.28261182549E+02  0.10151828070E+04  0.10157711144E+04  0.00000000000E+00 0. -1.
         22    1    3    3    0    0 -0.40711584939E+01  0.12119076790E+02 -0.33695805408E+02  0.36039612315E+02  0.00000000000E+00 0.  1.
         22    1    3    3    0    0  0.47514024342E+02 -0.50008374284E+02  0.88293248758E+02  0.11204515957E+03  0.00000000000E+00 0.  1.
</event>
<event>
 7    1  0.5553952E-006  0.8174354E+02  0.7818608E-02  0.1433242E+00
          2   -1    0    0  502    0  0.00000000000E+00  0.00000000000E+00  0.13549890184E+04  0.13549890184E+04  0.00000000000E+00 0. -1.
          1   -1    0    0  501    0 -0.00000000000E+00 -0.00000000000E+00 -0.28983349466E+03  0.28983349466E+03  0.00000000000E+00 0. -1.
         25    2    1    2    0    0  0.10538232419E+03  0.34754231052E+02  0.54662743902E+02  0.17585731159E+03  0.12499795055E+03 0.  0.
          2    1    1    2  501    0 -0.71903683414E+02 -0.35133823250E+02 -0.22201730996E+03  0.23600044734E+03  0.00000000000E+00 0. -1.
          1    1    1    2  502    0 -0.33478640777E+02  0.37959219852E+00  0.12325100898E+04  0.12329647541E+04  0.00000000000E+00 0. -1.
         22    1    3    3    0    0  0.21435036623E+02  0.43741108058E+02  0.74612457470E+02  0.89105354153E+02  0.00000000000E+00 0. -1.
         22    1    3    3    0    0  0.83947287568E+02 -0.89868770061E+01 -0.19949713568E+02  0.86751957441E+02  0.00000000000E+00 0. -1.
</event>
<event>
 7    1  0.5553952E-006  0.9199740E+02  0.7818608E-02  0.1361673E+00
          2   -1    0    0  502    0  0.00000000000E+00  0.00000000000E+00  0.19027010029E+03  0.19027010029E+03  0.00000000000E+00 0. -1.
          1   -1    0    0  501    0 -0.00000000000E+00 -0.00000000000E+00 -0.11729882697E+04  0.11729882697E+04  0.00000000000E+00 0. -1.
         25    2    1    2    0    0 -0.76386756169E+01 -0.96975949289E+02 -0.64615560690E+03  0.66528593993E+03  0.12500251772E+03 0.  0.
          2    1    1    2  501    0  0.55785979272E+02  0.75892895285E+02 -0.50903128874E+03  0.51767234807E+03  0.00000000000E+00 0. -1.
          1    1    1    2  502    0 -0.48147303655E+02  0.21083054004E+02  0.17246872626E+03  0.18030008196E+03  0.00000000000E+00 0. -1.
         22    1    3    3    0    0 -0.20789333960E+02 -0.10887438775E+03 -0.63439720068E+03  0.64400748206E+03  0.00000000000E+00 0.  1.
         22    1    3    3    0    0  0.13150658343E+02  0.11898438462E+02 -0.11758406219E+02  0.21278457874E+02  0.00000000000E+00 0.  1.
</event>
<event>
 7    1  0.5553952E-006  0.4068361E+02  0.7818608E-02  0.1585212E+00
          2   -1    0    0  502    0  0.00000000000E+00  0.00000000000E+00  0.17711810835E+04  0.17711810835E+04  0.00000000000E+00 0. -1.
          1   -1    0    0  501    0 -0.00000000000E+00 -0.00000000000E+00 -0.10261022975E+02  0.10261022975E+02  0.00000000000E+00 0. -1.
         25    2    1    2    0    0  0.47180052069E+02 -0.13037648702E+02  0.11274160036E+04  0.11353797750E+04  0.12499780201E+03 0.  0.
          2    1    1    2  501    0 -0.18533067598E+02 -0.15128941245E+02  0.19827978098E+02  0.31072627395E+02  0.00000000000E+00 0. -1.
          1    1    1    2  502    0 -0.28646984471E+02  0.28166589947E+02  0.61367607878E+03  0.61498970412E+03  0.00000000000E+00 0. -1.
         22    1    3    3    0    0 -0.38918389846E+02 -0.68313894733E+01  0.56476125114E+03  0.56614183712E+03  0.00000000000E+00 0. -1.
         22    1    3    3    0    0  0.86098441915E+02 -0.62062592291E+01  0.56265475251E+03  0.56923793784E+03  0.00000000000E+00 0. -1.
</event>
<event>
 7    1  0.5553952E-006  0.9897170E+02  0.7818608E-02  0.1338466E+00
          2   -1    0    0  502    0  0.00000000000E+00  0.00000000000E+00  0.28055373554E+03  0.28055373554E+03  0.00000000000E+00 0. -1.
          1   -1    0    0  501    0 -0.00000000000E+00 -0.00000000000E+00 -0.56635655106E+03  0.56635655106E+03  0.00000000000E+00 0. -1.
         25    2    1    2    0    0  0.83947096729E+02 -0.69340109265E+02 -0.16321280283E+03  0.23265401992E+03  0.12503722717E+03 0.  0.
          2    1    1    2  501    0 -0.30283488607E+02  0.95164030828E+02 -0.35787680886E+03  0.37154958318E+03  0.00000000000E+00 0. -1.
          1    1    1    2  502    0 -0.53663608122E+02 -0.25823921563E+02  0.23528679617E+03  0.24270668350E+03  0.00000000000E+00 0. -1.
         22    1    3    3    0    0  0.59529280802E+02 -0.94171886107E+02 -0.16347317905E+03  0.19782709540E+03  0.00000000000E+00 0.  1.
         22    1    3    3    0    0  0.24417815927E+02  0.24831776842E+02  0.26037622463E+00  0.34826924521E+02  0.00000000000E+00 0.  1.
</event>
<event>
 7    1  0.5553952E-006  0.9165097E+02  0.7818608E-02  0.1418566E+00
          2   -1    0    0  502    0  0.00000000000E+00  0.00000000000E+00  0.37990238186E+02  0.37990238186E+02  0.00000000000E+00 0. -1.
          1   -1    0    0  501    0 -0.00000000000E+00 -0.00000000000E+00 -0.20742745129E+04  0.20742745129E+04  0.00000000000E+00 0. -1.
         25    2    1    2    0    0  0.19774335572E+02 -0.96422065474E+02 -0.31855113300E+03  0.35607340762E+03  0.12500083288E+03 0.  0.
          2    1    1    2  501    0 -0.47726024871E+02  0.78144040182E+02 -0.17202631113E+04  0.17226983010E+04  0.00000000000E+00 0. -1.
          1    1    1    2  502    0  0.27951689299E+02  0.18278025291E+02  0.25299695650E+01  0.33493042400E+02  0.00000000000E+00 0. -1.
         22    1    3    3    0    0  0.39097350453E+02 -0.40623714971E+02 -0.34829372055E+02  0.66271971363E+02  0.00000000000E+00 0. -1.
         22    1    3    3    0    0 -0.19323014881E+02 -0.55798350502E+02 -0.28372176094E+03  0.28980143625E+03  0.00000000000E+00 0. -1.
</event>
<event>
 7    1  0.5935299E-006  0.1650713E+03  0.7818608E-02  0.1347501E+00
          2   -1    0    0  502    0  0.00000000000E+00  0.00000000000E+00  0.15105508672E+04  0.15105508672E+04  0.00000000000E+00 0. -1.
          1   -1    0    0  501    0 -0.00000000000E+00 -0.00000000000E+00 -0.26236694602E+04  0.26236694602E+04  0.00000000000E+00 0. -1.
         25    2    1    2    0    0  0.35195411228E+02  0.12773464163E+03 -0.60586407150E+03  0.63265355693E+03  0.12499757725E+03 0.  0.
          2    1    1    2  501    0  0.46671827398E+01  0.32698938562E+02 -0.19997105328E+04  0.19999833044E+04  0.00000000000E+00 0. -1.
          1    1    1    2  502    0 -0.39862593968E+02 -0.16043358019E+03  0.14924560112E+04  0.15015834660E+04  0.00000000000E+00 0. -1.
         22    1    3    3    0    0  0.28044240080E+02  0.15504553305E+02 -0.36964445814E+03  0.37103085587E+03  0.00000000000E+00 0.  1.
         22    1    3    3    0    0  0.71511711486E+01  0.11223008832E+03 -0.23621961336E+03  0.26162270106E+03  0.00000000000E+00 0.  1.
</event>
<event>
 7    1  0.5553952E-006  0.1114710E+03  0.7818608E-02  0.1291531E+00
          2   -1    0    0  502    0  0.00000000000E+00  0.00000000000E+00  0.15071122900E+04  0.15071122900E+04  0.00000000000E+00 0. -1.
          1   -1    0    0  501    0 -0.00000000000E+00 -0.00000000000E+00 -0.22188934388E+03  0.22188934388E+03  0.00000000000E+00 0. -1.
         25    2    1    2    0    0 -0.16187960253E+03  0.21286106561E+02  0.37170267812E+03  0.42478936317E+03  0.12500007235E+03 0.  0.
          2    1    1    2  501    0  0.71531551658E+02  0.37348519050E+02 -0.18426297688E+03  0.20115794642E+03  0.00000000000E+00 0. -1.
          1    1    1    2  502    0  0.90348050870E+02 -0.58634625612E+02  0.10977832449E+04  0.11030543243E+04  0.00000000000E+00 0. -1.
         22    1    3    3    0    0  0.10701368666E+02 -0.14448548442E+02  0.95284009235E+02  0.96965572547E+02  0.00000000000E+00 0. -1.
         22    1    3    3    0    0 -0.17258097119E+03  0.35734655003E+02  0.27641866889E+03  0.32782379062E+03  0.00000000000E+00 0. -1.
</event>
<event>
 7    1  0.5553952E-006  0.8217053E+02  0.7818608E-02  0.1408686E+00
          2   -1    0    0  502    0  0.00000000000E+00  0.00000000000E+00  0.95827762493E+03  0.95827762493E+03  0.00000000000E+00 0. -1.
          1   -1    0    0  501    0 -0.00000000000E+00 -0.00000000000E+00 -0.14096599514E+03  0.14096599514E+03  0.00000000000E+00 0. -1.
         25    2    1    2    0    0 -0.26171798652E+02  0.71158612308E+02  0.26306377732E+03  0.30095804440E+03  0.12499872958E+03 0.  0.
          2    1    1    2  501    0 -0.37077424843E+02 -0.15584847221E+02 -0.11599765917E+03  0.12277247179E+03  0.00000000000E+00 0. -1.
          1    1    1    2  502    0  0.63249223495E+02 -0.55573765087E+02  0.67024551164E+03  0.67551310388E+03  0.00000000000E+00 0. -1.
         22    1    3    3    0    0  0.36442250468E+02  0.58761897096E+01  0.20826967864E+02  0.42383131256E+02  0.00000000000E+00 0.  1.
         22    1    3    3    0    0 -0.62614049120E+02  0.65282422598E+02  0.24223680946E+03  0.25857491314E+03  0.00000000000E+00 0.  1.
</event>
<event>
 7    1  0.5553952E-006  0.1087579E+03  0.7818608E-02  0.1268130E+00
          2   -1    0    0  502    0  0.00000000000E+00  0.00000000000E+00  0.24063203393E+04  0.24063203393E+04  0.00000000000E+00 0. -1.
          1   -1    0    0  501    0 -0.00000000000E+00 -0.00000000000E+00 -0.16740006321E+03  0.16740006321E+03  0.00000000000E+00 0. -1.
         25    2    1    2    0    0 -0.10623842620E+03  0.18084756696E+03  0.14101368886E+03  0.28196095553E+03  0.12499869728E+03 0.  0.
          2    1    1    2  501    0  0.46113958498E+02 -0.92485188395E+02 -0.67682162696E+02  0.12353494400E+03  0.00000000000E+00 0. -1.
          1    1    1    2  502    0  0.60124467705E+02 -0.88362378566E+02  0.21655887499E+04  0.21682245030E+04  0.00000000000E+00 0. -1.
         22    1    3    3    0    0 -0.12202470764E+03  0.15538299421E+03  0.78416369834E+02  0.21256300530E+03  0.00000000000E+00 0.  1.
         22    1    3    3    0    0  0.15786281439E+02  0.25464572750E+02  0.62597319024E+02  0.69397950230E+02  0.00000000000E+00 0.  1.
</event>
<event>
 7    1  0.5553952E-006  0.4365891E+02  0.7818608E-02  0.1491140E+00
          2   -1    0    0  502    0  0.00000000000E+00  0.00000000000E+00  0.11509717324E+04  0.11509717324E+04  0.00000000000E+00 0. -1.
          1   -1    0    0  501    0 -0.00000000000E+00 -0.00000000000E+00 -0.10983481892E+03  0.10983481892E+03  0.00000000000E+00 0. -1.
         25    2    1    2    0    0 -0.48904847585E+02  0.31502074616E+02  0.91020488664E+02  0.16521009862E+03  0.12500233001E+03 0.  0.
          2    1    1    2  501    0  0.42751185867E+02  0.92471627674E+01 -0.65708839033E+02  0.78935577779E+02  0.00000000000E+00 0. -1.
          1    1    1    2  502    0  0.61536617181E+01 -0.40749237383E+02  0.10158252639E+04  0.10166608749E+04  0.00000000000E+00 0. -1.
         22    1    3    3    0    0  0.24192242226E+02  0.29477976734E+02  0.83380340045E+02  0.91686950011E+02  0.00000000000E+00 0. -1.
         22    1    3    3    0    0 -0.73097089811E+02  0.20240978821E+01  0.76401486188E+01  0.73523148613E+02  0.00000000000E+00 0. -1.
</event>
<event>
 7    1  0.5553952E-006  0.2746662E+03  0.7818608E-02  0.1307988E+00
          2   -1    0    0  502    0  0.00000000000E+00  0.00000000000E+00  0.15717129590E+04  0.15717129590E+04  0.00000000000E+00 0. -1.
          1   -1    0    0  501    0 -0.00000000000E+00 -0.00000000000E+00 -0.11571705635E+04  0.11571705635E+04  0.00000000000E+00 0. -1.
         25    2    1    2    0    0  0.29120810698E+03 -0.60608330159E+02 -0.19504122657E+03  0.37701936929E+03  0.12500797374E+03 0.  0.
          2    1    1    2  501    0 -0.26324027812E+03  0.57519033996E+02 -0.85016556276E+03  0.89184380213E+03  0.00000000000E+00 0. -1.
          1    1    1    2  502    0 -0.27967828856E+02  0.30892961629E+01  0.14597491848E+04  0.14600203512E+04  0.00000000000E+00 0. -1.
         22    1    3    3    0    0  0.62579881428E+02  0.37075141801E+02 -0.58685891911E+02  0.93460374537E+02  0.00000000000E+00 0.  1.
         22    1    3    3    0    0  0.22862822555E+03 -0.97683471960E+02 -0.13635533466E+03  0.28355899475E+03  0.00000000000E+00 0.  1.
</event>
<event>
 7    1  0.5553952E-006  0.1113178E+03  0.7818608E-02  0.1312499E+00
          2   -1    0    0  502    0  0.00000000000E+00  0.00000000000E+00  0.72261554675E+02  0.72261554675E+02  0.00000000000E+00 0. -1.
          1   -1    0    0  501    0 -0.00000000000E+00 -0.00000000000E+00 -0.17224333651E+04  0.17224333651E+04  0.00000000000E+00 0. -1.
         25    2    1    2    0    0 -0.83506015303E+00 -0.71205085208E+02 -0.70298465652E+03  0.71755422213E+03  0.12500309156E+03 0.  0.
          2    1    1    2  501    0  0.96304472827E+01  0.13726663076E+03 -0.98895962460E+03  0.99848686147E+03  0.00000000000E+00 0. -1.
          1    1    1    2  502    0 -0.87953871297E+01 -0.66061545555E+02  0.41772470706E+02  0.78653836173E+02  0.00000000000E+00 0. -1.
         22    1    3    3    0    0 -0.14201139522E+02 -0.46704243804E+02 -0.78460567935E+02  0.92406815082E+02  0.00000000000E+00 0.  1.
         22    1    3    3    0    0  0.13366079369E+02 -0.24500841404E+02 -0.62452408859E+03  0.62514740705E+03  0.00000000000E+00 0.  1.
</event>
<event>
 7    1  0.5553952E-006  0.2984443E+02  0.7818608E-02  0.1654290E+00
          2   -1    0    0  502    0  0.00000000000E+00  0.00000000000E+00  0.47256411953E+03  0.47256411953E+03  0.00000000000E+00 0. -1.
          1   -1    0    0  501    0 -0.00000000000E+00 -0.00000000000E+00 -0.22734849402E+04  0.22734849402E+04  0.00000000000E+00 0. -1.
         25    2    1    2    0    0 -0.78559108795E+01 -0.38656986179E+02 -0.21719310483E+03  0.25368181110E+03  0.12500215430E+03 0.  0.
          2    1    1    2  501    0 -0.10949110239E+02  0.27742352131E+02 -0.20376781453E+04  0.20378964020E+04  0.00000000000E+00 0. -1.
          1    1    1    2  502    0  0.18805021118E+02  0.10914634047E+02  0.45395042949E+03  0.45447084669E+03  0.00000000000E+00 0. -1.
         22    1    3    3    0    0  0.27183536912E+02 -0.25757095805E+02 -0.21281813945E+03  0.21608779036E+03  0.00000000000E+00 0.  1.
         22    1    3    3    0    0 -0.35039447791E+02 -0.12899890373E+02 -0.43749653813E+01  0.37594020738E+02  0.00000000000E+00 0.  1.
</event>
<event>
 7    1  0.5553952E-006  0.6674204E+02  0.7818608E-02  0.1383781E+00
          2   -1    0    0  502    0  0.00000000000E+00  0.00000000000E+00  0.69974569497E+03  0.69974569497E+03  0.00000000000E+00 0. -1.
          1   -1    0    0  501    0 -0.00000000000E+00 -0.00000000000E+00 -0.94160235616E+03  0.94160235616E+03  0.00000000000E+00 0. -1.
         25    2    1    2    0    0  0.84256305429E+02 -0.27018128572E+02 -0.10545921001E+03  0.18594922219E+03  0.12500545581E+03 0.  0.
          2    1    1    2  501    0 -0.51663335246E+02 -0.31247287303E+02 -0.79305807032E+03  0.79535312665E+03  0.00000000000E+00 0. -1.
          1    1    1    2  502    0 -0.32592970183E+02  0.58265415875E+02  0.65666061913E+03  0.66004570229E+03  0.00000000000E+00 0. -1.
         22    1    3    3    0    0  0.29037904439E+02 -0.27872883281E+02 -0.12186402319E+03  0.12833915094E+03  0.00000000000E+00 0.  1.
         22    1    3    3    0    0  0.55218400990E+02  0.85475470893E+00  0.16404813184E+02  0.57610071247E+02  0.00000000000E+00 0.  1.
</event>
<event>
 7    1  0.5553952E-006  0.2616741E+03  0.7818608E-02  0.1174431E+00
          2   -1    0    0  502    0  0.00000000000E+00  0.00000000000E+00  0.51451431728E+03  0.51451431728E+03  0.00000000000E+00 0. -1.
          1   -1    0    0  501    0 -0.00000000000E+00 -0.00000000000E+00 -0.91287854909E+03  0.91287854909E+03  0.00000000000E+00 0. -1.
         25    2    1    2    0    0  0.97492724950E+01 -0.17925043542E+03 -0.45050862690E+03  0.50081227673E+03  0.12501658567E+03 0.  0.
          2    1    1    2  501    0 -0.82785597311E+02 -0.79528761017E+02 -0.39140524829E+03  0.40789256838E+03  0.00000000000E+00 0. -1.
          1    1    1    2  502    0  0.73036324816E+02  0.25877919644E+03  0.44354964338E+03  0.51868802126E+03  0.00000000000E+00 0. -1.
         22    1    3    3    0    0 -0.12584856399E+01 -0.17195401794E+03 -0.45535699916E+03  0.48674404440E+03  0.00000000000E+00 0.  1.
         22    1    3    3    0    0  0.11007758135E+02 -0.72964174812E+01  0.48483722591E+01  0.14068232326E+02  0.00000000000E+00 0.  1.
</event>
<event>
 7    1  0.7560522E-006  0.6424511E+02  0.7818608E-02  0.1389758E+00
          2   -1    0    0  502    0  0.00000000000E+00  0.00000000000E+00  0.59619406564E+03  0.59619406564E+03  0.00000000000E+00 0. -1.
          1   -1    0    0  501    0 -0.00000000000E+00 -0.00000000000E+00 -0.16562274630E+04  0.16562274630E+04  0.00000000000E+00 0. -1.
         25    2    1    2    0    0 -0.91796146997E+02  0.78252477316E+02 -0.52042473266E+03  0.54865022019E+03  0.12500071576E+03 0.  0.
          2    1    1    2  501    0  0.44875221909E+02 -0.41227720803E+02 -0.11193246796E+04  0.11209822697E+04  0.00000000000E+00 0. -1.
          1    1    1    2  502    0  0.46920925088E+02 -0.37024756513E+02  0.57971601491E+03  0.58278903880E+03  0.00000000000E+00 0. -1.
         22    1    3    3    0    0  0.14509395470E+02 -0.11190200635E+02 -0.12783612672E+02  0.22341976191E+02  0.00000000000E+00 0. -1.
         22    1    3    3    0    0 -0.10630554247E+03  0.89442677951E+02 -0.50764111998E+03  0.52630824400E+03  0.00000000000E+00 0. -1.
</event>
<event>
 7    1  0.5756336E-006  0.9617831E+02  0.7818608E-02  0.1370950E+00
          2   -1    0    0  502    0  0.00000000000E+00  0.00000000000E+00  0.28491549163E+04  0.28491549163E+04  0.00000000000E+00 0. -1.
          1   -1    0    0  501    0 -0.00000000000E+00 -0.00000000000E+00 -0.23448948416E+04  0.23448948416E+04  0.00000000000E+00 0. -1.
         25    2    1    2    0    0  0.68354876781E+02 -0.35635560137E+02 -0.26696252929E+03  0.30469043999E+03  0.12499995940E+03 0.  0.
          2    1    1    2  501    0 -0.55763309770E+02  0.80439530952E+02 -0.20577136968E+04  0.20600402236E+04  0.00000000000E+00 0. -1.
          1    1    1    2  502    0 -0.12591567011E+02 -0.44803970815E+02  0.28289363008E+04  0.28293190943E+04  0.00000000000E+00 0. -1.
         22    1    3    3    0    0  0.67499658578E+02  0.49618638328E+00 -0.25903998240E+03  0.26769042305E+03  0.00000000000E+00 0. -1.
         22    1    3    3    0    0  0.85521820286E+00 -0.36131746520E+02 -0.79225468932E+01  0.37000016947E+02  0.00000000000E+00 0. -1.
</event>
<event>
 7    1  0.5553952E-006  0.4329120E+02  0.7818608E-02  0.1527860E+00
          2   -1    0    0  502    0  0.00000000000E+00  0.00000000000E+00  0.92574548889E+03  0.92574548889E+03  0.00000000000E+00 0. -1.
          1   -1    0    0  501    0 -0.00000000000E+00 -0.00000000000E+00 -0.22085268700E+02  0.22085268700E+02  0.00000000000E+00 0. -1.
         25    2    1    2    0    0 -0.42773242909E+02 -0.14119057850E+01  0.25967165063E+03  0.29135202835E+03  0.12500037798E+03 0.  0.
          2    1    1    2  501    0  0.35313892371E+02 -0.30114962794E+02  0.87488693098E+02  0.99036626550E+02  0.00000000000E+00 0. -1.
          1    1    1    2  502    0  0.74593505380E+01  0.31526868579E+02  0.55649987646E+03  0.55744210269E+03  0.00000000000E+00 0. -1.
         22    1    3    3    0    0 -0.95205517828E+00  0.42675429518E+02  0.20568278741E+03  0.21006548439E+03  0.00000000000E+00 0. -1.
         22    1    3    3    0    0 -0.41821187730E+02 -0.44087335303E+02  0.53988863217E+02  0.81286543959E+02  0.00000000000E+00 0. -1.
</event>
<event>
 7    1  0.5553952E-006  0.7153905E+02  0.7818608E-02  0.1488033E+00
          2   -1    0    0  502    0  0.00000000000E+00  0.00000000000E+00  0.89786467952E+03  0.89786467952E+03  0.00000000000E+00 0. -1.
          1   -1    0    0  501    0 -0.00000000000E+00 -0.00000000000E+00 -0.80852816578E+02  0.80852816578E+02  0.00000000000E+00 0. -1.
         25    2    1    2    0    0 -0.36329000206E+02 -0.37603349323E+02  0.68260572982E+03  0.69592210853E+03  0.12499276228E+03 0.  0.
          2    1    1    2  501    0  0.34579715298E+02  0.63244730811E+02 -0.55616165754E+02  0.91042905152E+02  0.00000000000E+00 0. -1.
          1    1    1    2  502    0  0.17492849082E+01 -0.25641381488E+02  0.19002229888E+03  0.19175248242E+03  0.00000000000E+00 0. -1.
         22    1    3    3    0    0 -0.14963395887E+02 -0.33550160304E+02  0.66955074051E+03  0.67055776081E+03  0.00000000000E+00 0.  1.
         22    1    3    3    0    0 -0.21365604319E+02 -0.40531890189E+01  0.13054989312E+02  0.25364347716E+02  0.00000000000E+00 0.  1.
</event>
<event>
 7    1  0.5553952E-006  0.1506680E+03  0.7818608E-02  0.1362225E+00
          2   -1    0    0  502    0  0.00000000000E+00  0.00000000000E+00  0.40241813614E+03  0.40241813614E+03  0.00000000000E+00 0. -1.
          1   -1    0    0  501    0 -0.00000000000E+00 -0.00000000000E+00 -0.32184255643E+03  0.32184255643E+03  0.00000000000E+00 0. -1.
         25    2    1    2    0    0  0.14188438965E+03  0.94862479636E+01 -0.11043192759E+02  0.18965298300E+03  0.12500053171E+03 0.  0.
          2    1    1    2  501    0  0.52280769006E+01  0.31514682560E+02 -0.20153932750E+03  0.20405540555E+03  0.00000000000E+00 0. -1.
          1    1    1    2  502    0 -0.14711246655E+03 -0.41000930523E+02  0.29315809996E+03  0.33055230402E+03  0.00000000000E+00 0. -1.
         22    1    3    3    0    0  0.33125607426E+01 -0.54114063297E+01 -0.45618742953E+02  0.46057855853E+02  0.00000000000E+00 0.  1.
         22    1    3    3    0    0  0.13857182891E+03  0.14897654293E+02  0.34575550194E+02  0.14359512715E+03  0.00000000000E+00 0.  1.
</event>
<event>
 7    1  0.5553952E-006  0.1140684E+03  0.7818608E-02  0.1390060E+00
          2   -1    0    0  502    0  0.00000000000E+00  0.00000000000E+00  0.93781952467E+03  0.93781952467E+03  0.00000000000E+00 0. -1.
          1   -1    0    0  501    0 -0.00000000000E+00 -0.00000000000E+00 -0.41107585378E+03  0.41107585378E+03  0.00000000000E+00 0. -1.
         25    2    1    2    0    0  0.93845835512E+01 -0.11111775894E+03 -0.81128952319E+02  0.18612263965E+03  0.12499801328E+03 0.  0.
          2    1    1    2  501    0  0.33195547506E+02  0.50764354537E+01 -0.27272861100E+03  0.27478830002E+03  0.00000000000E+00 0. -1.
          1    1    1    2  502    0 -0.42580131058E+02  0.10604132349E+03  0.88060123420E+03  0.88798443879E+03  0.00000000000E+00 0. -1.
         22    1    3    3    0    0 -0.56899264619E+02 -0.36930963373E+02 -0.28536898072E+02  0.73591962342E+02  0.00000000000E+00 0. -1.
         22    1    3    3    0    0  0.66283848170E+02 -0.74186795566E+02 -0.52592054248E+02  0.11253067730E+03  0.00000000000E+00 0. -1.
</event>
<event>
 7    1  0.5553952E-006  0.7204714E+02  0.7818608E-02  0.1440617E+00
          2   -1    0    0  502    0  0.00000000000E+00  0.00000000000E+00  0.24784714288E+04  0.24784714288E+04  0.00000000000E+00 0. -1.
          1   -1    0    0  501    0 -0.00000000000E+00 -0.00000000000E+00 -0.16496959586E+03  0.16496959586E+03  0.00000000000E+00 0. -1.
         25    2    1    2    0    0  0.26194187885E+02 -0.59531460727E+02  0.98211786997E+03  0.99217557495E+03  0.12500692263E+03 0.  0.
          2    1    1    2  501    0  0.75973029941E+01  0.71774568150E+02 -0.15156934860E+03  0.16787666628E+03  0.00000000000E+00 0. -1.
          1    1    1    2  502    0 -0.33791490879E+02 -0.12243107423E+02  0.14829533116E+04  0.14833887835E+04  0.00000000000E+00 0. -1.
         22    1    3    3    0    0 -0.49428773023E+02 -0.15537248859E+02  0.29576953663E+03  0.30027358942E+03  0.00000000000E+00 0.  1.
         22    1    3    3    0    0  0.75622960908E+02 -0.43994211869E+02  0.68634833334E+03  0.69190198553E+03  0.00000000000E+00 0.  1.
</event>
<event>
 7    1  0.5553952E-006  0.9371348E+02  0.7818608E-02  0.1309092E+00
          2   -1    0    0  502    0  0.00000000000E+00  0.00000000000E+00  0.11957188587E+03  0.11957188587E+03  0.00000000000E+00 0. -1.
          1   -1    0    0  501    0 -0.00000000000E+00 -0.00000000000E+00 -0.92795893002E+03  0.92795893002E+03  0.00000000000E+00 0. -1.
         25    2    1    2    0    0 -0.43237383863E+02 -0.13934758530E+02 -0.58782320826E+03  0.60268138398E+03  0.12500031025E+03 0.  0.
          2    1    1    2  501    0  0.19411778126E+02 -0.79304479623E+02 -0.30566654081E+03  0.31638276152E+03  0.00000000000E+00 0. -1.
          1    1    1    2  502    0  0.23825605737E+02  0.93239238153E+02  0.85102704915E+02  0.12846667040E+03  0.00000000000E+00 0. -1.
         22    1    3    3    0    0  0.19025832951E+02 -0.34531098339E+02 -0.42959973515E+03  0.43140504344E+03  0.00000000000E+00 0.  1.
         22    1    3    3    0    0 -0.62263216813E+02  0.20596339809E+02 -0.15822347311E+03  0.17127634053E+03  0.00000000000E+00 0.  1.
</event>
<event>
 7    1  0.5553952E-006  0.3697908E+02  0.7818608E-02  0.1583485E+00
          2   -1    0    0  502    0  0.00000000000E+00  0.00000000000E+00  0.16872337369E+03  0.16872337369E+03  0.00000000000E+00 0. -1.
          1   -1    0    0  501    0 -0.00000000000E+00 -0.00000000000E+00 -0.87439546254E+02  0.87439546254E+02  0.00000000000E+00 0. -1.
         25    2    1    2    0    0  0.39997996899E+02 -0.33657946526E+01  0.57406393399E+02  0.14328948106E+03  0.12500085220E+03 0.  0.
          2    1    1    2  501    0 -0.26601548847E+02  0.26347560300E+02 -0.33111290903E+02  0.49981935937E+02  0.00000000000E+00 0. -1.
          1    1    1    2  502    0 -0.13396448052E+02 -0.22981765647E+02  0.56988724941E+02  0.62891502948E+02  0.00000000000E+00 0. -1.
         22    1    3    3    0    0  0.15982160214E+01  0.46147639656E+02  0.65468470637E+02  0.80114165962E+02  0.00000000000E+00 0. -1.
         22    1    3    3    0    0  0.38399780877E+02 -0.49513434309E+02 -0.80620772377E+01  0.63175315099E+02  0.00000000000E+00 0. -1.
</event>
<event>
 7    1  0.5553952E-006  0.9715598E+02  0.7818608E-02  0.1433704E+00
          2   -1    0    0  502    0  0.00000000000E+00  0.00000000000E+00  0.12618436770E+04  0.12618436770E+04  0.00000000000E+00 0. -1.
          1   -1    0    0  501    0 -0.00000000000E+00 -0.00000000000E+00 -0.58776645300E+03  0.58776645300E+03  0.00000000000E+00 0. -1.
         25    2    1    2    0    0  0.47258740568E+02  0.10206861360E+03  0.35599356341E+02  0.17188246748E+03  0.12499951205E+03 0.  0.
          2    1    1    2  501    0 -0.27074365358E+02 -0.74153176617E+01 -0.51722164482E+03  0.51798285499E+03  0.00000000000E+00 0. -1.
          1    1    1    2  502    0 -0.20184375211E+02 -0.94653295938E+02  0.11556995124E+04  0.11597448075E+04  0.00000000000E+00 0. -1.
         22    1    3    3    0    0 -0.38121304548E+01  0.37418932794E+02 -0.43612908177E+02  0.57591619440E+02  0.00000000000E+00 0.  1.
         22    1    3    3    0    0  0.51070871023E+02  0.64649680806E+02  0.79212264518E+02  0.11429084804E+03  0.00000000000E+00 0.  1.
</event>
<event>
 7    1  0.5553952E-006  0.3565472E+02  0.7818608E-02  0.1602523E+00
          2   -1    0    0  502    0  0.00000000000E+00  0.00000000000E+00  0.50970085706E+02  0.50970085706E+02  0.00000000000E+00 0. -1.
          1   -1    0    0  501    0 -0.00000000000E+00 -0.00000000000E+00 -0.10571552364E+04  0.10571552364E+04  0.00000000000E+00 0. -1.
         25    2    1    2    0    0  0.41862168432E+02 -0.36201279881E+02 -0.10463206460E+03  0.17215278265E+03  0.12500295125E+03 0.  0.
          2    1    1    2  501    0 -0.11704589369E+02  0.21611864272E+02 -0.90213160209E+03  0.90246634152E+03  0.00000000000E+00 0. -1.
          1    1    1    2  502    0 -0.30157579063E+02  0.14589415609E+02  0.57851594801E+00  0.33506197985E+02  0.00000000000E+00 0. -1.
         22    1    3    3    0    0  0.17676360169E+02 -0.82531669813E+02 -0.62590103363E+02  0.10507831018E+03  0.00000000000E+00 0. -1.
         22    1    3    3    0    0  0.24185808263E+02  0.46330389932E+02 -0.42041961240E+02  0.67074472472E+02  0.00000000000E+00 0. -1.
</event>
<event>
 7    1  0.5553952E-006  0.8279827E+02  0.7818608E-02  0.1356882E+00
          2   -1    0    0  502    0  0.00000000000E+00  0.00000000000E+00  0.61353316763E+03  0.61353316763E+03  0.00000000000E+00 0. -1.
          1   -1    0    0  501    0 -0.00000000000E+00 -0.00000000000E+00 -0.67270086869E+03  0.67270086869E+03  0.00000000000E+00 0. -1.
         25    2    1    2    0    0 -0.18634904461E+02 -0.19918038618E+02  0.61822182660E+02  0.14209418376E+03  0.12499914745E+03 0.  0.
          2    1    1    2  501    0 -0.39346778442E+02 -0.46354861120E+02 -0.62729476116E+03  0.63023460671E+03  0.00000000000E+00 0. -1.
          1    1    1    2  502    0  0.57981682903E+02  0.66272899738E+02  0.50630487744E+03  0.51390524585E+03  0.00000000000E+00 0. -1.
         22    1    3    3    0    0  0.30026256096E+02  0.11627230966E+02  0.75874906164E+02  0.82424328572E+02  0.00000000000E+00 0.  1.
         22    1    3    3    0    0 -0.48661160557E+02 -0.31545269584E+02 -0.14052723505E+02  0.59669855185E+02  0.00000000000E+00 0.  1.
</event>
<event>
 7    1  0.5553952E-006  0.7492440E+02  0.7818608E-02  0.1513517E+00
          2   -1    0    0  502    0  0.00000000000E+00  0.00000000000E+00  0.87756465274E+03  0.87756465274E+03  0.00000000000E+00 0. -1.
          1   -1    0    0  501    0 -0.00000000000E+00 -0.00000000000E+00 -0.82495898681E+03  0.82495898681E+03  0.00000000000E+00 0. -1.
         25    2    1    2    0    0  0.21450972516E+02  0.52991941072E+02  0.14217735748E+03  0.19775692258E+03  0.12500043763E+03 0.  0.
          2    1    1    2  501    0 -0.12927823451E+01  0.20560810791E+02 -0.79498040327E+03  0.79524729475E+03  0.00000000000E+00 0. -1.
          1    1    1    2  502    0 -0.20158190171E+02 -0.73552751863E+02  0.70540871172E+03  0.70951942222E+03  0.00000000000E+00 0. -1.
         22    1    3    3    0    0 -0.28344698554E+01 -0.39340349733E+02  0.59917337968E+02  0.71734125252E+02  0.00000000000E+00 0.  1.
         22    1    3    3    0    0  0.24285442372E+02  0.92332290805E+02  0.82260019510E+02  0.12602279733E+03  0.00000000000E+00 0.  1.
</event>
<event>
 7    1  0.7541289E-006  0.8732685E+02  0.7818608E-02  0.1334786E+00
          2   -1    0    0  502    0  0.00000000000E+00  0.00000000000E+00  0.22242058887E+04  0.22242058887E+04  0.00000000000E+00 0. -1.
          1   -1    0    0  501    0 -0.00000000000E+00 -0.00000000000E+00 -0.15873958404E+04  0.15873958404E+04  0.00000000000E+00 0. -1.
         25    2    1    2    0    0  0.11534051346E+03 -0.49818631580E+02 -0.10222046816E+03  0.20462630296E+03  0.12505026851E+03 0.  0.
          2    1    1    2  501    0 -0.66077813678E+02 -0.22154718241E+02 -0.14322496348E+04  0.14339442546E+04  0.00000000000E+00 0. -1.
          1    1    1    2  502    0 -0.49262699784E+02  0.71973349821E+02  0.21712801513E+04  0.21730311715E+04  0.00000000000E+00 0. -1.
         22    1    3    3    0    0 -0.64391956567E+01 -0.46819625463E+02 -0.27211037546E+01  0.47338620331E+02  0.00000000000E+00 0. -1.
         22    1    3    3    0    0  0.12177970912E+03 -0.29990061171E+01 -0.99499364408E+02  0.15728768263E+03  0.00000000000E+00 0. -1.
</event>
<event>
 7    1  0.5553952E-006  0.8873860E+02  0.7818608E-02  0.1462736E+00
          2   -1    0    0  502    0  0.00000000000E+00  0.00000000000E+00  0.21510427620E+04  0.21510427620E+04  0.00000000000E+00 0. -1.
          1   -1    0    0  501    0 -0.00000000000E+00 -0.00000000000E+00 -0.28119512836E+03  0.28119512836E+03  0.00000000000E+00 0. -1.
         25    2    1    2    0    0 -0.49137922877E+02 -0.95042489332E+02 -0.16100237090E+02  0.16531824586E+03  0.12499317796E+03 0.  0.
          2    1    1    2  501    0 -0.43108768141E+01  0.24424563629E+02 -0.18872979224E+03  0.19035250838E+03  0.00000000000E+00 0. -1.
          1    1    1    2  502    0  0.53448799691E+02  0.70617925702E+02  0.20746776630E+04  0.20765671361E+04  0.00000000000E+00 0. -1.
         22    1    3    3    0    0  0.25054216250E+02 -0.54570068549E+02  0.32035675650E+02  0.68057994738E+02  0.00000000000E+00 0.  1.
         22    1    3    3    0    0 -0.74192139127E+02 -0.40472420783E+02 -0.48135912740E+02  0.97260251118E+02  0.00000000000E+00 0.  1.
</event>
<event>
 7    1  0.5553952E-006  0.5658437E+02  0.7818608E-02  0.1424415E+00
          2   -1    0    0  502    0  0.00000000000E+00  0.00000000000E+00  0.12887892321E+03  0.12887892321E+03  0.00000000000E+00 0. -1.
          1   -1    0    0  501    0 -0.00000000000E+00 -0.00000000000E+00 -0.30149245410E+03  0.30149245410E+03  0.00000000000E+00 0. -1.
         25    2    1    2    0    0  0.13058332025E+02  0.48962529916E+02 -0.20823919034E+03  0.24811984806E+03  0.12502819377E+03 0.  0.
          2    1    1    2  501    0  0.41602626276E+02 -0.30727885574E+02 -0.54592466733E+02  0.75201854292E+02  0.00000000000E+00 0. -1.
          1    1    1    2  502    0 -0.54660958302E+02 -0.18234644341E+02  0.90218126182E+02  0.10704967496E+03  0.00000000000E+00 0. -1.
         22    1    3    3    0    0 -0.29980719355E+02  0.46831933087E+02 -0.19539687869E+03  0.20315514685E+03  0.00000000000E+00 0.  1.
         22    1    3    3    0    0  0.43039051380E+02  0.21305968289E+01 -0.12842311649E+02  0.44964701211E+02  0.00000000000E+00 0.  1.
</event>
<event>
 7    1  0.5553952E-006  0.1673438E+03  0.7818608E-02  0.1310606E+00
          2   -1    0    0  502    0  0.00000000000E+00  0.00000000000E+00  0.15775550313E+04  0.15775550313E+04  0.00000000000E+00 0. -1.
          1   -1    0    0  501    0 -0.00000000000E+00 -0.00000000000E+00 -0.13319020050E+04  0.13319020050E+04  0.00000000000E+00 0. -1.
         25    2    1    2    0    0 -0.11157258607E+03  0.85450899607E+02 -0.20256497080E+03  0.27641937191E+03  0.12499921425E+03 0.  0.
          2    1    1    2  501    0 -0.41771350976E+02 -0.17000392775E+02 -0.10873650042E+04  0.10882998261E+04  0.00000000000E+00 0. -1.
          1    1    1    2  502    0  0.15334393705E+03 -0.68450506831E+02  0.15355830014E+04  0.15447378383E+04  0.00000000000E+00 0. -1.
         22    1    3    3    0    0 -0.13479419380E+03  0.70147670172E+02 -0.19571200406E+03  0.24777683275E+03  0.00000000000E+00 0. -1.
         22    1    3    3    0    0  0.23221607725E+02  0.15303229435E+02 -0.68529667396E+01  0.28642539162E+02  0.00000000000E+00 0. -1.
</event>
<event>
 7    1  0.5553952E-006  0.4931736E+02  0.7818608E-02  0.1517132E+00
          2   -1    0    0  502    0  0.00000000000E+00  0.00000000000E+00  0.19647452775E+02  0.19647452775E+02  0.00000000000E+00 0. -1.
          1   -1    0    0  501    0 -0.00000000000E+00 -0.00000000000E+00 -0.28209851826E+04  0.28209851826E+04  0.00000000000E+00 0. -1.
         25    2    1    2    0    0  0.64153186350E+02 -0.15458927631E+02 -0.31490087226E+03  0.34516902543E+03  0.12499794800E+03 0.  0.
          2    1    1    2  501    0 -0.48020138765E+02 -0.10479358031E+02 -0.24360150789E+04  0.24365108691E+04  0.00000000000E+00 0. -1.
          1    1    1    2  502    0 -0.16133047585E+02  0.25938285663E+02 -0.50421778639E+02  0.58952740807E+02  0.00000000000E+00 0. -1.
         22    1    3    3    0    0  0.27966673355E+02  0.13453175331E+02 -0.45324317108E+01  0.31363444999E+02  0.00000000000E+00 0. -1.
         22    1    3    3    0    0  0.36186512996E+02 -0.28912102962E+02 -0.31036844055E+03  0.31380558043E+03  0.00000000000E+00 0. -1.
</event>
<event>
 7    1  0.5553952E-006  0.5983588E+02  0.7818608E-02  0.1444186E+00
          2   -1    0    0  502    0  0.00000000000E+00  0.00000000000E+00  0.28421989813E+04  0.28421989813E+04  0.00000000000E+00 0. -1.
          1   -1    0    0  501    0 -0.00000000000E+00 -0.00000000000E+00 -0.80589590102E+02  0.80589590102E+02  0.00000000000E+00 0. -1.
         25    2    1    2    0    0 -0.35370207282E+02 -0.11949103223E+02  0.94240241194E+02  0.16093775912E+03  0.12500362642E+03 0.  0.
          2    1    1    2  501    0  0.76364617011E+01 -0.41443252465E+02 -0.37441364282E+02  0.56371220330E+02  0.00000000000E+00 0. -1.
          1    1    1    2  502    0  0.27733745581E+02  0.53392355688E+02  0.27048105143E+04  0.27054795920E+04  0.00000000000E+00 0. -1.
         22    1    3    3    0    0 -0.22266457886E+02  0.17932881164E+01 -0.28796063744E+02  0.36444811925E+02  0.00000000000E+00 0. -1.
         22    1    3    3    0    0 -0.13103749396E+02 -0.13742391339E+02  0.12303630494E+03  0.12449294719E+03  0.00000000000E+00 0. -1.
</event>
<event>
 7    1  0.5553952E-006  0.1052535E+03  0.7818608E-02  0.1283482E+00
          2   -1    0    0  502    0  0.00000000000E+00  0.00000000000E+00  0.30410850783E+03  0.30410850783E+03  0.00000000000E+00 0. -1.
          1   -1    0    0  501    0 -0.00000000000E+00 -0.00000000000E+00 -0.72899584701E+03  0.72899584701E+03  0.00000000000E+00 0. -1.
         25    2    1    2    0    0 -0.80493461519E+02  0.63272559768E+02  0.48509155475E+02  0.16870412132E+03  0.12500131287E+03 0.  0.
          2    1    1    2  501    0  0.76628484934E+02  0.51236321356E+02 -0.64856827741E+03  0.65508617433E+03  0.00000000000E+00 0. -1.
          1    1    1    2  502    0  0.38649765848E+01 -0.11450888112E+03  0.17517178276E+03  0.20931405919E+03  0.00000000000E+00 0. -1.
         22    1    3    3    0    0 -0.35780661018E+02  0.39908211135E+02 -0.39963763904E+02  0.66858233930E+02  0.00000000000E+00 0. -1.
         22    1    3    3    0    0 -0.44712800501E+02  0.23364348633E+02  0.88472919379E+02  0.10184588739E+03  0.00000000000E+00 0. -1.
</event>
<event>
 7    1  0.5553952E-006  0.3815349E+03  0.7818608E-02  0.1227397E+00
          2   -1    0    0  502    0  0.00000000000E+00  0.00000000000E+00  0.26481053853E+04  0.26481053853E+04  0.00000000000E+00 0. -1.
          1   -1    0    0  501    0 -0.00000000000E+00 -0.00000000000E+00 -0.51155077655E+03  0.51155077655E+03  0.00000000000E+00 0. -1.
         25    2    1    2    0    0 -0.11397558720E+03 -0.39046326225E+03  0.19389542631E+03  0.46762408199E+03  0.12499940826E+03 0.  0.
          2    1    1    2  501    0  0.40089674437E+02  0.18900529061E+02 -0.35782705792E+03  0.36056152786E+03  0.00000000000E+00 0. -1.
          1    1    1    2  502    0  0.73885912766E+02  0.37156273319E+03  0.23004862404E+04  0.23314705520E+04  0.00000000000E+00 0. -1.
         22    1    3    3    0    0 -0.11341928369E+03 -0.22910308020E+03  0.16341791097E+03  0.30340990244E+03  0.00000000000E+00 0. -1.
         22    1    3    3    0    0 -0.55630351019E+00 -0.16136018205E+03  0.30477515339E+02  0.16421417955E+03  0.00000000000E+00 0. -1.
</event>
<event>
 7    1  0.5553952E-006  0.6933215E+02  0.7818608E-02  0.1396442E+00
          2   -1    0    0  502    0  0.00000000000E+00  0.00000000000E+00  0.15420952034E+04  0.15420952034E+04  0.00000000000E+00 0. -1.
          1   -1    0    0  501    0 -0.00000000000E+00 -0.00000000000E+00 -0.65340159853E+03  0.65340159853E+03  0.00000000000E+00 0. -1.
         25    2    1    2    0    0  0.24756979210E+02  0.22041693246E+02  0.75010453642E+02  0.14949965356E+03  0.12499933599E+03 0.  0.
          2    1    1    2  501    0  0.45521640437E+02 -0.26155573535E+02 -0.61416985426E+03  0.61640972060E+03  0.00000000000E+00 0. -1.
          1    1    1    2  502    0 -0.70278619647E+02  0.41138802890E+01  0.14278530055E+04  0.14295874278E+04  0.00000000000E+00 0. -1.
         22    1    3    3    0    0  0.19507592026E+02  0.69503974405E+02  0.71522179645E+02  0.10162072026E+03  0.00000000000E+00 0. -1.
         22    1    3    3    0    0  0.52493871846E+01 -0.47462281159E+02  0.34882739973E+01  0.47878933302E+02  0.00000000000E+00 0. -1.
</event>
<event>
 7    1  0.5553952E-006  0.6744229E+02  0.7818608E-02  0.1382984E+00
          2   -1    0    0  502    0  0.00000000000E+00  0.00000000000E+00  0.45719029399E+03  0.45719029399E+03  0.00000000000E+00 0. -1.
          1   -1    0    0  501    0 -0.00000000000E+00 -0.00000000000E+00 -0.26133977041E+04  0.26133977041E+04  0.00000000000E+00 0. -1.
         25    2    1    2    0    0 -0.46685167573E+02 -0.78466898588E+02  0.15854378904E+03  0.22157977751E+03  0.12499962286E+03 0.  0.
          2    1    1    2  501    0  0.64115748297E+02  0.20909703404E+02 -0.25780484003E+04  0.25789303207E+04  0.00000000000E+00 0. -1.
          1    1    1    2  502    0 -0.17430580724E+02  0.57557195184E+02  0.26329720115E+03  0.27007789986E+03  0.00000000000E+00 0. -1.
         22    1    3    3    0    0 -0.82892532586E+02 -0.23342767119E+02  0.10994264645E+03  0.13965472511E+03  0.00000000000E+00 0. -1.
         22    1    3    3    0    0  0.36207365013E+02 -0.55124131469E+02  0.48601142582E+02  0.81925052406E+02  0.00000000000E+00 0. -1.
</event>
<event>
 7    1  0.5553952E-006  0.6627299E+02  0.7818608E-02  0.1505859E+00
          2   -1    0    0  502    0  0.00000000000E+00  0.00000000000E+00  0.78333487697E+03  0.78333487697E+03  0.00000000000E+00 0. -1.
          1   -1    0    0  501    0 -0.00000000000E+00 -0.00000000000E+00 -0.65999254377E+03  0.65999254377E+03  0.00000000000E+00 0. -1.
         25    2    1    2    0    0 -0.34140517352E+02 -0.63419501039E+02  0.41299007406E+03  0.43745413461E+03  0.12497083891E+03 0.  0.
          2    1    1    2  501    0  0.49378607369E+02  0.44193668817E+02 -0.64564245649E+03  0.64903428942E+03  0.00000000000E+00 0. -1.
          1    1    1    2  502    0 -0.15238090017E+02  0.19225832222E+02  0.35599471564E+03  0.35683899671E+03  0.00000000000E+00 0. -1.
         22    1    3    3    0    0 -0.25073480729E+02 -0.83888303745E+02  0.40391825824E+03  0.41329878573E+03  0.00000000000E+00 0.  1.
         22    1    3    3    0    0 -0.90670366223E+01  0.20468802706E+02  0.90718158115E+01  0.24155348878E+02  0.00000000000E+00 0.  1.
</event>
<event>
 7    1  0.5553952E-006  0.7487141E+02  0.7818608E-02  0.1496092E+00
          2   -1    0    0  502    0  0.00000000000E+00  0.00000000000E+00  0.14855785623E+04  0.14855785623E+04  0.00000000000E+00 0. -1.
          1   -1    0    0  501    0 -0.00000000000E+00 -0.00000000000E+00 -0.45615934101E+03  0.45615934101E+03  0.00000000000E+00 0. -1.
         25    2    1    2    0    0 -0.37929728042E+02 -0.57914785998E+02 -0.46741461648E+02  0.15034250181E+03  0.12500126762E+03 0.  0.
          2    1    1    2  501    0  0.18210988414E+02 -0.14405987540E+02 -0.35625936954E+03  0.35701528113E+03  0.00000000000E+00 0. -1.
          1    1    1    2  502    0  0.19718739628E+02  0.72320773538E+02  0.14324200525E+04  0.14343801204E+04  0.00000000000E+00 0. -1.
         22    1    3    3    0    0 -0.31689523931E+02 -0.57763688231E+02  0.30674038409E+02  0.72675761003E+02  0.00000000000E+00 0. -1.
         22    1    3    3    0    0 -0.62402041111E+01 -0.15109776692E+00 -0.77415500057E+02  0.77666740803E+02  0.00000000000E+00 0. -1.
</event>
<event>
 7    1  0.5553952E-006  0.5943455E+02  0.7818608E-02  0.1412369E+00
          2   -1    0    0  502    0  0.00000000000E+00  0.00000000000E+00  0.89114443216E+03  0.89114443216E+03  0.00000000000E+00 0. -1.
          1   -1    0    0  501    0 -0.00000000000E+00 -0.00000000000E+00 -0.27203310745E+04  0.27203310745E+04  0.00000000000E+00 0. -1.
         25    2    1    2    0    0 -0.53014870695E+01  0.19247521853E+01  0.19313662895E+03  0.23012700842E+03  0.12499948849E+03 0.  0.
          2    1    1    2  501    0  0.59047979914E+02 -0.74660593507E+01 -0.27004333825E+04  0.27010891987E+04  0.00000000000E+00 0. -1.
          1    1    1    2  502    0 -0.53746492845E+02  0.55413071655E+01  0.67811011125E+03  0.68025929950E+03  0.00000000000E+00 0. -1.
         22    1    3    3    0    0 -0.61073891955E+02 -0.20597463526E+02  0.89356550194E+02  0.11017653491E+03  0.00000000000E+00 0.  1.
         22    1    3    3    0    0  0.55772404885E+02  0.22522215711E+02  0.10378007876E+03  0.11995047351E+03  0.00000000000E+00 0.  1.
</event>
<event>
 7    1  0.5553952E-006  0.6273119E+02  0.7818608E-02  0.1403196E+00
          2   -1    0    0  502    0  0.00000000000E+00  0.00000000000E+00  0.25874940307E+04  0.25874940307E+04  0.00000000000E+00 0. -1.
          1   -1    0    0  501    0 -0.00000000000E+00 -0.00000000000E+00 -0.67960593848E+03  0.67960593848E+03  0.00000000000E+00 0. -1.
         25    2    1    2    0    0 -0.71512353770E+02 -0.57652682562E+02  0.48457978657E+03  0.50880266761E+03  0.12499894586E+03 0.  0.
          2    1    1    2  501    0  0.54952738384E+02 -0.23487757926E+01 -0.66589710461E+03  0.66816485550E+03  0.00000000000E+00 0. -1.
          1    1    1    2  502    0  0.16559615386E+02  0.60001458354E+02  0.20892054102E+04  0.20901324460E+04  0.00000000000E+00 0. -1.
         22    1    3    3    0    0  0.10873013503E+02 -0.35056256836E+02  0.33127842675E+03  0.33330550490E+03  0.00000000000E+00 0. -1.
         22    1    3    3    0    0 -0.82385367273E+02 -0.22596425726E+02  0.15330135982E+03  0.17549716271E+03  0.00000000000E+00 0. -1.
</event>
<event>
 7    1  0.5553952E-006  0.1077629E+03  0.7818608E-02  0.1385011E+00
          2   -1    0    0  502    0  0.00000000000E+00  0.00000000000E+00  0.35580065557E+03  0.35580065557E+03  0.00000000000E+00 0. -1.
          1   -1    0    0  501    0 -0.00000000000E+00 -0.00000000000E+00 -0.43158929447E+03  0.43158929447E+03  0.00000000000E+00 0. -1.
         25    2    1    2    0    0  0.85528274890E+02 -0.23922329766E+01 -0.35833372302E+02  0.15565474796E+03  0.12499424550E+03 0.  0.
          2    1    1    2  501    0  0.19696387026E+02 -0.31349761655E+02 -0.32443858830E+03  0.32654425856E+03  0.00000000000E+00 0. -1.
          1    1    1    2  502    0 -0.10522466192E+03  0.33741994631E+02  0.28448332171E+03  0.30519094352E+03  0.00000000000E+00 0. -1.
         22    1    3    3    0    0  0.80138383821E+02  0.52102579277E+02 -0.13586490676E+02  0.96547563707E+02  0.00000000000E+00 0. -1.
         22    1    3    3    0    0  0.53898910692E+01 -0.54494812254E+02 -0.22246881625E+02  0.59107184253E+02  0.00000000000E+00 0. -1.
</event>
<event>
 7    1  0.5553952E-006  0.1493764E+03  0.7818608E-02  0.1271675E+00
          2   -1    0    0  502    0  0.00000000000E+00  0.00000000000E+00  0.57689073934E+03  0.57689073934E+03  0.00000000000E+00 0. -1.
          1   -1    0    0  501    0 -0.00000000000E+00 -0.00000000000E+00 -0.31762697309E+04  0.31762697309E+04  0.00000000000E+00 0. -1.
         25    2    1    2    0    0  0.10464007042E+03  0.18525540895E+03 -0.88823208958E+03  0.92187344618E+03  0.12500117965E+03 0.  0.
          2    1    1    2  501    0 -0.78190486589E+02 -0.11753014471E+03 -0.22666522918E+04  0.22710437466E+04  0.00000000000E+00 0. -1.
          1    1    1    2  502    0 -0.26449583834E+02 -0.67725264240E+02  0.55550538979E+03  0.56024327750E+03  0.00000000000E+00 0. -1.
         22    1    3    3    0    0 -0.29012869551E+02  0.38084374406E+02 -0.18237436294E+03  0.18855390325E+03  0.00000000000E+00 0.  1.
         22    1    3    3    0    0  0.13365293997E+03  0.14717103454E+03 -0.70585772664E+03  0.73331954292E+03  0.00000000000E+00 0.  1.
</event>
<event>
 7    1  0.5553952E-006  0.7517066E+02  0.7818608E-02  0.1393566E+00
          2   -1    0    0  502    0  0.00000000000E+00  0.00000000000E+00  0.45752968280E+02  0.45752968280E+02  0.00000000000E+00 0. -1.
          1   -1    0    0  501    0 -0.00000000000E+00 -0.00000000000E+00 -0.13841625506E+04  0.13841625506E+04  0.00000000000E+00 0. -1.
         25    2    1    2    0    0  0.11250065555E+02 -0.11734852413E+03 -0.42586850382E+03  0.45922357445E+03  0.12500027476E+03 0.  0.
          2    1    1    2  501    0 -0.20682253193E+02  0.68707794927E+02 -0.91804099935E+03  0.92084080772E+03  0.00000000000E+00 0. -1.
          1    1    1    2  502    0  0.94321876373E+01  0.48640729202E+02  0.54999208605E+01  0.49851136701E+02  0.00000000000E+00 0. -1.
         22    1    3    3    0    0  0.29525029354E+02 -0.26634023158E+01 -0.16980891990E+02  0.34163895607E+02  0.00000000000E+00 0.  1.
         22    1    3    3    0    0 -0.18274963798E+02 -0.11468512181E+03 -0.40888761183E+03  0.42505967884E+03  0.00000000000E+00 0.  1.
</event>
<event>
 7    1  0.5553952E-006  0.8347584E+02  0.7818608E-02  0.1365790E+00
          2   -1    0    0  502    0  0.00000000000E+00  0.00000000000E+00  0.11715503311E+04  0.11715503311E+04  0.00000000000E+00 0. -1.
          1   -1    0    0  501    0 -0.00000000000E+00 -0.00000000000E+00 -0.38049522670E+03  0.38049522670E+03  0.00000000000E+00 0. -1.
         25    2    1    2    0    0 -0.11648428571E+03  0.67658128350E+02  0.55823753554E+02  0.19205941130E+03  0.12499725940E+03 0.  0.
          2    1    1    2  501    0  0.62856940165E+02 -0.51643569843E+02 -0.30631679814E+03  0.31693537836E+03  0.00000000000E+00 0. -1.
          1    1    1    2  502    0  0.53627345544E+02 -0.16014558507E+02  0.10415481490E+04  0.10430507681E+04  0.00000000000E+00 0. -1.
         22    1    3    3    0    0  0.11183717916E+02 -0.12740469303E+02  0.36124423226E+02  0.39904499219E+02  0.00000000000E+00 0.  1.
         22    1    3    3    0    0 -0.12766800362E+03  0.80398597653E+02  0.19699330327E+02  0.15215491208E+03  0.00000000000E+00 0.  1.
</event>
<event>
 7    1  0.5553952E-006  0.6925039E+02  0.7818608E-02  0.1492238E+00
          2   -1    0    0  502    0  0.00000000000E+00  0.00000000000E+00  0.11053614697E+04  0.11053614697E+04  0.00000000000E+00 0. -1.
          1   -1    0    0  501    0 -0.00000000000E+00 -0.00000000000E+00 -0.54887565997E+03  0.54887565997E+03  0.00000000000E+00 0. -1.
         25    2    1    2    0    0 -0.38855854276E+02  0.23855084990E+02  0.15798770837E+03  0.20655598760E+03  0.12500566997E+03 0.  0.
          2    1    1    2  501    0 -0.16778103982E+02  0.19578447853E+02 -0.52292424384E+03  0.52355953356E+03  0.00000000000E+00 0. -1.
          1    1    1    2  502    0  0.55633958258E+02 -0.43433532843E+02  0.92142234523E+03  0.92412160854E+03  0.00000000000E+00 0. -1.
         22    1    3    3    0    0 -0.13346840871E+02 -0.43426637083E+02  0.11275758385E+03  0.12156596434E+03  0.00000000000E+00 0.  1.
         22    1    3    3    0    0 -0.25509013405E+02  0.67281722072E+02  0.45230124523E+02  0.84990023263E+02  0.00000000000E+00 0.  1.
</event>
<event>
 7    1  0.5553952E-006  0.1086637E+03  0.7818608E-02  0.1459514E+00
          2   -1    0    0  502    0  0.00000000000E+00  0.00000000000E+00  0.20151597565E+04  0.20151597565E+04  0.00000000000E+00 0. -1.
          1   -1    0    0  501    0 -0.00000000000E+00 -0.00000000000E+00 -0.32847609503E+03  0.32847609503E+03  0.00000000000E+00 0. -1.
         25    2    1    2    0    0  0.12180376954E+03  0.40253352977E+02  0.23277947732E+03  0.29371392159E+03  0.12500036788E+03 0.  0.
          2    1    1    2  501    0 -0.20061088708E+02 -0.52360185312E+01 -0.29599374388E+03  0.29671899094E+03  0.00000000000E+00 0. -1.
          1    1    1    2  502    0 -0.10174268083E+03 -0.35017334446E+02  0.17498979280E+04  0.17532029390E+04  0.00000000000E+00 0. -1.
         22    1    3    3    0    0 -0.85567733782E+01 -0.29047229267E+02  0.53438898649E+02  0.61422111553E+02  0.00000000000E+00 0.  1.
         22    1    3    3    0    0  0.13036054292E+03  0.69300582244E+02  0.17934057868E+03  0.23229181003E+03  0.00000000000E+00 0.  1.
</event>
<event>
 7    1  0.5553952E-006  0.1996263E+03  0.7818608E-02  0.1236982E+00
          2   -1    0    0  502    0  0.00000000000E+00  0.00000000000E+00  0.13165243052E+04  0.13165243052E+04  0.00000000000E+00 0. -1.
          1   -1    0    0  501    0 -0.00000000000E+00 -0.00000000000E+00 -0.32259022930E+03  0.32259022930E+03  0.00000000000E+00 0. -1.
         25    2    1    2    0    0 -0.49556984168E+02 -0.25816644063E+03  0.15424822496E+03  0.32943157057E+03  0.12500735595E+03 0.  0.
          2    1    1    2  501    0  0.41125607656E+02  0.64808055082E+02 -0.21972123385E+03  0.23274196058E+03  0.00000000000E+00 0. -1.
          1    1    1    2  502    0  0.84313765121E+01  0.19335838555E+03  0.10594070848E+04  0.10769410034E+04  0.00000000000E+00 0. -1.
         22    1    3    3    0    0  0.16907062419E+02 -0.10884870584E+03  0.85645259794E+01  0.11048638209E+03  0.00000000000E+00 0.  1.
         22    1    3    3    0    0 -0.66464046587E+02 -0.14931773480E+03  0.14568369898E+03  0.21894518849E+03  0.00000000000E+00 0.  1.
</event>
<event>
 7    1  0.5553952E-006  0.1619911E+03  0.7818608E-02  0.1240645E+00
          2   -1    0    0  502    0  0.00000000000E+00  0.00000000000E+00  0.91553953493E+03  0.91553953493E+03  0.00000000000E+00 0. -1.
          1   -1    0    0  501    0 -0.00000000000E+00 -0.00000000000E+00 -0.28294729011E+03  0.28294729011E+03  0.00000000000E+00 0. -1.
         25    2    1    2    0    0  0.20581240153E+03  0.37420887521E+02  0.31533152997E+03  0.39851951840E+03  0.12499906121E+03 0.  0.
          2    1    1    2  501    0 -0.78072196065E+02  0.46999744880E+02 -0.22168989483E+03  0.23968865907E+03  0.00000000000E+00 0. -1.
          1    1    1    2  502    0 -0.12774020546E+03 -0.84420632401E+02  0.53895060967E+03  0.56027864757E+03  0.00000000000E+00 0. -1.
         22    1    3    3    0    0  0.19048028561E+03 -0.13012938842E+02  0.24371677875E+03  0.30959642122E+03  0.00000000000E+00 0.  1.
         22    1    3    3    0    0  0.15332115916E+02  0.50433826364E+02  0.71614751220E+02  0.88923097182E+02  0.00000000000E+00 0.  1.
</event>
<event>
 7    1  0.5553952E-006  0.1173321E+03  0.7818608E-02  0.1291829E+00
          2   -1    0    0  502    0  0.00000000000E+00  0.00000000000E+00  0.41479696155E+03  0.41479696155E+03  0.00000000000E+00 0. -1.
          1   -1    0    0  501    0 -0.00000000000E+00 -0.00000000000E+00 -0.79022080485E+03  0.79022080485E+03  0.00000000000E+00 0. -1.
         25    2    1    2    0    0  0.14718087375E+03 -0.11371152924E+03 -0.38368035662E+02  0.22735242684E+03  0.12499799337E+03 0.  0.
          2    1    1    2  501    0 -0.49480767028E+02  0.58278414783E+02 -0.64518529562E+03  0.64969899617E+03  0.00000000000E+00 0. -1.
          1    1    1    2  502    0 -0.97700106727E+02  0.55433114453E+02  0.30812948798E+03  0.32796634339E+03  0.00000000000E+00 0. -1.
         22    1    3    3    0    0 -0.22105554871E+01 -0.30826280234E+02  0.30247496428E+02  0.43244157395E+02  0.00000000000E+00 0.  1.
         22    1    3    3    0    0  0.14939142924E+03 -0.82885249003E+02 -0.68615532090E+02  0.18410826944E+03  0.00000000000E+00 0.  1.
</event>
<event>
 7    1  0.5553952E-006  0.3684979E+02  0.7818608E-02  0.1607613E+00
          2   -1    0    0  502    0  0.00000000000E+00  0.00000000000E+00  0.37705249498E+03  0.37705249498E+03  0.00000000000E+00 0. -1.
          1   -1    0    0  501    0 -0.00000000000E+00 -0.00000000000E+00 -0.88203307329E+02  0.88203307329E+02  0.00000000000E+00 0. -1.
         25    2    1    2    0    0 -0.19953174990E+02 -0.21092614402E+02  0.27487929648E+03  0.30335960757E+03  0.12500158519E+03 0.  0.
          2    1    1    2  501    0  0.31928805301E+01  0.36942840266E+02 -0.67613663349E+02  0.77114041552E+02  0.00000000000E+00 0. -1.
          1    1    1    2  502    0  0.16760294460E+02 -0.15850225865E+02  0.81583554520E+02  0.84782153184E+02  0.00000000000E+00 0. -1.
         22    1    3    3    0    0  0.64948734024E+01 -0.32328030777E+02  0.27254162652E+03  0.27452909343E+03  0.00000000000E+00 0.  1.
         22    1    3    3    0    0 -0.26448048393E+02  0.11235416375E+02  0.23376699622E+01  0.28830514143E+02  0.00000000000E+00 0.  1.
</event>
<event>
 7    1  0.5553952E-006  0.2292308E+02  0.7818608E-02  0.1707653E+00
          2   -1    0    0  502    0  0.00000000000E+00  0.00000000000E+00  0.84139860399E+03  0.84139860399E+03  0.00000000000E+00 0. -1.
          1   -1    0    0  501    0 -0.00000000000E+00 -0.00000000000E+00 -0.31487543702E+03  0.31487543702E+03  0.00000000000E+00 0. -1.
         25    2    1    2    0    0  0.13586773094E+01  0.43549727086E+02 -0.57270036304E+02  0.14423223955E+03  0.12499862853E+03 0.  0.
          2    1    1    2  501    0  0.16395905066E+01 -0.22582363821E+02 -0.21338469624E+03  0.21458257152E+03  0.00000000000E+00 0. -1.
          1    1    1    2  502    0 -0.29982678160E+01 -0.20967363265E+02  0.79717789951E+03  0.79745922993E+03  0.00000000000E+00 0. -1.
         22    1    3    3    0    0 -0.21263850312E+02 -0.29948136430E+02  0.14074328138E+02  0.39333559695E+02  0.00000000000E+00 0. -1.
         22    1    3    3    0    0  0.22622527622E+02  0.73497863516E+02 -0.71344364443E+02  0.10489867985E+03  0.00000000000E+00 0. -1.
</event>
<event>
 7    1  0.5553952E-006  0.1350490E+03  0.7818608E-02  0.1358143E+00
          2   -1    0    0  502    0  0.00000000000E+00  0.00000000000E+00  0.10558135553E+04  0.10558135553E+04  0.00000000000E+00 0. -1.
          1   -1    0    0  501    0 -0.00000000000E+00 -0.00000000000E+00 -0.58209508323E+03  0.58209508323E+03  0.00000000000E+00 0. -1.
         25    2    1    2    0    0  0.10209827862E+03  0.13747144857E+03 -0.19830414557E+03  0.29029717075E+03  0.12500182208E+03 0.  0.
          2    1    1    2  501    0 -0.20891999975E+02 -0.30395813208E+02 -0.33229855221E+03  0.33433921236E+03  0.00000000000E+00 0. -1.
          1    1    1    2  502    0 -0.81206278647E+02 -0.10707563537E+03  0.10043211698E+04  0.10132722554E+04  0.00000000000E+00 0. -1.
         22    1    3    3    0    0  0.86688906982E+02  0.33777739623E+02 -0.41964099069E+02  0.10206315642E+03  0.00000000000E+00 0. -1.
         22    1    3    3    0    0  0.15409371640E+02  0.10369370895E+03 -0.15634004650E+03  0.18823401433E+03  0.00000000000E+00 0. -1.
</event>
<event>
 7    1  0.5553952E-006  0.1022207E+03  0.7818608E-02  0.1336191E+00
          2   -1    0    0  502    0  0.00000000000E+00  0.00000000000E+00  0.11786714901E+04  0.11786714901E+04  0.00000000000E+00 0. -1.
          1   -1    0    0  501    0 -0.00000000000E+00 -0.00000000000E+00 -0.21808369644E+03  0.21808369644E+03  0.00000000000E+00 0. -1.
         25    2    1    2    0    0  0.13933303946E+03  0.67095698083E+02 -0.31357012243E+02  0.20130536197E+03  0.12500023183E+03 0.  0.
          2    1    1    2  501    0 -0.41314231366E+02 -0.41858179084E+02 -0.90691660528E+02  0.10809232239E+03  0.00000000000E+00 0. -1.
          1    1    1    2  502    0 -0.98018808089E+02 -0.25237519000E+02  0.10826364664E+04  0.10873575022E+04  0.00000000000E+00 0. -1.
         22    1    3    3    0    0  0.15613353139E+03  0.48075111094E+02 -0.31989377068E+01  0.16339868156E+03  0.00000000000E+00 0.  1.
         22    1    3    3    0    0 -0.16800491938E+02  0.19020586989E+02 -0.28158074536E+02  0.37906680418E+02  0.00000000000E+00 0.  1.
</event>
<event>
 7    1  0.5553952E-006  0.1151135E+03  0.7818608E-02  0.1288231E+00
          2   -1    0    0  502    0  0.00000000000E+00  0.00000000000E+00  0.65226734657E+03  0.65226734657E+03  0.00000000000E+00 0. -1.
          1   -1    0    0  501    0 -0.00000000000E+00 -0.00000000000E+00 -0.10973981162E+03  0.10973981162E+03  0.00000000000E+00 0. -1.
         25    2    1    2    0    0  0.51724448130E+02 -0.59024457516E+02  0.27821167959E+03  0.31493773085E+03  0.12499892213E+03 0.  0.
          2    1    1    2  501    0  0.93899752381E+01 -0.80045804832E+02 -0.52176412497E+02  0.96009793913E+02  0.00000000000E+00 0. -1.
          1    1    1    2  502    0 -0.61114423369E+02  0.13907026235E+03  0.31649226786E+03  0.35105963343E+03  0.00000000000E+00 0. -1.
         22    1    3    3    0    0 -0.20231640678E+02 -0.48692567174E+02  0.20536011064E+03  0.21202136785E+03  0.00000000000E+00 0. -1.
         22    1    3    3    0    0  0.71956088808E+02 -0.10331890342E+02  0.72851568944E+02  0.10291636300E+03  0.00000000000E+00 0. -1.
</event>
<event>
 7    1  0.5553952E-006  0.3583297E+02  0.7818608E-02  0.1571685E+00
          2   -1    0    0  502    0  0.00000000000E+00  0.00000000000E+00  0.13295840937E+04  0.13295840937E+04  0.00000000000E+00 0. -1.
          1   -1    0    0  501    0 -0.00000000000E+00 -0.00000000000E+00 -0.36215474025E+02  0.36215474025E+02  0.00000000000E+00 0. -1.
         25    2    1    2    0    0 -0.15626196769E+02 -0.69976025987E+01  0.58395429208E+03  0.59743066500E+03  0.12501055865E+03 0.  0.
          2    1    1    2  501    0  0.50911900962E+01 -0.29091410061E+02 -0.21473409023E+02  0.36514896289E+02  0.00000000000E+00 0. -1.
          1    1    1    2  502    0  0.10535006673E+02  0.36089012659E+02  0.73088773666E+03  0.73185400648E+03  0.00000000000E+00 0. -1.
         22    1    3    3    0    0  0.39399733524E+02 -0.32173801858E+01  0.46076370121E+03  0.46245635350E+03  0.00000000000E+00 0. -1.
         22    1    3    3    0    0 -0.55025930293E+02 -0.37802224129E+01  0.12319059087E+03  0.13497431150E+03  0.00000000000E+00 0. -1.
</event>
<event>
 7    1  0.5553952E-006  0.1249899E+03  0.7818608E-02  0.1316243E+00
          2   -1    0    0  502    0  0.00000000000E+00  0.00000000000E+00  0.17666674400E+04  0.17666674400E+04  0.00000000000E+00 0. -1.
          1   -1    0    0  501    0 -0.00000000000E+00 -0.00000000000E+00 -0.48302648528E+03  0.48302648528E+03  0.00000000000E+00 0. -1.
         25    2    1    2    0    0 -0.17007158469E+03 -0.52691916612E+02  0.63489603212E+03  0.67113311720E+03  0.12500362957E+03 0.  0.
          2    1    1    2  501    0  0.12265364631E+03  0.20371982118E+02 -0.45583689139E+03  0.47248937148E+03  0.00000000000E+00 0. -1.
          1    1    1    2  502    0  0.47417938378E+02  0.32319934494E+02  0.11045818140E+04  0.11060714366E+04  0.00000000000E+00 0. -1.
         22    1    3    3    0    0  0.67148821577E+01 -0.66398657620E+01 -0.10180013019E+01  0.94980938288E+01  0.00000000000E+00 0. -1.
         22    1    3    3    0    0 -0.17678646685E+03 -0.46052050850E+02  0.63591403343E+03  0.66163502337E+03  0.00000000000E+00 0. -1.
</event>
<event>
 7    1  0.5553952E-006  0.1842668E+03  0.7818608E-02  0.1308606E+00
          2   -1    0    0  502    0  0.00000000000E+00  0.00000000000E+00  0.11426276619E+04  0.11426276619E+04  0.00000000000E+00 0. -1.
          1   -1    0    0  501    0 -0.00000000000E+00 -0.00000000000E+00 -0.82951034636E+03  0.82951034636E+03  0.00000000000E+00 0. -1.
         25    2    1    2    0    0 -0.12890336811E+03  0.13982820479E+03 -0.11465915892E+03  0.25483011727E+03  0.12499464298E+03 0.  0.
          2    1    1    2  501    0  0.36772094615E+02  0.19679429462E+02 -0.63616885189E+03  0.63753452848E+03  0.00000000000E+00 0. -1.
          1    1    1    2  502    0  0.92131273498E+02 -0.15950763425E+03  0.10639453264E+04  0.10797733626E+04  0.00000000000E+00 0. -1.
         22    1    3    3    0    0 -0.97574978450E+02  0.11715357663E+03 -0.21514804438E+02  0.15397637399E+03  0.00000000000E+00 0.  1.
         22    1    3    3    0    0 -0.31328389663E+02  0.22674628167E+02 -0.93144354484E+02  0.10085374328E+03  0.00000000000E+00 0.  1.
</event>
<event>
 7    1  0.5553952E-006  0.4792508E+02  0.7818608E-02  0.1555819E+00
          2   -1    0    0  502    0  0.00000000000E+00  0.00000000000E+00  0.17986428553E+04  0.17986428553E+04  0.00000000000E+00 0. -1.
          1   -1    0    0  501    0 -0.00000000000E+00 -0.00000000000E+00 -0.24806940249E+02  0.24806940249E+02  0.00000000000E+00 0. -1.
         25    2    1    2    0    0 -0.65865409970E+01 -0.62718025405E+02  0.10596466399E+04  0.10688558533E+04  0.12499960184E+03 0.  0.
          2    1    1    2  501    0 -0.12556184559E+02  0.20928367603E+02 -0.11829333779E+02  0.27121716001E+02  0.00000000000E+00 0. -1.
          1    1    1    2  502    0  0.19142725556E+02  0.41789657803E+02  0.72601860898E+03  0.72747222629E+03  0.00000000000E+00 0. -1.
         22    1    3    3    0    0 -0.43682001867E+02 -0.58034354188E+02  0.31480299124E+03  0.32307433641E+03  0.00000000000E+00 0. -1.
         22    1    3    3    0    0  0.37095460870E+02 -0.46836712178E+01  0.74484364866E+03  0.74578151689E+03  0.00000000000E+00 0. -1.
</event>
<event>
 7    1  0.5553952E-006  0.5608963E+02  0.7818608E-02  0.1429243E+00
          2   -1    0    0  502    0  0.00000000000E+00  0.00000000000E+00  0.71169683519E+03  0.71169683519E+03  0.00000000000E+00 0. -1.
          1   -1    0    0  501    0 -0.00000000000E+00 -0.00000000000E+00 -0.93627488126E+02  0.93627488126E+02  0.00000000000E+00 0. -1.
         25    2    1    2    0    0 -0.23670637254E+02 -0.19414105275E+02  0.37703044808E+03  0.39839017506E+03  0.12500226498E+03 0.  0.
          2    1    1    2  501    0 -0.10667773145E+02  0.56159884462E+02 -0.70839163198E+02  0.91027034716E+02  0.00000000000E+00 0. -1.
          1    1    1    2  502    0  0.34338410399E+02 -0.36745779187E+02  0.31187806217E+03  0.31590711353E+03  0.00000000000E+00 0. -1.
         22    1    3    3    0    0 -0.74849666202E+02 -0.18174201791E+02  0.20941009778E+03  0.22312633908E+03  0.00000000000E+00 0.  1.
         22    1    3    3    0    0  0.51179028948E+02 -0.12399034840E+01  0.16762035031E+03  0.17526383598E+03  0.00000000000E+00 0.  1.
</event>
<event>
 7    1  0.5553952E-006  0.1261527E+03  0.7818608E-02  0.1259278E+00
          2   -1    0    0  502    0  0.00000000000E+00  0.00000000000E+00  0.16388277430E+04  0.16388277430E+04  0.00000000000E+00 0. -1.
          1   -1    0    0  501    0 -0.00000000000E+00 -0.00000000000E+00 -0.11614816229E+03  0.11614816229E+03  0.00000000000E+00 0. -1.
         25    2    1    2    0    0  0.11070892900E+03 -0.14151368907E+03  0.56680236712E+03  0.60759552744E+03  0.12499924175E+03 0.  0.
          2    1    1    2  501    0 -0.15332246260E+02  0.12308548900E+03 -0.52243655608E+02  0.13459017397E+03  0.00000000000E+00 0. -1.
          1    1    1    2  502    0 -0.95376682736E+02  0.18428200068E+02  0.10081208692E+04  0.10127902039E+04  0.00000000000E+00 0. -1.
         22    1    3    3    0    0  0.95626568233E+02 -0.15115039323E+03  0.56093448811E+03  0.58876003761E+03  0.00000000000E+00 0.  1.
         22    1    3    3    0    0  0.15082360764E+02  0.96367041578E+01  0.58678790042E+01  0.18835489833E+02  0.00000000000E+00 0.  1.
</event>
<event>
 7    1  0.5553952E-006  0.6834988E+02  0.7818608E-02  0.1382903E+00
          2   -1    0    0  502    0  0.00000000000E+00  0.00000000000E+00  0.20927702061E+03  0.20927702061E+03  0.00000000000E+00 0. -1.
          1   -1    0    0  501    0 -0.00000000000E+00 -0.00000000000E+00 -0.47550338570E+03  0.47550338570E+03  0.00000000000E+00 0. -1.
         25    2    1    2    0    0 -0.16406425627E+02  0.11682294700E+03  0.25985540347E+02  0.17383614331E+03  0.12500793841E+03 0.  0.
          2    1    1    2  501    0 -0.13779881034E+02 -0.65689319349E+02 -0.39043805830E+03  0.39616517914E+03  0.00000000000E+00 0. -1.
          1    1    1    2  502    0  0.30186306661E+02 -0.51133627653E+02  0.98226152858E+02  0.11477908386E+03  0.00000000000E+00 0. -1.
         22    1    3    3    0    0 -0.41335671594E+02 -0.98917476916E+01  0.10389693102E+02  0.43754201413E+02  0.00000000000E+00 0. -1.
         22    1    3    3    0    0  0.24929245968E+02  0.12671469469E+03  0.15595847245E+02  0.13008194190E+03  0.00000000000E+00 0. -1.
</event>
<event>
 7    1  0.5553952E-006  0.2208384E+03  0.7818608E-02  0.1212237E+00
          2   -1    0    0  502    0  0.00000000000E+00  0.00000000000E+00  0.43855667741E+02  0.43855667741E+02  0.00000000000E+00 0. -1.
          1   -1    0    0  501    0 -0.00000000000E+00 -0.00000000000E+00 -0.22470633569E+04  0.22470633569E+04  0.00000000000E+00 0. -1.
         25    2    1    2    0    0 -0.13687942160E+03 -0.98961690997E+02 -0.53109873428E+03  0.57115602858E+03  0.12499580427E+03 0.  0.
          2    1    1    2  501    0  0.16634240586E+03  0.18377833859E+03 -0.15412870286E+04  0.15610925592E+04  0.00000000000E+00 0. -1.
          1    1    1    2  502    0 -0.29462984265E+02 -0.84816647594E+02 -0.13082192624E+03  0.15867043687E+03  0.00000000000E+00 0. -1.
         22    1    3    3    0    0 -0.15154145742E+03 -0.67584545769E+02 -0.49042453702E+03  0.51773420850E+03  0.00000000000E+00 0. -1.
         22    1    3    3    0    0  0.14662035829E+02 -0.31377145228E+02 -0.40674197266E+02  0.53421820078E+02  0.00000000000E+00 0. -1.
</event>
<event>
 7    1  0.5553952E-006  0.2243763E+03  0.7818608E-02  0.1272972E+00
          2   -1    0    0  502    0  0.00000000000E+00  0.00000000000E+00  0.60074324474E+02  0.60074324474E+02  0.00000000000E+00 0. -1.
          1   -1    0    0  501    0 -0.00000000000E+00 -0.00000000000E+00 -0.42772143493E+04  0.42772143493E+04  0.00000000000E+00 0. -1.
         25    2    1    2    0    0  0.11512396221E+03 -0.16340708499E+03 -0.14347488357E+04  0.14539891236E+04  0.12499899112E+03 0.  0.
          2    1    1    2  501    0 -0.10979975097E+03  0.21091259394E+03 -0.28152618704E+04  0.28252857389E+04  0.00000000000E+00 0. -1.
          1    1    1    2  502    0 -0.53242112408E+01 -0.47505508951E+02  0.32870681319E+02  0.58013811256E+02  0.00000000000E+00 0. -1.
         22    1    3    3    0    0  0.65816690576E+02 -0.30521932168E+02 -0.23626052928E+03  0.24714866538E+03  0.00000000000E+00 0. -1.
         22    1    3    3    0    0  0.49307271638E+02 -0.13288515282E+03 -0.11984883064E+04  0.12068404582E+04  0.00000000000E+00 0. -1.
</event>
<event>
 7    1  0.5553952E-006  0.3599357E+02  0.7818608E-02  0.1617420E+00
          2   -1    0    0  502    0  0.00000000000E+00  0.00000000000E+00  0.16076951696E+04  0.16076951696E+04  0.00000000000E+00 0. -1.
          1   -1    0    0  501    0 -0.00000000000E+00 -0.00000000000E+00 -0.15729985890E+04  0.15729985890E+04  0.00000000000E+00 0. -1.
         25    2    1    2    0    0 -0.47985316554E+02  0.28569099994E+02  0.63452581787E+03  0.64912758518E+03  0.12499929686E+03 0.  0.
          2    1    1    2  501    0  0.34261551858E+02 -0.11011620374E+02 -0.15653623275E+04  0.15657759502E+04  0.00000000000E+00 0. -1.
          1    1    1    2  502    0  0.13723764696E+02 -0.17557479620E+02  0.96553309027E+03  0.96579022320E+03  0.00000000000E+00 0. -1.
         22    1    3    3    0    0 -0.73397177567E+01 -0.40102505908E+02  0.90224403784E+02  0.99007704120E+02  0.00000000000E+00 0. -1.
         22    1    3    3    0    0 -0.40645598798E+02  0.68671605902E+02  0.54430141409E+03  0.55011988106E+03  0.00000000000E+00 0. -1.
</event>
<event>
 7    1  0.1190199E-005  0.9508366E+02  0.7818608E-02  0.1347411E+00
          2   -1    0    0  502    0  0.00000000000E+00  0.00000000000E+00  0.21646642441E+04  0.21646642441E+04  0.00000000000E+00 0. -1.
          1   -1    0    0  501    0 -0.00000000000E+00 -0.00000000000E+00 -0.55903273121E+03  0.55903273121E+03  0.00000000000E+00 0. -1.
         25    2    1    2    0    0 -0.31191109303E+02  0.10649429529E+03 -0.23054827376E+03  0.28476343275E+03  0.12499514337E+03 0.  0.
          2    1    1    2  501    0  0.55505873707E+02 -0.14571923507E+02 -0.29757666737E+03  0.30305959139E+03  0.00000000000E+00 0. -1.
          1    1    1    2  502    0 -0.24314764404E+02 -0.91922371781E+02  0.21337564540E+04  0.21358739512E+04  0.00000000000E+00 0. -1.
         22    1    3    3    0    0 -0.25072304897E+02 -0.14948049055E+02 -0.10897414481E+03  0.11281590704E+03  0.00000000000E+00 0. -1.
         22    1    3    3    0    0 -0.61188044058E+01  0.12144234434E+03 -0.12157412895E+03  0.17194752571E+03  0.00000000000E+00 0. -1.
</event>
<event>
 7    1  0.5553952E-006  0.3177063E+02  0.7818608E-02  0.1596517E+00
          2   -1    0    0  502    0  0.00000000000E+00  0.00000000000E+00  0.42531886543E+03  0.42531886543E+03  0.00000000000E+00 0. -1.
          1   -1    0    0  501    0 -0.00000000000E+00 -0.00000000000E+00 -0.89766407449E+03  0.89766407449E+03  0.00000000000E+00 0. -1.
         25    2    1    2    0    0 -0.51602748919E+01  0.42170817705E+01  0.62562352102E+02  0.13993992987E+03  0.12499889542E+03 0.  0.
          2    1    1    2  501    0 -0.25807620252E+01 -0.31747575473E+02 -0.85804828131E+03  0.85863928511E+03  0.00000000000E+00 0. -1.
          1    1    1    2  502    0  0.77410369171E+01  0.27530493702E+02  0.32314072015E+03  0.32440372494E+03  0.00000000000E+00 0. -1.
         22    1    3    3    0    0  0.27206169721E+02  0.19186564691E+01  0.92104748936E+02  0.96058012108E+02  0.00000000000E+00 0. -1.
         22    1    3    3    0    0 -0.32366444613E+02  0.22984253013E+01 -0.29542396834E+02  0.43881917761E+02  0.00000000000E+00 0. -1.
</event>
<event>
 7    1  0.5553952E-006  0.9076954E+02  0.7818608E-02  0.1306078E+00
          2   -1    0    0  502    0  0.00000000000E+00  0.00000000000E+00  0.32494966910E+03  0.32494966910E+03  0.00000000000E+00 0. -1.
          1   -1    0    0  501    0 -0.00000000000E+00 -0.00000000000E+00 -0.61665542967E+03  0.61665542967E+03  0.00000000000E+00 0. -1.
         25    2    1    2    0    0 -0.52408015055E+02  0.88207160351E+02 -0.15644178964E+03  0.22500063489E+03  0.12499659585E+03 0.  0.
          2    1    1    2  501    0  0.86588236852E+02 -0.29925013978E+01 -0.41408689623E+03  0.42305370280E+03  0.00000000000E+00 0. -1.
          1    1    1    2  502    0 -0.34180221797E+02 -0.85214658954E+02  0.27882292529E+03  0.29355076108E+03  0.00000000000E+00 0. -1.
         22    1    3    3    0    0  0.33235001099E+02  0.50246109077E+02 -0.29073729305E+02  0.66891841888E+02  0.00000000000E+00 0. -1.
         22    1    3    3    0    0 -0.85643016154E+02  0.37961051274E+02 -0.12736806033E+03  0.15810879300E+03  0.00000000000E+00 0. -1.
</event>
<event>
 7    1  0.5553952E-006  0.1134117E+03  0.7818608E-02  0.1375379E+00
          2   -1    0    0  502    0  0.00000000000E+00  0.00000000000E+00  0.94907664375E+03  0.94907664375E+03  0.00000000000E+00 0. -1.
          1   -1    0    0  501    0 -0.00000000000E+00 -0.00000000000E+00 -0.54445744894E+03  0.54445744894E+03  0.00000000000E+00 0. -1.
         25    2    1    2    0    0  0.13624423749E+03  0.13568417868E+02 -0.34422731524E+03  0.39097829239E+03  0.12499994538E+03 0.  0.
          2    1    1    2  501    0 -0.99302540320E+02 -0.44369441854E+01 -0.16245890140E+03  0.19045623023E+03  0.00000000000E+00 0. -1.
          1    1    1    2  502    0 -0.36941697174E+02 -0.91314736828E+01  0.91130541145E+03  0.91209957008E+03  0.00000000000E+00 0. -1.
         22    1    3    3    0    0  0.80207349213E+02 -0.10701251581E+02 -0.61246348660E+02  0.10148325417E+03  0.00000000000E+00 0. -1.
         22    1    3    3    0    0  0.56036888280E+02  0.24269669449E+02 -0.28298096658E+03  0.28949503821E+03  0.00000000000E+00 0. -1.
</event>
<event>
 7    1  0.5553952E-006  0.7209324E+02  0.7818608E-02  0.1448896E+00
          2   -1    0    0  502    0  0.00000000000E+00  0.00000000000E+00  0.63361122866E+03  0.63361122866E+03  0.00000000000E+00 0. -1.
          1   -1    0    0  501    0 -0.00000000000E+00 -0.00000000000E+00 -0.24646589227E+03  0.24646589227E+03  0.00000000000E+00 0. -1.
         25    2    1    2    0    0  0.99136890383E+02  0.18067874889E+02 -0.69097335627E+02  0.17480065632E+03  0.12500502598E+03 0.  0.
          2    1    1    2  501    0 -0.66530185184E+02 -0.92526269917E+01 -0.11492274742E+03  0.13311316434E+03  0.00000000000E+00 0. -1.
          1    1    1    2  502    0 -0.32606705199E+02 -0.88152478972E+01  0.57116541943E+03  0.57216330027E+03  0.00000000000E+00 0. -1.
         22    1    3    3    0    0  0.84204437311E+02  0.10071923883E+01 -0.10360459913E+03  0.13351147763E+03  0.00000000000E+00 0. -1.
         22    1    3    3    0    0  0.14932453072E+02  0.17060682501E+02  0.34507263502E+02  0.41289178685E+02  0.00000000000E+00 0. -1.
</event>
<event>
 7    1  0.5553952E-006  0.7423308E+02  0.7818608E-02  0.1469322E+00
          2   -1    0    0  502    0  0.00000000000E+00  0.00000000000E+00  0.31273476831E+02  0.31273476831E+02  0.00000000000E+00 0. -1.
          1   -1    0    0  501    0 -0.00000000000E+00 -0.00000000000E+00 -0.24863689007E+04  0.24863689007E+04  0.00000000000E+00 0. -1.
         25    2    1    2    0    0  0.87280154855E+01  0.51125147599E+02 -0.34890922390E+03  0.37423848366E+03  0.12500734840E+03 0.  0.
          2    1    1    2  501    0  0.59890934871E+01 -0.75268043241E+02 -0.21129763954E+04  0.21143250448E+04  0.00000000000E+00 0. -1.
          1    1    1    2  502    0 -0.14717108973E+02  0.24142895642E+02  0.67901954728E+01  0.29078849032E+02  0.00000000000E+00 0. -1.
         22    1    3    3    0    0  0.35044688012E+02  0.75431769577E+02 -0.31161925871E+03  0.32252851722E+03  0.00000000000E+00 0.  1.
         22    1    3    3    0    0 -0.26316672527E+02 -0.24306621978E+02 -0.37289965190E+02  0.51709966436E+02  0.00000000000E+00 0.  1.
</event>
<event>
 7    1  0.5553952E-006  0.6256525E+02  0.7818608E-02  0.1453876E+00
          2   -1    0    0  502    0  0.00000000000E+00  0.00000000000E+00  0.46646772916E+03  0.46646772916E+03  0.00000000000E+00 0. -1.
          1   -1    0    0  501    0 -0.00000000000E+00 -0.00000000000E+00 -0.16836786624E+04  0.16836786624E+04  0.00000000000E+00 0. -1.
         25    2    1    2    0    0  0.39020929982E+02 -0.18633562391E+02 -0.27015943800E+03  0.30080025938E+03  0.12499932592E+03 0.  0.
          2    1    1    2  501    0 -0.63019257998E+02 -0.10210435274E+02 -0.13966882304E+04  0.13981465205E+04  0.00000000000E+00 0. -1.
          1    1    1    2  502    0  0.23998328016E+02  0.28843997665E+02  0.44963673517E+03  0.45119961166E+03  0.00000000000E+00 0. -1.
         22    1    3    3    0    0  0.54923284579E+02  0.20314979741E+02 -0.24473733095E+03  0.25164583595E+03  0.00000000000E+00 0.  1.
         22    1    3    3    0    0 -0.15902354597E+02 -0.38948542132E+02 -0.25422107042E+02  0.49154423427E+02  0.00000000000E+00 0.  1.
</event>
<event>
 7    1  0.5553952E-006  0.5578051E+02  0.7818608E-02  0.1481486E+00
          2   -1    0    0  502    0  0.00000000000E+00  0.00000000000E+00  0.65854005353E+03  0.65854005353E+03  0.00000000000E+00 0. -1.
          1   -1    0    0  501    0 -0.00000000000E+00 -0.00000000000E+00 -0.31540732987E+03  0.31540732987E+03  0.00000000000E+00 0. -1.
         25    2    1    2    0    0 -0.19907185681E+02 -0.85611159048E+02  0.41087691285E+03  0.43837213620E+03  0.12499890273E+03 0.  0.
          2    1    1    2  501    0  0.30236717079E+01  0.55511639320E+02 -0.29780025680E+03  0.30294500762E+03  0.00000000000E+00 0. -1.
          1    1    1    2  502    0  0.16883513974E+02  0.30099519728E+02  0.23005606760E+03  0.23263023959E+03  0.00000000000E+00 0. -1.
         22    1    3    3    0    0 -0.42013878747E+02  0.12189571953E+02  0.20190678362E+03  0.20659162844E+03  0.00000000000E+00 0.  1.
         22    1    3    3    0    0  0.22106693066E+02 -0.97800731001E+02  0.20897012923E+03  0.23178050775E+03  0.00000000000E+00 0.  1.
</event>
<event>
 7    1  0.5553952E-006  0.7983560E+02  0.7818608E-02  0.1446362E+00
          2   -1    0    0  502    0  0.00000000000E+00  0.00000000000E+00  0.24337727334E+03  0.24337727334E+03  0.00000000000E+00 0. -1.
          1   -1    0    0  501    0 -0.00000000000E+00 -0.00000000000E+00 -0.20795868571E+04  0.20795868571E+04  0.00000000000E+00 0. -1.
         25    2    1    2    0    0 -0.57175406513E+02 -0.49426989342E+02 -0.34108871313E+03  0.37105093108E+03  0.12500091537E+03 0.  0.
          2    1    1    2  501    0  0.76451120491E+02  0.25048529777E+02 -0.17215160599E+04  0.17233948321E+04  0.00000000000E+00 0. -1.
          1    1    1    2  502    0 -0.19275713977E+02  0.24378459565E+02  0.22639518931E+03  0.22851836727E+03  0.00000000000E+00 0. -1.
         22    1    3    3    0    0  0.56357357142E+00 -0.72552878905E+02 -0.25312878406E+03  0.26332189269E+03  0.00000000000E+00 0. -1.
         22    1    3    3    0    0 -0.57738980085E+02  0.23125889562E+02 -0.87959929073E+02  0.10772903839E+03  0.00000000000E+00 0. -1.
</event>
<event>
 7    1  0.5553952E-006  0.1260504E+03  0.7818608E-02  0.1302808E+00
          2   -1    0    0  502    0  0.00000000000E+00  0.00000000000E+00  0.32392224270E+03  0.32392224270E+03  0.00000000000E+00 0. -1.
          1   -1    0    0  501    0 -0.00000000000E+00 -0.00000000000E+00 -0.20147054169E+03  0.20147054169E+03  0.00000000000E+00 0. -1.
         25    2    1    2    0    0  0.17812452968E+03  0.21280129709E+02 -0.23044766846E+02  0.21985785628E+03  0.12500089477E+03 0.  0.
          2    1    1    2  501    0 -0.63484976380E+02  0.10113774527E+02 -0.46767109460E+02  0.79497126919E+02  0.00000000000E+00 0. -1.
          1    1    1    2  502    0 -0.11463955330E+03 -0.31393904236E+02  0.19226357732E+03  0.22603780120E+03  0.00000000000E+00 0. -1.
         22    1    3    3    0    0  0.14932639698E+03  0.55807610828E+02 -0.50445645715E+02  0.16720533913E+03  0.00000000000E+00 0.  1.
         22    1    3    3    0    0  0.28798132704E+02 -0.34527481119E+02  0.27400878869E+02  0.52652517152E+02  0.00000000000E+00 0.  1.
</event>
<event>
 7    1  0.5553952E-006  0.4928451E+02  0.7818608E-02  0.1483881E+00
          2   -1    0    0  502    0  0.00000000000E+00  0.00000000000E+00  0.47061144979E+03  0.47061144979E+03  0.00000000000E+00 0. -1.
          1   -1    0    0  501    0 -0.00000000000E+00 -0.00000000000E+00 -0.12698937699E+04  0.12698937699E+04  0.00000000000E+00 0. -1.
         25    2    1    2    0    0  0.38049253085E+02  0.38786859287E+02 -0.11477409369E+03  0.17818622638E+03  0.12500029030E+03 0.  0.
          2    1    1    2  501    0  0.11281889650E+02 -0.36713141219E+02 -0.11216952884E+04  0.11223526433E+04  0.00000000000E+00 0. -1.
          1    1    1    2  502    0 -0.49331142735E+02 -0.20737180680E+01  0.43718706203E+03  0.43996635003E+03  0.00000000000E+00 0. -1.
         22    1    3    3    0    0 -0.33549997138E+02 -0.40862830956E+01 -0.81704420511E+02  0.88418959214E+02  0.00000000000E+00 0.  1.
         22    1    3    3    0    0  0.71599250223E+02  0.42873142382E+02 -0.33069673177E+02  0.89767267165E+02  0.00000000000E+00 0.  1.
</event>
<event>
 7    1  0.5553952E-006  0.2371729E+03  0.7818608E-02  0.1188478E+00
          2   -1    0    0  502    0  0.00000000000E+00  0.00000000000E+00  0.16339834969E+04  0.16339834969E+04  0.00000000000E+00 0. -1.
          1   -1    0    0  501    0 -0.00000000000E+00 -0.00000000000E+00 -0.55851713990E+03  0.55851713990E+03  0.00000000000E+00 0. -1.
         25    2    1    2    0    0  0.28108974725E+03  0.11004382246E+03  0.10075428193E+04  0.10591924032E+04  0.12499970183E+03 0.  0.
          2    1    1    2  501    0 -0.91042096284E+02 -0.58468756565E+02 -0.51072985521E+03  0.52206536353E+03  0.00000000000E+00 0. -1.
          1    1    1    2  502    0 -0.19004765096E+03 -0.51575065894E+02  0.57865339290E+03  0.61124287004E+03  0.00000000000E+00 0. -1.
         22    1    3    3    0    0 -0.11663064807E+02  0.19696581197E+01  0.72261106971E+02  0.73222771148E+02  0.00000000000E+00 0.  1.
         22    1    3    3    0    0  0.29275281205E+03  0.10807416434E+03  0.93528171234E+03  0.98596963208E+03  0.00000000000E+00 0.  1.
</event>
<event>
 7    1  0.5553952E-006  0.1739032E+03  0.7818608E-02  0.1195901E+00
          2   -1    0    0  502    0  0.00000000000E+00  0.00000000000E+00  0.20828093932E+04  0.20828093932E+04  0.00000000000E+00 0. -1.
          1   -1    0    0  501    0 -0.00000000000E+00 -0.00000000000E+00 -0.13784747102E+04  0.13784747102E+04  0.00000000000E+00 0. -1.
         25    2    1    2    0    0  0.23377075265E+02  0.16425003043E+03 -0.60211611567E+02  0.21627801550E+03  0.12500472662E+03 0.  0.
          2    1    1    2  501    0  0.12031112470E+03 -0.63389529459E+02 -0.12326401551E+04  0.12401188456E+04  0.00000000000E+00 0. -1.
          1    1    1    2  502    0 -0.14368819996E+03 -0.10086050098E+03  0.19971864497E+04  0.20048872423E+04  0.00000000000E+00 0. -1.
         22    1    3    3    0    0  0.56796842046E+01 -0.20914568875E+02 -0.77026343940E+01  0.23000186532E+02  0.00000000000E+00 0. -1.
         22    1    3    3    0    0  0.17697391060E+02  0.18516459931E+03 -0.52508977173E+02  0.19327782897E+03  0.00000000000E+00 0. -1.
</event>
<event>
 7    1  0.5553952E-006  0.8744611E+02  0.7818608E-02  0.1335136E+00
          2   -1    0    0  502    0  0.00000000000E+00  0.00000000000E+00  0.41257470692E+03  0.41257470692E+03  0.00000000000E+00 0. -1.
          1   -1    0    0  501    0 -0.00000000000E+00 -0.00000000000E+00 -0.19121720208E+04  0.19121720208E+04  0.00000000000E+00 0. -1.
         25    2    1    2    0    0 -0.24666787538E+02 -0.89713035272E+02  0.33030304339E+03  0.36521490950E+03  0.12499980218E+03 0.  0.
          2    1    1    2  501    0  0.69053828044E+02  0.67796420082E+01 -0.18595968399E+04  0.18608908624E+04  0.00000000000E+00 0. -1.
          1    1    1    2  502    0 -0.44387040506E+02  0.82933393264E+02  0.29696482656E+02  0.98640955821E+02  0.00000000000E+00 0. -1.
         22    1    3    3    0    0 -0.71827921606E+02 -0.26924180008E+02  0.14735325564E+03  0.16612388070E+03  0.00000000000E+00 0.  1.
         22    1    3    3    0    0  0.47161134068E+02 -0.62788855264E+02  0.18294978775E+03  0.19909102881E+03  0.00000000000E+00 0.  1.
</event>
<event>
 7    1  0.5553952E-006  0.5156354E+02  0.7818608E-02  0.1503641E+00
          2   -1    0    0  502    0  0.00000000000E+00  0.00000000000E+00  0.27318246608E+02  0.27318246608E+02  0.00000000000E+00 0. -1.
          1   -1    0    0  501    0 -0.00000000000E+00 -0.00000000000E+00 -0.98683687001E+03  0.98683687001E+03  0.00000000000E+00 0. -1.
         25    2    1    2    0    0  0.21576015196E+02  0.67841689991E+02 -0.39781948508E+03  0.42302928301E+03  0.12500164895E+03 0.  0.
          2    1    1    2  501    0 -0.26419533458E+02 -0.18076230889E+02 -0.53201595627E+03  0.53297816052E+03  0.00000000000E+00 0. -1.
          1    1    1    2  502    0  0.48435182612E+01 -0.49765459102E+02 -0.29683182057E+02  0.58147673090E+02  0.00000000000E+00 0. -1.
         22    1    3    3    0    0 -0.55687671986E+01 -0.17400834553E+01  0.82741877481E+01  0.10124289676E+02  0.00000000000E+00 0.  1.
         22    1    3    3    0    0  0.27144782395E+02  0.69581773446E+02 -0.40609367283E+03  0.41290499333E+03  0.00000000000E+00 0.  1.
</event>
<event>
 7    1  0.5553952E-006  0.5352828E+02  0.7818608E-02  0.1472666E+00
          2   -1    0    0  502    0  0.00000000000E+00  0.00000000000E+00  0.31025708868E+04  0.31025708868E+04  0.00000000000E+00 0. -1.
          1   -1    0    0  501    0 -0.00000000000E+00 -0.00000000000E+00 -0.77880882608E+01  0.77880882608E+01  0.00000000000E+00 0. -1.
         25    2    1    2    0    0  0.17847171685E+01 -0.22069036283E+02  0.13199814031E+04  0.13260716249E+04  0.12499928881E+03 0.  0.
          2    1    1    2  501    0 -0.24962107427E+02  0.52541090798E+02  0.18293504062E+03  0.19196067856E+03  0.00000000000E+00 0. -1.
          1    1    1    2  502    0  0.23177390259E+02 -0.30472054516E+02  0.15918663548E+04  0.15923266716E+04  0.00000000000E+00 0. -1.
         22    1    3    3    0    0 -0.37422537838E+02  0.38787002900E+02  0.49774373486E+03  0.50065327675E+03  0.00000000000E+00 0.  1.
         22    1    3    3    0    0  0.39207255006E+02 -0.60856039182E+02  0.82223766829E+03  0.82541834817E+03  0.00000000000E+00 0.  1.
</event>
<event>
 7    1  0.5553952E-006  0.3659493E+02  0.7818608E-02  0.1572091E+00
          2   -1    0    0  502    0  0.00000000000E+00  0.00000000000E+00  0.31368557482E+03  0.31368557482E+03  0.00000000000E+00 0. -1.
          1   -1    0    0  501    0 -0.00000000000E+00 -0.00000000000E+00 -0.17590027879E+03  0.17590027879E+03  0.00000000000E+00 0. -1.
         25    2    1    2    0    0 -0.39684642387E+02  0.39261711915E+02  0.23416507884E+03  0.27124403837E+03  0.12499476526E+03 0.  0.
          2    1    1    2  501    0  0.27432804568E+02 -0.89161743161E+01 -0.15150932353E+03  0.15423077530E+03  0.00000000000E+00 0. -1.
          1    1    1    2  502    0  0.12251837819E+02 -0.30345537599E+02  0.55129540730E+02  0.64111039948E+02  0.00000000000E+00 0. -1.
         22    1    3    3    0    0 -0.33823747717E+02  0.56655834769E+02  0.42028032300E+02  0.78232250524E+02  0.00000000000E+00 0.  1.
         22    1    3    3    0    0 -0.58608946699E+01 -0.17394122853E+02  0.19213704654E+03  0.19301178785E+03  0.00000000000E+00 0.  1.
</event>
<event>
 7    1  0.5553952E-006  0.8399140E+02  0.7818608E-02  0.1386958E+00
          2   -1    0    0  502    0  0.00000000000E+00  0.00000000000E+00  0.34917649795E+04  0.34917649795E+04  0.00000000000E+00 0. -1.
          1   -1    0    0  501    0 -0.00000000000E+00 -0.00000000000E+00 -0.31788597861E+03  0.31788597861E+03  0.00000000000E+00 0. -1.
         25    2    1    2    0    0  0.37522331663E+02  0.11003897845E+03  0.18961148151E+03  0.25513446464E+03  0.12499831589E+03 0.  0.
          2    1    1    2  501    0 -0.51530769026E+02 -0.65425895482E+02 -0.27887187468E+03  0.29104207675E+03  0.00000000000E+00 0. -1.
          1    1    1    2  502    0  0.14008437362E+02 -0.44613082970E+02  0.32631393941E+04  0.32634744167E+04  0.00000000000E+00 0. -1.
         22    1    3    3    0    0 -0.18323860847E+02  0.93097137977E+02  0.58107060744E+02  0.11126217454E+03  0.00000000000E+00 0. -1.
         22    1    3    3    0    0  0.55846192510E+02  0.16941840475E+02  0.13150442077E+03  0.14387229010E+03  0.00000000000E+00 0. -1.
</event>
<event>
 7    1  0.5553952E-006  0.4304495E+02  0.7818608E-02  0.1503130E+00
          2   -1    0    0  502    0  0.00000000000E+00  0.00000000000E+00  0.21885532241E+03  0.21885532241E+03  0.00000000000E+00 0. -1.
          1   -1    0    0  501    0 -0.00000000000E+00 -0.00000000000E+00 -0.74763208514E+03  0.74763208514E+03  0.00000000000E+00 0. -1.
         25    2    1    2    0    0  0.67960005519E+01 -0.78411846403E+02 -0.67077163847E+03  0.68684479640E+03  0.12500632015E+03 0.  0.
          2    1    1    2  501    0  0.71605474181E+01  0.37808846005E+02 -0.61018389945E+02  0.72138936691E+02  0.00000000000E+00 0. -1.
          1    1    1    2  502    0 -0.13956547970E+02  0.40603000398E+02  0.20301326568E+03  0.20750367446E+03  0.00000000000E+00 0. -1.
         22    1    3    3    0    0  0.56060656905E+01 -0.54671549399E+02 -0.89090540486E+02  0.10467822453E+03  0.00000000000E+00 0. -1.
         22    1    3    3    0    0  0.11899348614E+01 -0.23740297005E+02 -0.58168109799E+03  0.58216657187E+03  0.00000000000E+00 0. -1.
</event>
<event>
 7    1  0.5553952E-006  0.8664802E+02  0.7818608E-02  0.1434953E+00
          2   -1    0    0  502    0  0.00000000000E+00  0.00000000000E+00  0.27111090851E+03  0.27111090851E+03  0.00000000000E+00 0. -1.
          1   -1    0    0  501    0 -0.00000000000E+00 -0.00000000000E+00 -0.35189817312E+03  0.35189817312E+03  0.00000000000E+00 0. -1.
         25    2    1    2    0    0  0.33045802993E+02  0.90337630286E+02 -0.25056057648E+03  0.29607130887E+03  0.12499881962E+03 0.  0.
          2    1    1    2  501    0 -0.30943141828E+02 -0.38441800727E+01 -0.67515473149E+02  0.74367969322E+02  0.00000000000E+00 0. -1.
          1    1    1    2  502    0 -0.21026611649E+01 -0.86493450213E+02  0.23728878502E+03  0.25256980344E+03  0.00000000000E+00 0. -1.
         22    1    3    3    0    0  0.45246214835E+02 -0.97634791885E+01 -0.34806684302E+02  0.57914167134E+02  0.00000000000E+00 0.  1.
         22    1    3    3    0    0 -0.12200411842E+02  0.10010110947E+03 -0.21575389218E+03  0.23815714173E+03  0.00000000000E+00 0.  1.
</event>
<event>
 7    1  0.5553952E-006  0.1585678E+03  0.7818608E-02  0.1337594E+00
          2   -1    0    0  502    0  0.00000000000E+00  0.00000000000E+00  0.12453712117E+04  0.12453712117E+04  0.00000000000E+00 0. -1.
          1   -1    0    0  501    0 -0.00000000000E+00 -0.00000000000E+00 -0.96813943334E+03  0.96813943334E+03  0.00000000000E+00 0. -1.
         25    2    1    2    0    0  0.14476179540E+03  0.23198964741E+02  0.15808215066E+03  0.24921517070E+03  0.12499626227E+03 0.  0.
          2    1    1    2  501    0  0.15517137471E+02 -0.34088285426E+02 -0.91599437939E+03  0.91675978088E+03  0.00000000000E+00 0. -1.
          1    1    1    2  502    0 -0.16027893287E+03  0.10889320685E+02  0.10351440071E+04  0.10475356934E+04  0.00000000000E+00 0. -1.
         22    1    3    3    0    0 -0.11201398237E+02 -0.25574237037E+02  0.13448253334E+02  0.30989811878E+02  0.00000000000E+00 0. -1.
         22    1    3    3    0    0  0.15596319363E+03  0.48773201778E+02  0.14463389732E+03  0.21822535883E+03  0.00000000000E+00 0. -1.
</event>
<event>
 7    1  0.5553952E-006  0.1592717E+03  0.7818608E-02  0.1327601E+00
          2   -1    0    0  502    0  0.00000000000E+00  0.00000000000E+00  0.58364183117E+02  0.58364183117E+02  0.00000000000E+00 0. -1.
          1   -1    0    0  501    0 -0.00000000000E+00 -0.00000000000E+00 -0.20057259233E+04  0.20057259233E+04  0.00000000000E+00 0. -1.
         25    2    1    2    0    0 -0.80033023465E+02 -0.16822484654E+03 -0.35955876608E+03  0.42380631480E+03  0.12499760941E+03 0.  0.
          2    1    1    2  501    0  0.88964109707E+02  0.12851670461E+03 -0.15917379287E+04  0.15993938821E+04  0.00000000000E+00 0. -1.
          1    1    1    2  502    0 -0.89310862413E+01  0.39708141937E+02  0.39349546187E+01  0.40889909579E+02  0.00000000000E+00 0. -1.
         22    1    3    3    0    0 -0.78867336617E+02 -0.10584930675E+03 -0.32868084206E+03  0.35419659578E+03  0.00000000000E+00 0. -1.
         22    1    3    3    0    0 -0.11656868486E+01 -0.62375539787E+02 -0.30877924017E+02  0.69609719013E+02  0.00000000000E+00 0. -1.
</event>
<event>
 7    1  0.5553952E-006  0.1372437E+03  0.7818608E-02  0.1221523E+00
          2   -1    0    0  502    0  0.00000000000E+00  0.00000000000E+00  0.35213763142E+03  0.35213763142E+03  0.00000000000E+00 0. -1.
          1   -1    0    0  501    0 -0.00000000000E+00 -0.00000000000E+00 -0.11452869544E+04  0.11452869544E+04  0.00000000000E+00 0. -1.
         25    2    1    2    0    0 -0.56055018814E+02 -0.85576863095E+02 -0.52635471624E+02  0.16988475722E+03  0.12499909293E+03 0.  0.
          2    1    1    2  501    0  0.13565040149E+03 -0.26228326430E+02 -0.10130338023E+04  0.10224120701E+04  0.00000000000E+00 0. -1.
          1    1    1    2  502    0 -0.79595382678E+02  0.11180518952E+03  0.27251995093E+03  0.30512775849E+03  0.00000000000E+00 0. -1.
         22    1    3    3    0    0 -0.78557941277E+02 -0.64545946499E+02  0.78834235991E+01  0.10197881013E+03  0.00000000000E+00 0.  1.
         22    1    3    3    0    0  0.22502922463E+02 -0.21030916595E+02 -0.60518895223E+02  0.67905947098E+02  0.00000000000E+00 0.  1.
</event>
<event>
 7    1  0.5553952E-006  0.1533659E+03  0.7818608E-02  0.1338593E+00
          2   -1    0    0  502    0  0.00000000000E+00  0.00000000000E+00  0.39608138512E+04  0.39608138512E+04  0.00000000000E+00 0. -1.
          1   -1    0    0  501    0 -0.00000000000E+00 -0.00000000000E+00 -0.54173914215E+03  0.54173914215E+03  0.00000000000E+00 0. -1.
         25    2    1    2    0    0 -0.11332774240E+03 -0.13883173368E+03  0.11266493738E+04  0.11476417250E+04  0.12500116035E+03 0.  0.
          2    1    1    2  501    0  0.75334766172E+02  0.13332856519E+03 -0.52007294749E+03  0.54215099742E+03  0.00000000000E+00 0. -1.
          1    1    1    2  502    0  0.37992976225E+02  0.55031684845E+01  0.28124982827E+04  0.28127602709E+04  0.00000000000E+00 0. -1.
         22    1    3    3    0    0 -0.55857391985E+02 -0.67852063090E+01  0.14587493259E+03  0.15635083377E+03  0.00000000000E+00 0.  1.
         22    1    3    3    0    0 -0.57470350412E+02 -0.13204652737E+03  0.98077444122E+03  0.99129089127E+03  0.00000000000E+00 0.  1.
</event>
<event>
 7    1  0.5553952E-006  0.9698003E+02  0.7818608E-02  0.1326281E+00
          2   -1    0    0  502    0  0.00000000000E+00  0.00000000000E+00  0.22912863228E+04  0.22912863228E+04  0.00000000000E+00 0. -1.
          1   -1    0    0  501    0 -0.00000000000E+00 -0.00000000000E+00 -0.38602006204E+02  0.38602006204E+02  0.00000000000E+00 0. -1.
         25    2    1    2    0    0 -0.11775614339E+03  0.13780904788E+02  0.14885779127E+04  0.14985143683E+04  0.12499874869E+03 0.  0.
          2    1    1    2  501    0  0.48729687786E+02  0.46891175466E+02  0.61935076408E+01  0.67909677846E+02  0.00000000000E+00 0. -1.
          1    1    1    2  502    0  0.69026455599E+02 -0.60672080253E+02  0.75791289629E+03  0.76346428289E+03  0.00000000000E+00 0. -1.
         22    1    3    3    0    0 -0.99155022264E+02 -0.58290259116E+01  0.51105290920E+03  0.52061576233E+03  0.00000000000E+00 0.  1.
         22    1    3    3    0    0 -0.18601121121E+02  0.19609930699E+02  0.97752500351E+03  0.97789860598E+03  0.00000000000E+00 0.  1.
</event>
<event>
 7    1  0.5553952E-006  0.1536550E+03  0.7818608E-02  0.1392185E+00
          2   -1    0    0  502    0  0.00000000000E+00  0.00000000000E+00  0.87130119060E+02  0.87130119060E+02  0.00000000000E+00 0. -1.
          1   -1    0    0  501    0 -0.00000000000E+00 -0.00000000000E+00 -0.68256537755E+03  0.68256537755E+03  0.00000000000E+00 0. -1.
         25    2    1    2    0    0  0.16420990677E+02  0.15766968440E+03 -0.26912918588E+03  0.33644532919E+03  0.12504224297E+03 0.  0.
          2    1    1    2  501    0 -0.38505833579E+02 -0.14704293236E+03 -0.36046851120E+03  0.39120566297E+03  0.00000000000E+00 0. -1.
          1    1    1    2  502    0  0.22084842903E+02 -0.10626752045E+02  0.34162438582E+02  0.42044504456E+02  0.00000000000E+00 0. -1.
         22    1    3    3    0    0 -0.37397623875E+02  0.14046120010E+03 -0.19699041314E+03  0.24481248717E+03  0.00000000000E+00 0.  1.
         22    1    3    3    0    0  0.53818614551E+02  0.17208484303E+02 -0.72138772735E+02  0.91632842016E+02  0.00000000000E+00 0.  1.
</event>
<event>
 7    1  0.5553952E-006  0.8147347E+02  0.7818608E-02  0.1374864E+00
          2   -1    0    0  502    0  0.00000000000E+00  0.00000000000E+00  0.39965743515E+03  0.39965743515E+03  0.00000000000E+00 0. -1.
          1   -1    0    0  501    0 -0.00000000000E+00 -0.00000000000E+00 -0.27654181927E+03  0.27654181927E+03  0.00000000000E+00 0. -1.
         25    2    1    2    0    0 -0.20810935892E+02  0.59177092272E+02  0.10947797926E+03  0.17761105529E+03  0.12500094286E+03 0.  0.
          2    1    1    2  501    0  0.46964868990E+02  0.24981686440E+02 -0.23179075557E+03  0.23781660569E+03  0.00000000000E+00 0. -1.
          1    1    1    2  502    0 -0.26153933099E+02 -0.84158778712E+02  0.24542839219E+03  0.26077159344E+03  0.00000000000E+00 0. -1.
         22    1    3    3    0    0 -0.23379224177E+02  0.67594636587E+02  0.38606506919E+01  0.71627701640E+02  0.00000000000E+00 0.  1.
         22    1    3    3    0    0  0.25682882851E+01 -0.84175443147E+01  0.10561732857E+03  0.10598335365E+03  0.00000000000E+00 0.  1.
</event>
<event>
 7    1  0.5553952E-006  0.7952067E+02  0.7818608E-02  0.1397003E+00
          2   -1    0    0  502    0  0.00000000000E+00  0.00000000000E+00  0.24585491470E+03  0.24585491470E+03  0.00000000000E+00 0. -1.
          1   -1    0    0  501    0 -0.00000000000E+00 -0.00000000000E+00 -0.15461462317E+04  0.15461462317E+04  0.00000000000E+00 0. -1.
         25    2    1    2    0    0 -0.38763184513E+02  0.28401580043E+02 -0.10839329088E+03  0.17228684415E+03  0.12499766773E+03 0.  0.
          2    1    1    2  501    0  0.33428742431E+02 -0.73658841096E+02 -0.14022001918E+04  0.14045314106E+04  0.00000000000E+00 0. -1.
          1    1    1    2  502    0  0.53344420819E+01  0.45257261054E+02  0.21030216566E+03  0.21518289158E+03  0.00000000000E+00 0. -1.
         22    1    3    3    0    0 -0.47977390075E+02  0.51627829044E+02 -0.12414018213E+03  0.14275169880E+03  0.00000000000E+00 0.  1.
         22    1    3    3    0    0  0.92142055620E+01 -0.23226249001E+02  0.15746891253E+02  0.29535145352E+02  0.00000000000E+00 0.  1.
</event>
<event>
 7    1  0.5553952E-006  0.8563347E+02  0.7818608E-02  0.1359784E+00
          2   -1    0    0  502    0  0.00000000000E+00  0.00000000000E+00  0.62711035576E+03  0.62711035576E+03  0.00000000000E+00 0. -1.
          1   -1    0    0  501    0 -0.00000000000E+00 -0.00000000000E+00 -0.19298440491E+03  0.19298440491E+03  0.00000000000E+00 0. -1.
         25    2    1    2    0    0  0.55546277387E+02 -0.40342874598E+02  0.66426226834E+02  0.15732053890E+03  0.12499748752E+03 0.  0.
          2    1    1    2  501    0  0.32558480474E+02  0.47235674579E+02 -0.13797944264E+03  0.14943088769E+03  0.00000000000E+00 0. -1.
          1    1    1    2  502    0 -0.88104757861E+02 -0.68927999803E+01  0.50567916666E+03  0.51334333408E+03  0.00000000000E+00 0. -1.
         22    1    3    3    0    0  0.23055953616E+02 -0.79678041788E+02  0.13913951431E+02  0.84105679860E+02  0.00000000000E+00 0.  1.
         22    1    3    3    0    0  0.32490323771E+02  0.39335167189E+02  0.52512275403E+02  0.73214859042E+02  0.00000000000E+00 0.  1.
</event>
<event>
 7    1  0.5553952E-006  0.1732821E+03  0.7818608E-02  0.1240308E+00
          2   -1    0    0  502    0  0.00000000000E+00  0.00000000000E+00  0.12785167652E+04  0.12785167652E+04  0.00000000000E+00 0. -1.
          1   -1    0    0  501    0 -0.00000000000E+00 -0.00000000000E+00 -0.56269237447E+03  0.56269237447E+03  0.00000000000E+00 0. -1.
         25    2    1    2    0    0  0.15766389274E+03 -0.11157754102E+03 -0.32442636580E+03  0.39772501011E+03  0.12500106441E+03 0.  0.
          2    1    1    2  501    0 -0.78505619312E+02  0.14384292477E+03 -0.16655504608E+03  0.23365466536E+03  0.00000000000E+00 0. -1.
          1    1    1    2  502    0 -0.79158273432E+02 -0.32265383749E+02  0.12068058026E+04  0.12098294642E+04  0.00000000000E+00 0. -1.
         22    1    3    3    0    0  0.11590123809E+03 -0.68821491588E+02 -0.10661180995E+03  0.17185916536E+03  0.00000000000E+00 0.  1.
         22    1    3    3    0    0  0.41762654650E+02 -0.42756049435E+02 -0.21781455585E+03  0.22586584475E+03  0.00000000000E+00 0.  1.
</event>
<event>
 7    1  0.5553952E-006  0.5349716E+02  0.7818608E-02  0.1474284E+00
          2   -1    0    0  502    0  0.00000000000E+00  0.00000000000E+00  0.79198141056E+03  0.79198141056E+03  0.00000000000E+00 0. -1.
          1   -1    0    0  501    0 -0.00000000000E+00 -0.00000000000E+00 -0.13753476512E+03  0.13753476512E+03  0.00000000000E+00 0. -1.
         25    2    1    2    0    0  0.21530229989E+02 -0.82145350399E+01  0.57761171839E+02  0.13961666531E+03  0.12500172347E+03 0.  0.
          2    1    1    2  501    0  0.31256172117E+02  0.21378600069E+02 -0.91781374983E+02  0.99286522903E+02  0.00000000000E+00 0. -1.
          1    1    1    2  502    0 -0.52786402107E+02 -0.13164065029E+02  0.68846684859E+03  0.69061298747E+03  0.00000000000E+00 0. -1.
         22    1    3    3    0    0  0.14608369233E+02 -0.76972121836E+01  0.97696767671E+02  0.99082339195E+02  0.00000000000E+00 0. -1.
         22    1    3    3    0    0  0.69218607566E+01 -0.51732285625E+00 -0.39935595832E+02  0.40534326116E+02  0.00000000000E+00 0. -1.
</event>
<event>
 7    1  0.5553952E-006  0.9317356E+02  0.7818608E-02  0.1332022E+00
          2   -1    0    0  502    0  0.00000000000E+00  0.00000000000E+00  0.43341227793E+03  0.43341227793E+03  0.00000000000E+00 0. -1.
          1   -1    0    0  501    0 -0.00000000000E+00 -0.00000000000E+00 -0.67596114458E+03  0.67596114458E+03  0.00000000000E+00 0. -1.
         25    2    1    2    0    0  0.89439019217E+02  0.55465071122E+02 -0.37372353919E+03  0.40788220826E+03  0.12499159891E+03 0.  0.
          2    1    1    2  501    0  0.31849702633E+01 -0.66842926528E+02 -0.27587809367E+03  0.28387821936E+03  0.00000000000E+00 0. -1.
          1    1    1    2  502    0 -0.92623989480E+02  0.11377855406E+02  0.40705276621E+03  0.41761299489E+03  0.00000000000E+00 0. -1.
         22    1    3    3    0    0  0.48009092992E+02 -0.15080399892E+02 -0.40016763835E+02  0.64293334481E+02  0.00000000000E+00 0. -1.
         22    1    3    3    0    0  0.41429926225E+02  0.70545471014E+02 -0.33370677535E+03  0.34358887378E+03  0.00000000000E+00 0. -1.
</event>
<event>
 7    1  0.5553952E-006  0.7312121E+02  0.7818608E-02  0.1500446E+00
          2   -1    0    0  502    0  0.00000000000E+00  0.00000000000E+00  0.84741194181E+03  0.84741194181E+03  0.00000000000E+00 0. -1.
          1   -1    0    0  501    0 -0.00000000000E+00 -0.00000000000E+00 -0.57308324991E+03  0.57308324991E+03  0.00000000000E+00 0. -1.
         25    2    1    2    0    0 -0.48470324908E+02 -0.23041926412E+02  0.21688450792E+03  0.25601988049E+03  0.12500794638E+03 0.  0.
          2    1    1    2  501    0 -0.23047553399E+02 -0.10945460953E+01 -0.55094184468E+03  0.55142479448E+03  0.00000000000E+00 0. -1.
          1    1    1    2  502    0  0.71517878308E+02  0.24136472507E+02  0.60838602865E+03  0.61305051675E+03  0.00000000000E+00 0. -1.
         22    1    3    3    0    0 -0.29047134169E+01 -0.51137249142E+02  0.25358014978E+02  0.57153167309E+02  0.00000000000E+00 0. -1.
         22    1    3    3    0    0 -0.45565611492E+02  0.28095322731E+02  0.19152649295E+03  0.19886671318E+03  0.00000000000E+00 0. -1.
</event>
<event>
 7    1  0.5553952E-006  0.3935631E+03  0.7818608E-02  0.1135386E+00
          2   -1    0    0  502    0  0.00000000000E+00  0.00000000000E+00  0.89409559252E+03  0.89409559252E+03  0.00000000000E+00 0. -1.
          1   -1    0    0  501    0 -0.00000000000E+00 -0.00000000000E+00 -0.14979525243E+04  0.14979525243E+04  0.00000000000E+00 0. -1.
         25    2    1    2    0    0  0.37008445195E+03 -0.16337058660E+03  0.11514879910E+03  0.43878978226E+03  0.12499910777E+03 0.  0.
          2    1    1    2  501    0  0.21801944205E+02  0.11876461137E+03 -0.12699546563E+04  0.12756822437E+04  0.00000000000E+00 0. -1.
          1    1    1    2  502    0 -0.39188639615E+03  0.44605975233E+02  0.55094892544E+03  0.67757609090E+03  0.00000000000E+00 0. -1.
         22    1    3    3    0    0  0.72186007342E+02 -0.55162537502E+02 -0.21953022255E+02  0.93464754779E+02  0.00000000000E+00 0. -1.
         22    1    3    3    0    0  0.29789844460E+03 -0.10820804910E+03  0.13710182135E+03  0.34532502748E+03  0.00000000000E+00 0. -1.
</event>
<event>
 7    1  0.5553952E-006  0.5342192E+02  0.7818608E-02  0.1444699E+00
          2   -1    0    0  502    0  0.00000000000E+00  0.00000000000E+00  0.95082011197E+02  0.95082011197E+02  0.00000000000E+00 0. -1.
          1   -1    0    0  501    0 -0.00000000000E+00 -0.00000000000E+00 -0.91191967811E+03  0.91191967811E+03  0.00000000000E+00 0. -1.
         25    2    1    2    0    0  0.71991588953E+02  0.26587563530E+02 -0.15401595678E+03  0.21268723080E+03  0.12500102315E+03 0.  0.
          2    1    1    2  501    0 -0.21355130583E+02 -0.41891671772E+02 -0.71703155628E+03  0.71857164324E+03  0.00000000000E+00 0. -1.
          1    1    1    2  502    0 -0.50636458369E+02  0.15304108242E+02  0.54209846149E+02  0.75742815268E+02  0.00000000000E+00 0. -1.
         22    1    3    3    0    0 -0.31857340627E+02  0.51973252041E+01 -0.71110455949E+02  0.78093529094E+02  0.00000000000E+00 0.  1.
         22    1    3    3    0    0  0.10384892958E+03  0.21390238326E+02 -0.82905500834E+02  0.13459370171E+03  0.00000000000E+00 0.  1.
</event>
<event>
 7    1  0.5553952E-006  0.1214917E+03  0.7818608E-02  0.1337281E+00
          2   -1    0    0  502    0  0.00000000000E+00  0.00000000000E+00  0.94301500990E+03  0.94301500990E+03  0.00000000000E+00 0. -1.
          1   -1    0    0  501    0 -0.00000000000E+00 -0.00000000000E+00 -0.72363779213E+03  0.72363779213E+03  0.00000000000E+00 0. -1.
         25    2    1    2    0    0 -0.44848085829E+02  0.72424203120E+02  0.23037500979E+03  0.27559838923E+03  0.12500084403E+03 0.  0.
          2    1    1    2  501    0  0.29086231516E+02 -0.11883796406E+03 -0.69480406296E+03  0.70549355523E+03  0.00000000000E+00 0. -1.
          1    1    1    2  502    0  0.15761854313E+02  0.46413760943E+02  0.68380627094E+03  0.68556085757E+03  0.00000000000E+00 0. -1.
         22    1    3    3    0    0 -0.59023926123E+02  0.87165357038E+02  0.23231755380E+03  0.25505503156E+03  0.00000000000E+00 0.  1.
         22    1    3    3    0    0  0.14175840294E+02 -0.14741153918E+02 -0.19425440075E+01  0.20543357664E+02  0.00000000000E+00 0.  1.
</event>
<event>
 7    1  0.9358990E-006  0.7410687E+02  0.7818608E-02  0.1398938E+00
          2   -1    0    0  502    0  0.00000000000E+00  0.00000000000E+00  0.20434179734E+04  0.20434179734E+04  0.00000000000E+00 0. -1.
          1   -1    0    0  501    0 -0.00000000000E+00 -0.00000000000E+00 -0.77536359209E+03  0.77536359209E+03  0.00000000000E+00 0. -1.
         25    2    1    2    0    0  0.74459566731E+02  0.73407367547E+02 -0.11421178344E+03  0.19899814143E+03  0.12499224028E+03 0.  0.
          2    1    1    2  501    0 -0.26614315054E+02 -0.67964740805E+02 -0.61631510140E+03  0.62062213300E+03  0.00000000000E+00 0. -1.
          1    1    1    2  502    0 -0.47845251678E+02 -0.54426267423E+01  0.19985812661E+04  0.19991612911E+04  0.00000000000E+00 0. -1.
         22    1    3    3    0    0 -0.12626532641E+02 -0.13908978558E+02 -0.62520249217E+02  0.65281471898E+02  0.00000000000E+00 0.  1.
         22    1    3    3    0    0  0.87086099372E+02  0.87316346105E+02 -0.51691534221E+02  0.13371666953E+03  0.00000000000E+00 0.  1.
</event>
<event>
 7    1  0.5553952E-006  0.1083303E+03  0.7818608E-02  0.1324019E+00
          2   -1    0    0  502    0  0.00000000000E+00  0.00000000000E+00  0.19905966700E+04  0.19905966700E+04  0.00000000000E+00 0. -1.
          1   -1    0    0  501    0 -0.00000000000E+00 -0.00000000000E+00 -0.59045074645E+03  0.59045074645E+03  0.00000000000E+00 0. -1.
         25    2    1    2    0    0  0.16632835122E+03  0.13506951032E+02  0.28702111136E+03  0.35475848393E+03  0.12499962163E+03 0.  0.
          2    1    1    2  501    0 -0.10513957886E+03 -0.21940115999E+02 -0.55082221354E+03  0.56119587549E+03  0.00000000000E+00 0. -1.
          1    1    1    2  502    0 -0.61188772364E+02  0.84331649669E+01  0.16639470257E+04  0.16650930570E+04  0.00000000000E+00 0. -1.
         22    1    3    3    0    0  0.14127244841E+03 -0.41988813202E+02  0.19539249413E+03  0.24474311405E+03  0.00000000000E+00 0. -1.
         22    1    3    3    0    0  0.25055902810E+02  0.55495764234E+02  0.91628617224E+02  0.11001536987E+03  0.00000000000E+00 0. -1.
</event>
<event>
 7    1  0.5553952E-006  0.4618296E+02  0.7818608E-02  0.1502039E+00
          2   -1    0    0  502    0  0.00000000000E+00  0.00000000000E+00  0.32367563164E+03  0.32367563164E+03  0.00000000000E+00 0. -1.
          1   -1    0    0  501    0 -0.00000000000E+00 -0.00000000000E+00 -0.19981243729E+03  0.19981243729E+03  0.00000000000E+00 0. -1.
         25    2    1    2    0    0 -0.47651921733E+02 -0.15552696937E+02  0.57606159575E+02  0.14647951214E+03  0.12500074331E+03 0.  0.
          2    1    1    2  501    0  0.25529339660E+02 -0.25573380721E+02 -0.15075687252E+03  0.15502702860E+03  0.00000000000E+00 0. -1.
          1    1    1    2  502    0  0.22122582073E+02  0.41126077658E+02  0.21701390729E+03  0.22198152819E+03  0.00000000000E+00 0. -1.
         22    1    3    3    0    0  0.67206586822E+01 -0.62069895060E+02  0.34239187203E+02  0.71205063487E+02  0.00000000000E+00 0.  1.
         22    1    3    3    0    0 -0.54372580415E+02  0.46517198123E+02  0.23366972372E+02  0.75274448653E+02  0.00000000000E+00 0.  1.
</event>
<event>
 7    1  0.5553952E-006  0.4150664E+02  0.7818608E-02  0.1572034E+00
          2   -1    0    0  502    0  0.00000000000E+00  0.00000000000E+00  0.93529848005E+02  0.93529848005E+02  0.00000000000E+00 0. -1.
          1   -1    0    0  501    0 -0.00000000000E+00 -0.00000000000E+00 -0.18483164472E+04  0.18483164472E+04  0.00000000000E+00 0. -1.
         25    2    1    2    0    0  0.26212299951E+02 -0.34673357972E+02 -0.13717608901E+03  0.19060752780E+03  0.12499849534E+03 0.  0.
          2    1    1    2  501    0 -0.17116033504E+01  0.41526279828E+02 -0.16817367354E+04  0.16822502218E+04  0.00000000000E+00 0. -1.
          1    1    1    2  502    0 -0.24500696601E+02 -0.68529218557E+01  0.64126225195E+02  0.68988545641E+02  0.00000000000E+00 0. -1.
         22    1    3    3    0    0 -0.46653520732E+02 -0.24538421031E+02 -0.86427443452E+02  0.10123432266E+03  0.00000000000E+00 0. -1.
         22    1    3    3    0    0  0.72865820683E+02 -0.10134936941E+02 -0.50748645563E+02  0.89373205141E+02  0.00000000000E+00 0. -1.
</event>
<event>
 7    1  0.5553952E-006  0.1282169E+03  0.7818608E-02  0.1316296E+00
          2   -1    0    0  502    0  0.00000000000E+00  0.00000000000E+00  0.46123692861E+04  0.46123692861E+04  0.00000000000E+00 0. -1.
          1   -1    0    0  501    0 -0.00000000000E+00 -0.00000000000E+00 -0.57090393748E+02  0.57090393748E+02  0.00000000000E+00 0. -1.
         25    2    1    2    0    0  0.11304676684E+02  0.81093744061E+02  0.65403651989E+03  0.67088910401E+03  0.12499771793E+03 0.  0.
          2    1    1    2  501    0  0.30157371752E+02  0.47084337927E+02 -0.31059546988E+02  0.63961687033E+02  0.00000000000E+00 0. -1.
          1    1    1    2  502    0 -0.41462048436E+02 -0.12817808199E+03  0.39323019194E+04  0.39346088888E+04  0.00000000000E+00 0. -1.
         22    1    3    3    0    0  0.49323064038E+02  0.92221704270E+02  0.38500210312E+03  0.39895391562E+03  0.00000000000E+00 0.  1.
         22    1    3    3    0    0 -0.38018387354E+02 -0.11127960209E+02  0.26903441677E+03  0.27193518839E+03  0.00000000000E+00 0.  1.
</event>
<event>
 7    1  0.5553952E-006  0.3747898E+02  0.7818608E-02  0.1593425E+00
          2   -1    0    0  502    0  0.00000000000E+00  0.00000000000E+00  0.32441679692E+03  0.32441679692E+03  0.00000000000E+00 0. -1.
          1   -1    0    0  501    0 -0.00000000000E+00 -0.00000000000E+00 -0.17762344577E+03  0.17762344577E+03  0.00000000000E+00 0. -1.
         25    2    1    2    0    0  0.11144012391E+02  0.10919763247E+02 -0.55542075983E+02  0.13767230682E+03  0.12500124647E+03 0.  0.
          2    1    1    2  501    0 -0.31509956099E+02 -0.24896297122E+02 -0.75457892846E+02  0.85478632047E+02  0.00000000000E+00 0. -1.
          1    1    1    2  502    0  0.20365943708E+02  0.13976533875E+02  0.27779331998E+03  0.27888930382E+03  0.00000000000E+00 0. -1.
         22    1    3    3    0    0  0.12978510447E+02 -0.40463818160E+02  0.19460323912E+02  0.46738276821E+02  0.00000000000E+00 0.  1.
         22    1    3    3    0    0 -0.18344980563E+01  0.51383581406E+02 -0.75002399894E+02  0.90934029995E+02  0.00000000000E+00 0.  1.
</event>
<event>
 7    1  0.5553952E-006  0.1855383E+03  0.7818608E-02  0.1194850E+00
          2   -1    0    0  502    0  0.00000000000E+00  0.00000000000E+00  0.21326584574E+03  0.21326584574E+03  0.00000000000E+00 0. -1.
          1   -1    0    0  501    0 -0.00000000000E+00 -0.00000000000E+00 -0.65917552310E+03  0.65917552310E+03  0.00000000000E+00 0. -1.
         25    2    1    2    0    0 -0.11222634572E+03  0.11456135945E+03 -0.20158679509E+03  0.28632263232E+03  0.12499742426E+03 0.  0.
          2    1    1    2  501    0  0.21547410355E+03 -0.37331142332E+02 -0.35449701785E+03  0.41652231532E+03  0.00000000000E+00 0. -1.
          1    1    1    2  502    0 -0.10324775784E+03 -0.77230217115E+02  0.11017413559E+03  0.16959642121E+03  0.00000000000E+00 0. -1.
         22    1    3    3    0    0 -0.13165908091E+03  0.93098887008E+02 -0.12371011519E+03  0.20323805979E+03  0.00000000000E+00 0.  1.
         22    1    3    3    0    0  0.19432735189E+02  0.21462472439E+02 -0.77876679899E+02  0.83084572528E+02  0.00000000000E+00 0.  1.
</event>
<event>
 7    1  0.5553952E-006  0.8753933E+02  0.7818608E-02  0.1330896E+00
          2   -1    0    0  502    0  0.00000000000E+00  0.00000000000E+00  0.16556051212E+04  0.16556051212E+04  0.00000000000E+00 0. -1.
          1   -1    0    0  501    0 -0.00000000000E+00 -0.00000000000E+00 -0.10050662587E+04  0.10050662587E+04  0.00000000000E+00 0. -1.
         25    2    1    2    0    0 -0.70179005273E+02  0.45946019810E+01  0.66830459763E+03  0.68352181005E+03  0.12499930581E+03 0.  0.
          2    1    1    2  501    0  0.66340473782E+01  0.71626481863E+02 -0.99364120840E+03  0.99624154427E+03  0.00000000000E+00 0. -1.
          1    1    1    2  502    0  0.63544957895E+02 -0.76221083844E+02  0.97587547331E+03  0.98090802561E+03  0.00000000000E+00 0. -1.
         22    1    3    3    0    0 -0.64452795245E+02  0.30607284745E+01  0.12950483631E+03  0.14468943811E+03  0.00000000000E+00 0.  1.
         22    1    3    3    0    0 -0.57262100278E+01  0.15338735065E+01  0.53879976132E+03  0.53883237194E+03  0.00000000000E+00 0.  1.
</event>
<event>
 7    1  0.5553952E-006  0.5654677E+02  0.7818608E-02  0.1544067E+00
          2   -1    0    0  502    0  0.00000000000E+00  0.00000000000E+00  0.87279752881E+01  0.87279752881E+01  0.00000000000E+00 0. -1.
          1   -1    0    0  501    0 -0.00000000000E+00 -0.00000000000E+00 -0.15672606404E+04  0.15672606404E+04  0.00000000000E+00 0. -1.
         25    2    1    2    0    0 -0.85926358087E+01  0.46571531914E+02 -0.75066463863E+03  0.76247320467E+03  0.12500098868E+03 0.  0.
          2    1    1    2  501    0  0.30574472311E+02 -0.50364831022E+02 -0.73379245981E+03  0.73615405224E+03  0.00000000000E+00 0. -1.
          1    1    1    2  502    0 -0.21981836502E+02  0.37932991078E+01 -0.74075566689E+02  0.77361358794E+02  0.00000000000E+00 0. -1.
         22    1    3    3    0    0 -0.29289263094E+02  0.59013122262E+02 -0.18654460981E+03  0.19783655117E+03  0.00000000000E+00 0.  1.
         22    1    3    3    0    0  0.20696627285E+02 -0.12441590348E+02 -0.56412002883E+03  0.56463665350E+03  0.00000000000E+00 0.  1.
</event>
<event>
 7    1  0.5553952E-006  0.5694463E+02  0.7818608E-02  0.1413488E+00
          2   -1    0    0  502    0  0.00000000000E+00  0.00000000000E+00  0.25977561838E+03  0.25977561838E+03  0.00000000000E+00 0. -1.
          1   -1    0    0  501    0 -0.00000000000E+00 -0.00000000000E+00 -0.25094902306E+03  0.25094902306E+03  0.00000000000E+00 0. -1.
         25    2    1    2    0    0  0.21498509029E+01 -0.34278670259E+01 -0.14743831912E+03  0.19333737778E+03  0.12499964629E+03 0.  0.
          2    1    1    2  501    0 -0.48298015227E+02 -0.30166082230E+02 -0.66428158000E+02  0.87495091103E+02  0.00000000000E+00 0. -1.
          1    1    1    2  502    0  0.46148164324E+02  0.33593949256E+02  0.22269307243E+03  0.22989217256E+03  0.00000000000E+00 0. -1.
         22    1    3    3    0    0  0.15337755198E+02  0.41510700202E+02 -0.63845791422E+01  0.44711830835E+02  0.00000000000E+00 0. -1.
         22    1    3    3    0    0 -0.13187904295E+02 -0.44938567228E+02 -0.14105373997E+03  0.14862554694E+03  0.00000000000E+00 0. -1.
</event>
<event>
 7    1  0.5553952E-006  0.4642816E+02  0.7818608E-02  0.1552902E+00
          2   -1    0    0  502    0  0.00000000000E+00  0.00000000000E+00  0.94387521374E+03  0.94387521374E+03  0.00000000000E+00 0. -1.
          1   -1    0    0  501    0 -0.00000000000E+00 -0.00000000000E+00 -0.74710132627E+02  0.74710132627E+02  0.00000000000E+00 0. -1.
         25    2    1    2    0    0  0.27623609544E+02  0.49882852405E+02  0.44214289479E+03  0.46299782588E+03  0.12500113835E+03 0.  0.
          2    1    1    2  501    0 -0.22103640331E+01 -0.46285620548E+02 -0.55546292283E+02  0.72336954353E+02  0.00000000000E+00 0. -1.
          1    1    1    2  502    0 -0.25413245511E+02 -0.35972318578E+01  0.48256847861E+03  0.48325056613E+03  0.00000000000E+00 0. -1.
         22    1    3    3    0    0  0.16967030665E+02 -0.39831012219E+02  0.96940531052E+02  0.10616899842E+03  0.00000000000E+00 0. -1.
         22    1    3    3    0    0  0.10656578879E+02  0.89713864624E+02  0.34520236374E+03  0.35682882747E+03  0.00000000000E+00 0. -1.
</event>
<event>
 7    1  0.5553952E-006  0.5849041E+02  0.7818608E-02  0.1432027E+00
          2   -1    0    0  502    0  0.00000000000E+00  0.00000000000E+00  0.19599466878E+03  0.19599466878E+03  0.00000000000E+00 0. -1.
          1   -1    0    0  501    0 -0.00000000000E+00 -0.00000000000E+00 -0.23608532734E+03  0.23608532734E+03  0.00000000000E+00 0. -1.
         25    2    1    2    0    0 -0.15103141743E+02  0.84542105195E+01 -0.27723244589E+02  0.12919489539E+03  0.12499265634E+03 0.  0.
          2    1    1    2  501    0  0.61324969493E+02 -0.18123257903E+02 -0.14694865490E+03  0.16025951309E+03  0.00000000000E+00 0. -1.
          1    1    1    2  502    0 -0.46221827750E+02  0.96690473834E+01  0.13458124093E+03  0.14262558763E+03  0.00000000000E+00 0. -1.
         22    1    3    3    0    0  0.87524292623E+00  0.22353091310E+02  0.46719193998E+02  0.51798743509E+02  0.00000000000E+00 0.  1.
         22    1    3    3    0    0 -0.15978384669E+02 -0.13898880791E+02 -0.74442438586E+02  0.77396151885E+02  0.00000000000E+00 0.  1.
</event>
<event>
 7    1  0.5553952E-006  0.1594377E+03  0.7818608E-02  0.1358597E+00
          2   -1    0    0  502    0  0.00000000000E+00  0.00000000000E+00  0.84503277739E+03  0.84503277739E+03  0.00000000000E+00 0. -1.
          1   -1    0    0  501    0 -0.00000000000E+00 -0.00000000000E+00 -0.71662809917E+03  0.71662809917E+03  0.00000000000E+00 0. -1.
         25    2    1    2    0    0 -0.90332769544E+02  0.95720871583E+02 -0.53925973355E+03  0.56898887770E+03  0.12499915281E+03 0.  0.
          2    1    1    2  501    0 -0.84051629768E+01  0.29965696778E+02 -0.15323186379E+03  0.15636046121E+03  0.00000000000E+00 0. -1.
          1    1    1    2  502    0  0.98737932521E+02 -0.12568656836E+03  0.82089627557E+03  0.83631153766E+03  0.00000000000E+00 0. -1.
         22    1    3    3    0    0 -0.48404386912E+02  0.11039570389E+03 -0.48013807734E+03  0.49503814946E+03  0.00000000000E+00 0.  1.
         22    1    3    3    0    0 -0.41928382632E+02 -0.14674832310E+02 -0.59121656210E+02  0.73950728235E+02  0.00000000000E+00 0.  1.
</event>
<event>
 7    1  0.5553952E-006  0.5109446E+02  0.7818608E-02  0.1440048E+00
          2   -1    0    0  502    0  0.00000000000E+00  0.00000000000E+00  0.20278371330E+04  0.20278371330E+04  0.00000000000E+00 0. -1.
          1   -1    0    0  501    0 -0.00000000000E+00 -0.00000000000E+00 -0.13089998843E+04  0.13089998843E+04  0.00000000000E+00 0. -1.
         25    2    1    2    0    0  0.24449173596E+02  0.24928493147E+02  0.10635935484E+03  0.16779446619E+03  0.12499391450E+03 0.  0.
          2    1    1    2  501    0  0.22394428911E+02 -0.45925297352E+02 -0.12774230890E+04  0.12784445204E+04  0.00000000000E+00 0. -1.
          1    1    1    2  502    0 -0.46843602508E+02  0.20996804205E+02  0.18899009829E+04  0.18905980308E+04  0.00000000000E+00 0. -1.
         22    1    3    3    0    0  0.50153290656E+02  0.47071922713E+02  0.15083853087E+02  0.70417619212E+02  0.00000000000E+00 0. -1.
         22    1    3    3    0    0 -0.25704117060E+02 -0.22143429565E+02  0.91275501753E+02  0.97376846976E+02  0.00000000000E+00 0. -1.
</event>
<event>
 7    1  0.5553952E-006  0.1424557E+03  0.7818608E-02  0.1336636E+00
          2   -1    0    0  502    0  0.00000000000E+00  0.00000000000E+00  0.16390474837E+03  0.16390474837E+03  0.00000000000E+00 0. -1.
          1   -1    0    0  501    0 -0.00000000000E+00 -0.00000000000E+00 -0.57999708584E+03  0.57999708584E+03  0.00000000000E+00 0. -1.
         25    2    1    2    0    0 -0.15684133033E+03 -0.47577341062E+02 -0.19649844361E+03  0.28477992365E+03  0.12500064116E+03 0.  0.
          2    1    1    2  501    0  0.35942697719E+02 -0.21803533936E+02 -0.29680952704E+03  0.29977185818E+03  0.00000000000E+00 0. -1.
          1    1    1    2  502    0  0.12089863261E+03  0.69380874999E+02  0.77215633194E+02  0.15935005238E+03  0.00000000000E+00 0. -1.
         22    1    3    3    0    0 -0.38887572163E+02 -0.52307142507E+02 -0.12804162674E+02  0.66424596406E+02  0.00000000000E+00 0.  1.
         22    1    3    3    0    0 -0.11795375817E+03  0.47298014449E+01 -0.18369428094E+03  0.21835532725E+03  0.00000000000E+00 0.  1.
</event>
<event>
 7    1  0.5553952E-006  0.4548815E+02  0.7818608E-02  0.1513704E+00
          2   -1    0    0  502    0  0.00000000000E+00  0.00000000000E+00  0.80879418601E+02  0.80879418601E+02  0.00000000000E+00 0. -1.
          1   -1    0    0  501    0 -0.00000000000E+00 -0.00000000000E+00 -0.19994401484E+03  0.19994401484E+03  0.00000000000E+00 0. -1.
         25    2    1    2    0    0 -0.29729260788E+02 -0.40440647400E+02 -0.20515899392E+02  0.13625356198E+03  0.12499942446E+03 0.  0.
          2    1    1    2  501    0 -0.16070035494E+02  0.29837916267E+02 -0.90808423289E+02  0.96926348472E+02  0.00000000000E+00 0. -1.
          1    1    1    2  502    0  0.45799296281E+02  0.10602731133E+02 -0.77402735536E+01  0.47643522981E+02  0.00000000000E+00 0. -1.
         22    1    3    3    0    0 -0.76273201287E+02 -0.54756150535E+01 -0.10592559757E+02  0.77199649720E+02  0.00000000000E+00 0. -1.
         22    1    3    3    0    0  0.46543940499E+02 -0.34965032347E+02 -0.99233396352E+01  0.59053912264E+02  0.00000000000E+00 0. -1.
</event>
<event>
 7    1  0.5553952E-006  0.6338676E+02  0.7818608E-02  0.1445260E+00
          2   -1    0    0  502    0  0.00000000000E+00  0.00000000000E+00  0.14252699454E+03  0.14252699454E+03  0.00000000000E+00 0. -1.
          1   -1    0    0  501    0 -0.00000000000E+00 -0.00000000000E+00 -0.11858179608E+04  0.11858179608E+04  0.00000000000E+00 0. -1.
         25    2    1    2    0    0  0.19779193641E+02  0.97379677993E+02 -0.29316545009E+03  0.33383424227E+03  0.12500120799E+03 0.  0.
          2    1    1    2  501    0 -0.20691779798E+02 -0.57925972438E+02 -0.86801470445E+03  0.87019141295E+03  0.00000000000E+00 0. -1.
          1    1    1    2  502    0  0.91258615716E+00 -0.39453705555E+02  0.11788918822E+03  0.12431930017E+03  0.00000000000E+00 0. -1.
         22    1    3    3    0    0  0.63442570104E+02  0.46651708270E+02 -0.22464930123E+03  0.23805178035E+03  0.00000000000E+00 0. -1.
         22    1    3    3    0    0 -0.43663376463E+02  0.50727969723E+02 -0.68516148861E+02  0.95782461918E+02  0.00000000000E+00 0. -1.
</event>
<event>
 7    1  0.5553952E-006  0.1102403E+03  0.7818608E-02  0.1372944E+00
          2   -1    0    0  502    0  0.00000000000E+00  0.00000000000E+00  0.10087931202E+04  0.10087931202E+04  0.00000000000E+00 0. -1.
          1   -1    0    0  501    0 -0.00000000000E+00 -0.00000000000E+00 -0.68334740818E+02  0.68334740818E+02  0.00000000000E+00 0. -1.
         25    2    1    2    0    0  0.43774314168E+02 -0.72909119509E+02  0.31011462391E+03  0.34500406418E+03  0.12499917619E+03 0.  0.
          2    1    1    2  501    0  0.37891670405E+02 -0.12627448493E+02 -0.36962474338E+02  0.54419258087E+02  0.00000000000E+00 0. -1.
          1    1    1    2  502    0 -0.81665984574E+02  0.85536568002E+02  0.66730622986E+03  0.67770453880E+03  0.00000000000E+00 0. -1.
         22    1    3    3    0    0 -0.26674503807E+02 -0.64690946278E+02  0.91615936552E+02  0.11528194791E+03  0.00000000000E+00 0. -1.
         22    1    3    3    0    0  0.70448817975E+02 -0.82181732310E+01  0.21849868736E+03  0.22972211627E+03  0.00000000000E+00 0. -1.
</event>
<event>
 7    1  0.5553952E-006  0.5485127E+02  0.7818608E-02  0.1489727E+00
          2   -1    0    0  502    0  0.00000000000E+00  0.00000000000E+00  0.18015740383E+03  0.18015740383E+03  0.00000000000E+00 0. -1.
          1   -1    0    0  501    0 -0.00000000000E+00 -0.00000000000E+00 -0.31635381448E+03  0.31635381448E+03  0.00000000000E+00 0. -1.
         25    2    1    2    0    0 -0.20379509969E+02  0.84142281378E+02 -0.12534448569E+03  0.19706213043E+03  0.12500798060E+03 0.  0.
          2    1    1    2  501    0  0.11710524970E+02 -0.30987422971E+02 -0.14823250583E+03  0.15188888229E+03  0.00000000000E+00 0. -1.
          1    1    1    2  502    0  0.86689849996E+01 -0.53154858407E+02  0.13738058088E+03  0.14756020559E+03  0.00000000000E+00 0. -1.
         22    1    3    3    0    0 -0.46261143923E+02  0.10562020113E+03 -0.11239422008E+03  0.16102229979E+03  0.00000000000E+00 0. -1.
         22    1    3    3    0    0  0.25881633953E+02 -0.21477919748E+02 -0.12950265610E+02  0.36039830634E+02  0.00000000000E+00 0. -1.
</event>
<event>
 7    1  0.5553952E-006  0.2734990E+03  0.7818608E-02  0.1273222E+00
          2   -1    0    0  502    0  0.00000000000E+00  0.00000000000E+00  0.10348744092E+04  0.10348744092E+04  0.00000000000E+00 0. -1.
          1   -1    0    0  501    0 -0.00000000000E+00 -0.00000000000E+00 -0.78522284606E+03  0.78522284606E+03  0.00000000000E+00 0. -1.
         25    2    1    2    0    0 -0.14343750950E+03 -0.19795999611E+03  0.32591984794E+03  0.42615818999E+03  0.12499830567E+03 0.  0.
          2    1    1    2  501    0  0.18139536632E+03  0.20743550892E+03 -0.70865374550E+03  0.76034459313E+03  0.00000000000E+00 0. -1.
          1    1    1    2  502    0 -0.37957856821E+02 -0.94755128034E+01  0.63238546068E+03  0.63359447213E+03  0.00000000000E+00 0. -1.
         22    1    3    3    0    0 -0.83645795261E+02 -0.49876441597E+02  0.20119395207E+03  0.22352468509E+03  0.00000000000E+00 0. -1.
         22    1    3    3    0    0 -0.59791714241E+02 -0.14808355452E+03  0.12472589587E+03  0.20263350491E+03  0.00000000000E+00 0. -1.
</event>
<event>
 7    1  0.5553952E-006  0.6473241E+02  0.7818608E-02  0.1385976E+00
          2   -1    0    0  502    0  0.00000000000E+00  0.00000000000E+00  0.40263319225E+03  0.40263319225E+03  0.00000000000E+00 0. -1.
          1   -1    0    0  501    0 -0.00000000000E+00 -0.00000000000E+00 -0.10684950364E+04  0.10684950364E+04  0.00000000000E+00 0. -1.
         25    2    1    2    0    0 -0.18564523068E+02 -0.18862654873E+02  0.20461053559E+03  0.24122822245E+03  0.12500057105E+03 0.  0.
          2    1    1    2  501    0 -0.31143329583E+02 -0.52631744169E+02 -0.10386859713E+04  0.10404847690E+04  0.00000000000E+00 0. -1.
          1    1    1    2  502    0  0.49707852651E+02  0.71494399042E+02  0.16821359156E+03  0.18941523723E+03  0.00000000000E+00 0. -1.
         22    1    3    3    0    0 -0.48278169404E+02 -0.50236217288E+02  0.65748745495E+02  0.95798521401E+02  0.00000000000E+00 0.  1.
         22    1    3    3    0    0  0.29713646336E+02  0.31373562415E+02  0.13886179010E+03  0.14542970105E+03  0.00000000000E+00 0.  1.
</event>
<event>
 7    1  0.5553952E-006  0.9420317E+02  0.7818608E-02  0.1419848E+00
          2   -1    0    0  502    0  0.00000000000E+00  0.00000000000E+00  0.24144008519E+03  0.24144008519E+03  0.00000000000E+00 0. -1.
          1   -1    0    0  501    0 -0.00000000000E+00 -0.00000000000E+00 -0.36739682025E+03  0.36739682025E+03  0.00000000000E+00 0. -1.
         25    2    1    2    0    0  0.39119379803E+02 -0.71983045690E+02 -0.45987921807E+02  0.15636730366E+03  0.12499583976E+03 0.  0.
          2    1    1    2  501    0 -0.22693193052E+02 -0.22806861819E+02 -0.25270816022E+03  0.25474800921E+03  0.00000000000E+00 0. -1.
          1    1    1    2  502    0 -0.16426186751E+02  0.94789907509E+02  0.17273934697E+03  0.19772159257E+03  0.00000000000E+00 0. -1.
         22    1    3    3    0    0  0.66279897375E+02 -0.57870497126E+02  0.13929634387E+02  0.89084532595E+02  0.00000000000E+00 0. -1.
         22    1    3    3    0    0 -0.27160517572E+02 -0.14112548565E+02 -0.59917556194E+02  0.67282771064E+02  0.00000000000E+00 0. -1.
</event>
<event>
 7    1  0.5553952E-006  0.6333120E+02  0.7818608E-02  0.1392962E+00
          2   -1    0    0  502    0  0.00000000000E+00  0.00000000000E+00  0.42494024206E+03  0.42494024206E+03  0.00000000000E+00 0. -1.
          1   -1    0    0  501    0 -0.00000000000E+00 -0.00000000000E+00 -0.33848344481E+03  0.33848344481E+03  0.00000000000E+00 0. -1.
         25    2    1    2    0    0  0.36963936079E+02  0.48030922088E+02 -0.15343892549E+03  0.20698270839E+03  0.12500014268E+03 0.  0.
          2    1    1    2  501    0  0.26618978131E+02 -0.52759493303E+02 -0.15007602587E+03  0.16129149907E+03  0.00000000000E+00 0. -1.
          1    1    1    2  502    0 -0.63582914211E+02  0.47285712144E+01  0.38997174861E+03  0.39514947942E+03  0.00000000000E+00 0. -1.
         22    1    3    3    0    0 -0.45130356602E+02  0.25351157947E+02 -0.75458316422E+02  0.91506217349E+02  0.00000000000E+00 0. -1.
         22    1    3    3    0    0  0.82094292681E+02  0.22679764142E+02 -0.77980609069E+02  0.11547649104E+03  0.00000000000E+00 0. -1.
</event>
<event>
 7    1  0.5553952E-006  0.9564721E+02  0.7818608E-02  0.1299869E+00
          2   -1    0    0  502    0  0.00000000000E+00  0.00000000000E+00  0.43947338145E+04  0.43947338145E+04  0.00000000000E+00 0. -1.
          1   -1    0    0  501    0 -0.00000000000E+00 -0.00000000000E+00 -0.33875560130E+03  0.33875560130E+03  0.00000000000E+00 0. -1.
         25    2    1    2    0    0 -0.50127110461E+02 -0.53330925967E+02 -0.13674422537E+03  0.19919965246E+03  0.12499841399E+03 0.  0.
          2    1    1    2  501    0  0.78156988064E+02 -0.38311534851E+02 -0.15913129500E+03  0.18138097346E+03  0.00000000000E+00 0. -1.
          1    1    1    2  502    0 -0.28029877603E+02  0.91642460819E+02  0.43518537336E+04  0.43529087899E+04  0.00000000000E+00 0. -1.
         22    1    3    3    0    0  0.80801916944E+01  0.31690226049E+02 -0.68721671695E+01  0.33418357328E+02  0.00000000000E+00 0.  1.
         22    1    3    3    0    0 -0.58207302156E+02 -0.85021152017E+02 -0.12987205820E+03  0.16578129513E+03  0.00000000000E+00 0.  1.
</event>
<event>
 7    1  0.5553952E-006  0.1685870E+03  0.7818608E-02  0.1293760E+00
          2   -1    0    0  502    0  0.00000000000E+00  0.00000000000E+00  0.36617318090E+03  0.36617318090E+03  0.00000000000E+00 0. -1.
          1   -1    0    0  501    0 -0.00000000000E+00 -0.00000000000E+00 -0.35256948035E+03  0.35256948035E+03  0.00000000000E+00 0. -1.
         25    2    1    2    0    0  0.14372722270E+03  0.29837692571E+02  0.11540422069E+03  0.22470621513E+03  0.12500778585E+03 0.  0.
          2    1    1    2  501    0  0.44475563120E+02 -0.27438052011E+02 -0.24941923500E+03  0.25483499995E+03  0.00000000000E+00 0. -1.
          1    1    1    2  502    0 -0.18820278582E+03 -0.23996405592E+01  0.14761871486E+03  0.23920144616E+03  0.00000000000E+00 0. -1.
         22    1    3    3    0    0  0.12789673930E+03 -0.18609505449E+02  0.43094015592E+02  0.13623870154E+03  0.00000000000E+00 0.  1.
         22    1    3    3    0    0  0.15830483405E+02  0.48447198019E+02  0.72310205097E+02  0.88467513597E+02  0.00000000000E+00 0.  1.
</event>
<event>
 7    1  0.5553952E-006  0.1188799E+03  0.7818608E-02  0.1351738E+00
          2   -1    0    0  502    0  0.00000000000E+00  0.00000000000E+00  0.54499422638E+03  0.54499422638E+03  0.00000000000E+00 0. -1.
          1   -1    0    0  501    0 -0.00000000000E+00 -0.00000000000E+00 -0.15126496976E+04  0.15126496976E+04  0.00000000000E+00 0. -1.
         25    2    1    2    0    0 -0.10974798656E+03 -0.11999109962E+03  0.15782468052E+03  0.25879587444E+03  0.12499676118E+03 0.  0.
          2    1    1    2  501    0  0.79869308478E+02  0.87372046915E+02 -0.14583023958E+04  0.14630990598E+04  0.00000000000E+00 0. -1.
          1    1    1    2  502    0  0.29878678085E+02  0.32619052708E+02  0.33282224407E+03  0.33574898980E+03  0.00000000000E+00 0. -1.
         22    1    3    3    0    0  0.12876413305E+02  0.11244766964E+02 -0.34107140415E+01  0.17432147715E+02  0.00000000000E+00 0. -1.
         22    1    3    3    0    0 -0.12262439987E+03 -0.13123586659E+03  0.16123539456E+03  0.24136372673E+03  0.00000000000E+00 0. -1.
</event>
<event>
 7    1  0.5553952E-006  0.5549601E+02  0.7818608E-02  0.1490311E+00
          2   -1    0    0  502    0  0.00000000000E+00  0.00000000000E+00  0.72311468205E+03  0.72311468205E+03  0.00000000000E+00 0. -1.
          1   -1    0    0  501    0 -0.00000000000E+00 -0.00000000000E+00 -0.23673597040E+04  0.23673597040E+04  0.00000000000E+00 0. -1.
         25    2    1    2    0    0  0.69605183872E+02  0.53418629931E+02 -0.14615373912E+03  0.21138051004E+03  0.12498949125E+03 0.  0.
          2    1    1    2  501    0 -0.27368461948E+02 -0.17728231924E+02 -0.21873637867E+04  0.21876068336E+04  0.00000000000E+00 0. -1.
          1    1    1    2  502    0 -0.42236721924E+02 -0.35690398007E+02  0.68927250390E+03  0.69148704241E+03  0.00000000000E+00 0. -1.
         22    1    3    3    0    0 -0.45520243770E+01  0.41708420647E+02 -0.12721131207E+03  0.13395160020E+03  0.00000000000E+00 0. -1.
         22    1    3    3    0    0  0.74157208249E+02  0.11710209284E+02 -0.18942427055E+02  0.77428909843E+02  0.00000000000E+00 0. -1.
</event>
<event>
 7    1  0.5553952E-006  0.4429839E+02  0.7818608E-02  0.1480742E+00
          2   -1    0    0  502    0  0.00000000000E+00  0.00000000000E+00  0.36133918342E+03  0.36133918342E+03  0.00000000000E+00 0. -1.
          1   -1    0    0  501    0 -0.00000000000E+00 -0.00000000000E+00 -0.93414923430E+02  0.93414923430E+02  0.00000000000E+00 0. -1.
         25    2    1    2    0    0  0.10066045777E+02 -0.32707552106E+02  0.17933238526E+03  0.22125996053E+03  0.12499902596E+03 0.  0.
          2    1    1    2  501    0  0.34078444243E+02  0.29018216474E+02 -0.62030339277E+02  0.76492877055E+02  0.00000000000E+00 0. -1.
          1    1    1    2  502    0 -0.44144490019E+02  0.36893356318E+01  0.15062221401E+03  0.15700126926E+03  0.00000000000E+00 0. -1.
         22    1    3    3    0    0 -0.96259071600E+01  0.32131453001E+02  0.13770643684E+03  0.14173267480E+03  0.00000000000E+00 0.  1.
         22    1    3    3    0    0  0.19691952937E+02 -0.64839005107E+02  0.41625948421E+02  0.79527285731E+02  0.00000000000E+00 0.  1.
</event>
<event>
 7    1  0.5553952E-006  0.1116450E+03  0.7818608E-02  0.1278021E+00
          2   -1    0    0  502    0  0.00000000000E+00  0.00000000000E+00  0.17422726349E+04  0.17422726349E+04  0.00000000000E+00 0. -1.
          1   -1    0    0  501    0 -0.00000000000E+00 -0.00000000000E+00 -0.58771328641E+02  0.58771328641E+02  0.00000000000E+00 0. -1.
         25    2    1    2    0    0  0.61290838551E+02 -0.13721540781E+03  0.71689058978E+03  0.74306273950E+03  0.12500192835E+03 0.  0.
          2    1    1    2  501    0 -0.97061539200E+02  0.52961574668E+02  0.26863958269E+02  0.11378727098E+03  0.00000000000E+00 0. -1.
          1    1    1    2  502    0  0.35770700649E+02  0.84253833145E+02  0.93974675823E+03  0.94419395308E+03  0.00000000000E+00 0. -1.
         22    1    3    3    0    0  0.17945512575E+01 -0.12654944293E+03  0.37264657447E+03  0.39355234898E+03  0.00000000000E+00 0.  1.
         22    1    3    3    0    0  0.59496287294E+02 -0.10665964880E+02  0.34424401531E+03  0.34951039053E+03  0.00000000000E+00 0.  1.
</event>
<event>
 7    1  0.5553952E-006  0.1350212E+03  0.7818608E-02  0.1230957E+00
          2   -1    0    0  502    0  0.00000000000E+00  0.00000000000E+00  0.27839901907E+04  0.27839901907E+04  0.00000000000E+00 0. -1.
          1   -1    0    0  501    0 -0.00000000000E+00 -0.00000000000E+00 -0.52068358176E+03  0.52068358176E+03  0.00000000000E+00 0. -1.
         25    2    1    2    0    0 -0.32519985450E+02  0.16365598537E+02  0.15349856424E+02  0.13107352468E+03  0.12497707194E+03 0.  0.
          2    1    1    2  501    0 -0.90633010717E+02 -0.79737568100E+02 -0.45314566356E+03  0.46894926677E+03  0.00000000000E+00 0. -1.
          1    1    1    2  502    0  0.12315299617E+03  0.63371969563E+02  0.27011024161E+04  0.27046509810E+04  0.00000000000E+00 0. -1.
         22    1    3    3    0    0  0.44723678179E+02  0.18828731432E+02  0.22446146574E+02  0.53465484317E+02  0.00000000000E+00 0.  1.
         22    1    3    3    0    0 -0.77243663629E+02 -0.24631328947E+01 -0.70962901509E+01  0.77608040359E+02  0.00000000000E+00 0.  1.
</event>
<event>
 7    1  0.5553952E-006  0.1083588E+03  0.7818608E-02  0.1281612E+00
          2   -1    0    0  502    0  0.00000000000E+00  0.00000000000E+00  0.22475786199E+04  0.22475786199E+04  0.00000000000E+00 0. -1.
          1   -1    0    0  501    0 -0.00000000000E+00 -0.00000000000E+00 -0.40475970671E+03  0.40475970671E+03  0.00000000000E+00 0. -1.
         25    2    1    2    0    0 -0.66540532333E+02  0.13243600341E+03 -0.82964147614E+02  0.21089108089E+03  0.12500024307E+03 0.  0.
          2    1    1    2  501    0  0.87301017713E+02 -0.26170538221E+02 -0.24838855404E+03  0.26458125131E+03  0.00000000000E+00 0. -1.
          1    1    1    2  502    0 -0.20760485380E+02 -0.10626546519E+03  0.21741716148E+04  0.21768659944E+04  0.00000000000E+00 0. -1.
         22    1    3    3    0    0 -0.10070440162E+03  0.82233460763E+02 -0.38392198666E+02  0.13556430022E+03  0.00000000000E+00 0.  1.
         22    1    3    3    0    0  0.34163869291E+02  0.50202542643E+02 -0.44571948948E+02  0.75326780668E+02  0.00000000000E+00 0.  1.
</event>
<event>
 7    1  0.5553952E-006  0.1491216E+03  0.7818608E-02  0.1310000E+00
          2   -1    0    0  502    0  0.00000000000E+00  0.00000000000E+00  0.10235912915E+04  0.10235912915E+04  0.00000000000E+00 0. -1.
          1   -1    0    0  501    0 -0.00000000000E+00 -0.00000000000E+00 -0.32231029642E+03  0.32231029642E+03  0.00000000000E+00 0. -1.
         25    2    1    2    0    0 -0.18069254922E+02  0.16238003296E+03  0.44141786253E+03  0.48699848491E+03  0.12499608742E+03 0.  0.
          2    1    1    2  501    0 -0.30040087973E+02 -0.14579494901E+03 -0.27975362644E+03  0.31689219863E+03  0.00000000000E+00 0. -1.
          1    1    1    2  502    0  0.48109342896E+02 -0.16585083942E+02  0.53961675900E+03  0.54201090439E+03  0.00000000000E+00 0. -1.
         22    1    3    3    0    0 -0.10207411065E+02 -0.20292065305E+02  0.43070364628E+02  0.48693074088E+02  0.00000000000E+00 0. -1.
         22    1    3    3    0    0 -0.78618438569E+01  0.18267209826E+03  0.39834749790E+03  0.43830541082E+03  0.00000000000E+00 0. -1.
</event>
<event>
 7    1  0.5553952E-006  0.1534570E+03  0.7818608E-02  0.1249858E+00
          2   -1    0    0  502    0  0.00000000000E+00  0.00000000000E+00  0.18504160638E+04  0.18504160638E+04  0.00000000000E+00 0. -1.
          1   -1    0    0  501    0 -0.00000000000E+00 -0.00000000000E+00 -0.12251857460E+04  0.12251857460E+04  0.00000000000E+00 0. -1.
         25    2    1    2    0    0  0.76612027575E+02  0.73504773584E+02  0.52513500166E+02  0.17220590373E+03  0.12499940429E+03 0.  0.
          2    1    1    2  501    0 -0.38188005314E+02  0.78921505774E+02 -0.11601277509E+04  0.11634360000E+04  0.00000000000E+00 0. -1.
          1    1    1    2  502    0 -0.38424022260E+02 -0.15242627936E+03  0.17328445685E+04  0.17399599061E+04  0.00000000000E+00 0. -1.
         22    1    3    3    0    0  0.24586423670E+01 -0.60467778796E+01 -0.33137602178E+02  0.33774385607E+02  0.00000000000E+00 0.  1.
         22    1    3    3    0    0  0.74153385208E+02  0.79551551463E+02  0.85651102344E+02  0.13843151813E+03  0.00000000000E+00 0.  1.
</event>
<event>
 7    1  0.5553952E-006  0.1372243E+03  0.7818608E-02  0.1352712E+00
          2   -1    0    0  502    0  0.00000000000E+00  0.00000000000E+00  0.13471765937E+03  0.13471765937E+03  0.00000000000E+00 0. -1.
          1   -1    0    0  501    0 -0.00000000000E+00 -0.00000000000E+00 -0.12669204323E+04  0.12669204323E+04  0.00000000000E+00 0. -1.
         25    2    1    2    0    0 -0.85443084030E+02  0.72021191491E+02 -0.46729148430E+03  0.49646116668E+03  0.12499914435E+03 0.  0.
          2    1    1    2  501    0  0.11411018998E+03 -0.96973849960E+02 -0.77467684289E+03  0.78901791738E+03  0.00000000000E+00 0. -1.
          1    1    1    2  502    0 -0.28667105945E+02  0.24952658469E+02  0.10976555430E+03  0.11615900757E+03  0.00000000000E+00 0. -1.
         22    1    3    3    0    0  0.27067145395E+02  0.11230406441E+02 -0.34986215968E+02  0.45637568914E+02  0.00000000000E+00 0. -1.
         22    1    3    3    0    0 -0.11251022943E+03  0.60790785050E+02 -0.43230526833E+03  0.45082359776E+03  0.00000000000E+00 0. -1.
</event>
<event>
 7    1  0.5553952E-006  0.3783225E+02  0.7818608E-02  0.1562097E+00
          2   -1    0    0  502    0  0.00000000000E+00  0.00000000000E+00  0.45246099349E+02  0.45246099349E+02  0.00000000000E+00 0. -1.
          1   -1    0    0  501    0 -0.00000000000E+00 -0.00000000000E+00 -0.89862396143E+03  0.89862396143E+03  0.00000000000E+00 0. -1.
         25    2    1    2    0    0 -0.60097561864E+02  0.29367884332E+02 -0.18945961416E+03  0.23663078449E+03  0.12499997279E+03 0.  0.
          2    1    1    2  501    0  0.33782079675E+02 -0.15578995769E+02 -0.67463227086E+03  0.67565718741E+03  0.00000000000E+00 0. -1.
          1    1    1    2  502    0  0.26315482189E+02 -0.13788888562E+02  0.10714022937E+02  0.31582088881E+02  0.00000000000E+00 0. -1.
         22    1    3    3    0    0 -0.58241096826E+02  0.73283525756E+02 -0.15372421424E+03  0.17998231733E+03  0.00000000000E+00 0. -1.
         22    1    3    3    0    0 -0.18564650371E+01 -0.43915641424E+02 -0.35735399917E+02  0.56648467158E+02  0.00000000000E+00 0. -1.
</event>
<event>
 7    1  0.5553952E-006  0.7706157E+02  0.7818608E-02  0.1382734E+00
          2   -1    0    0  502    0  0.00000000000E+00  0.00000000000E+00  0.13446015942E+04  0.13446015942E+04  0.00000000000E+00 0. -1.
          1   -1    0    0  501    0 -0.00000000000E+00 -0.00000000000E+00 -0.82877750655E+03  0.82877750655E+03  0.00000000000E+00 0. -1.
         25    2    1    2    0    0 -0.62632085405E+02 -0.53091086658E+02  0.59251304655E+02  0.16086296087E+03  0.12499893389E+03 0.  0.
          2    1    1    2  501    0  0.47563130301E+02 -0.22784386488E+02 -0.77586379606E+03  0.77765417099E+03  0.00000000000E+00 0. -1.
          1    1    1    2  502    0  0.15068955105E+02  0.75875473146E+02  0.12324365791E+04  0.12348619689E+04  0.00000000000E+00 0. -1.
         22    1    3    3    0    0 -0.74110330310E+02 -0.86433883175E+02  0.39938535207E+02  0.12065754769E+03  0.00000000000E+00 0. -1.
         22    1    3    3    0    0  0.11478244904E+02  0.33342796517E+02  0.19312769449E+02  0.40205413186E+02  0.00000000000E+00 0. -1.
</event>
<event>
 7    1  0.5553952E-006  0.5811839E+02  0.7818608E-02  0.1486411E+00
          2   -1    0    0  502    0  0.00000000000E+00  0.00000000000E+00  0.16959957019E+03  0.16959957019E+03  0.00000000000E+00 0. -1.
          1   -1    0    0  501    0 -0.00000000000E+00 -0.00000000000E+00 -0.13367433077E+04  0.13367433077E+04  0.00000000000E+00 0. -1.
         25    2    1    2    0    0 -0.96486463477E+01  0.83497620145E+02  0.84052156003E+02  0.17249668611E+03  0.12500157137E+03 0.  0.
          2    1    1    2  501    0  0.21615427640E+02 -0.53823017104E+02 -0.12855741115E+04  0.12868818671E+04  0.00000000000E+00 0. -1.
          1    1    1    2  502    0 -0.11966781293E+02 -0.29674603041E+02  0.34378217950E+02  0.46964324647E+02  0.00000000000E+00 0. -1.
         22    1    3    3    0    0  0.82390215676E+01  0.36553703109E+02 -0.29915754648E+02  0.47947962037E+02  0.00000000000E+00 0. -1.
         22    1    3    3    0    0 -0.17887667915E+02  0.46943917036E+02  0.11396791065E+03  0.12454872407E+03  0.00000000000E+00 0. -1.
</event>
<event>
 7    1  0.5553952E-006  0.9800550E+02  0.7818608E-02  0.1339002E+00
          2   -1    0    0  502    0  0.00000000000E+00  0.00000000000E+00  0.63766426585E+03  0.63766426585E+03  0.00000000000E+00 0. -1.
          1   -1    0    0  501    0 -0.00000000000E+00 -0.00000000000E+00 -0.61674241184E+03  0.61674241184E+03  0.00000000000E+00 0. -1.
         25    2    1    2    0    0  0.83699732366E+02  0.35926868044E+02  0.61337641956E+02  0.16638577248E+03  0.12500213565E+03 0.  0.
          2    1    1    2  501    0 -0.32625242958E+02  0.50189707850E+02 -0.55781771057E+03  0.56102050896E+03  0.00000000000E+00 0. -1.
          1    1    1    2  502    0 -0.51074489408E+02 -0.86116575894E+02  0.51740192263E+03  0.52700039625E+03  0.00000000000E+00 0. -1.
         22    1    3    3    0    0  0.68839300874E+02  0.55996420837E+02 -0.11412466739E+02  0.89468949297E+02  0.00000000000E+00 0.  1.
         22    1    3    3    0    0  0.14860431493E+02 -0.20069552793E+02  0.72750108695E+02  0.76916823184E+02  0.00000000000E+00 0.  1.
</event>
<event>
 7    1  0.5553952E-006  0.9051694E+02  0.7818608E-02  0.1358599E+00
          2   -1    0    0  502    0  0.00000000000E+00  0.00000000000E+00  0.11655690359E+04  0.11655690359E+04  0.00000000000E+00 0. -1.
          1   -1    0    0  501    0 -0.00000000000E+00 -0.00000000000E+00 -0.24899695362E+03  0.24899695362E+03  0.00000000000E+00 0. -1.
         25    2    1    2    0    0 -0.12396952069E+03  0.47210747665E+02  0.20943556935E+02  0.18347067675E+03  0.12500223956E+03 0.  0.
          2    1    1    2  501    0  0.54077726432E+02  0.89793764524E+01 -0.16130439527E+03  0.17036471944E+03  0.00000000000E+00 0. -1.
          1    1    1    2  502    0  0.69891794258E+02 -0.56190124117E+02  0.10569329206E+04  0.10607305933E+04  0.00000000000E+00 0. -1.
         22    1    3    3    0    0 -0.61802404143E+02 -0.23081029271E+02  0.52665615237E+02  0.84415271713E+02  0.00000000000E+00 0.  1.
         22    1    3    3    0    0 -0.62167116548E+02  0.70291776936E+02 -0.31722058303E+02  0.99055405040E+02  0.00000000000E+00 0.  1.
</event>
<event>
 7    1  0.5553952E-006  0.1282880E+03  0.7818608E-02  0.1343421E+00
          2   -1    0    0  502    0  0.00000000000E+00  0.00000000000E+00  0.53126743700E+02  0.53126743700E+02  0.00000000000E+00 0. -1.
          1   -1    0    0  501    0 -0.00000000000E+00 -0.00000000000E+00 -0.19244896368E+04  0.19244896368E+04  0.00000000000E+00 0. -1.
         25    2    1    2    0    0  0.11868485258E+03  0.97720408965E+02 -0.10581644283E+04  0.10765552293E+04  0.12499532799E+03 0.  0.
          2    1    1    2  501    0 -0.75263804874E+02 -0.90502898971E+02 -0.84087009015E+03  0.84906885678E+03  0.00000000000E+00 0. -1.
          1    1    1    2  502    0 -0.43421047705E+02 -0.72175099937E+01  0.27671625268E+02  0.51992294423E+02  0.00000000000E+00 0. -1.
         22    1    3    3    0    0  0.93287018572E+01  0.87801819303E+02 -0.48218162658E+03  0.49019925047E+03  0.00000000000E+00 0. -1.
         22    1    3    3    0    0  0.10935615072E+03  0.99185896622E+01 -0.57598280168E+03  0.58635597887E+03  0.00000000000E+00 0. -1.
</event>
<event>
 7    1  0.5553952E-006  0.6646582E+02  0.7818608E-02  0.1518654E+00
          2   -1    0    0  502    0  0.00000000000E+00  0.00000000000E+00  0.72038082647E+03  0.72038082647E+03  0.00000000000E+00 0. -1.
          1   -1    0    0  501    0 -0.00000000000E+00 -0.00000000000E+00 -0.90992765358E+03  0.90992765358E+03  0.00000000000E+00 0. -1.
         25    2    1    2    0    0  0.40871498183E+02  0.37287867690E+02 -0.13649782679E+03  0.19317609453E+03  0.12499792934E+03 0.  0.
          2    1    1    2  501    0 -0.33259466776E+02 -0.58392019839E+02 -0.74339290447E+03  0.74642402864E+03  0.00000000000E+00 0. -1.
          1    1    1    2  502    0 -0.76120314069E+01  0.21104152148E+02  0.69034390415E+03  0.69070835688E+03  0.00000000000E+00 0. -1.
         22    1    3    3    0    0  0.77726828160E+02  0.54175858934E+02 -0.10773438017E+03  0.14346839435E+03  0.00000000000E+00 0.  1.
         22    1    3    3    0    0 -0.36855329976E+02 -0.16887991244E+02 -0.28763446622E+02  0.49707700183E+02  0.00000000000E+00 0.  1.
</event>
<event>
 7    1  0.5553952E-006  0.1387593E+03  0.7818608E-02  0.1246002E+00
          2   -1    0    0  502    0  0.00000000000E+00  0.00000000000E+00  0.48012975111E+03  0.48012975111E+03  0.00000000000E+00 0. -1.
          1   -1    0    0  501    0 -0.00000000000E+00 -0.00000000000E+00 -0.45229322528E+03  0.45229322528E+03  0.00000000000E+00 0. -1.
         25    2    1    2    0    0 -0.18621462420E+03  0.33381575410E+02 -0.13274430711E+03  0.26274767563E+03  0.12500029654E+03 0.  0.
          2    1    1    2  501    0  0.83015198898E+02  0.57145865563E+02 -0.23245108737E+03  0.25335879937E+03  0.00000000000E+00 0. -1.
          1    1    1    2  502    0  0.10319942531E+03 -0.90527440974E+02  0.39303192030E+03  0.41631650139E+03  0.00000000000E+00 0. -1.
         22    1    3    3    0    0 -0.85783333118E+02  0.71187363195E+02 -0.10205433438E+03  0.15113407321E+03  0.00000000000E+00 0.  1.
         22    1    3    3    0    0 -0.10043129109E+03 -0.37805787785E+02 -0.30689972736E+02  0.11161360242E+03  0.00000000000E+00 0.  1.
</event>
<event>
 7    1  0.5553952E-006  0.3444284E+02  0.7818608E-02  0.1610756E+00
          2   -1    0    0  502    0  0.00000000000E+00  0.00000000000E+00  0.12086669895E+04  0.12086669895E+04  0.00000000000E+00 0. -1.
          1   -1    0    0  501    0 -0.00000000000E+00 -0.00000000000E+00 -0.56633051814E+03  0.56633051814E+03  0.00000000000E+00 0. -1.
         25    2    1    2    0    0  0.18477187873E+02 -0.46600426233E+02  0.12078685280E+01  0.13468077590E+03  0.12499778500E+03 0.  0.
          2    1    1    2  501    0 -0.25208824911E+02  0.23331289643E+02 -0.49887485387E+03  0.50005595062E+03  0.00000000000E+00 0. -1.
          1    1    1    2  502    0  0.67316370376E+01  0.23269136590E+02  0.11400034567E+04  0.11402607811E+04  0.00000000000E+00 0. -1.
         22    1    3    3    0    0  0.51087665234E+02 -0.74782212955E+02  0.85115358790E+01  0.90965791134E+02  0.00000000000E+00 0. -1.
         22    1    3    3    0    0 -0.32610477361E+02  0.28181786722E+02 -0.73036673510E+01  0.43714984769E+02  0.00000000000E+00 0. -1.
</event>
<event>
 7    1  0.5553952E-006  0.5547643E+02  0.7818608E-02  0.1435427E+00
          2   -1    0    0  502    0  0.00000000000E+00  0.00000000000E+00  0.26683637862E+04  0.26683637862E+04  0.00000000000E+00 0. -1.
          1   -1    0    0  501    0 -0.00000000000E+00 -0.00000000000E+00 -0.28784717258E+03  0.28784717258E+03  0.00000000000E+00 0. -1.
         25    2    1    2    0    0  0.77446489683E+02  0.62174271217E+00  0.21501485575E+03  0.26048867625E+03  0.12499846772E+03 0.  0.
          2    1    1    2  501    0 -0.43618989348E+02  0.34172746676E+02 -0.26196971147E+03  0.26776579800E+03  0.00000000000E+00 0. -1.
          1    1    1    2  502    0 -0.33827500335E+02 -0.34794489388E+02  0.24274714694E+04  0.24279564845E+04  0.00000000000E+00 0. -1.
         22    1    3    3    0    0 -0.22500123459E+02  0.34308774099E+02  0.70664640576E+02  0.81711926691E+02  0.00000000000E+00 0.  1.
         22    1    3    3    0    0  0.99946613142E+02 -0.33687031387E+02  0.14435021517E+03  0.17877674956E+03  0.00000000000E+00 0.  1.
</event>
<event>
 7    1  0.5553952E-006  0.1099649E+03  0.7818608E-02  0.1376082E+00
          2   -1    0    0  502    0  0.00000000000E+00  0.00000000000E+00  0.12546133057E+04  0.12546133057E+04  0.00000000000E+00 0. -1.
          1   -1    0    0  501    0 -0.00000000000E+00 -0.00000000000E+00 -0.67995919392E+03  0.67995919392E+03  0.00000000000E+00 0. -1.
         25    2    1    2    0    0  0.46989929714E+02  0.11745471908E+03 -0.77282558559E+02  0.19391283136E+03  0.12500371106E+03 0.  0.
          2    1    1    2  501    0 -0.68326659219E+02 -0.84784501415E+02 -0.53859330935E+03  0.54949039747E+03  0.00000000000E+00 0. -1.
          1    1    1    2  502    0  0.21336729505E+02 -0.32670217670E+02  0.11905299797E+04  0.11911692708E+04  0.00000000000E+00 0. -1.
         22    1    3    3    0    0  0.37690056730E+02  0.14350586478E+03 -0.54460191776E+02  0.15805184622E+03  0.00000000000E+00 0. -1.
         22    1    3    3    0    0  0.92998729833E+01 -0.26051145700E+02 -0.22822366783E+02  0.35860985142E+02  0.00000000000E+00 0. -1.
</event>
<event>
 7    1  0.5553952E-006  0.7435225E+02  0.7818608E-02  0.1372494E+00
          2   -1    0    0  502    0  0.00000000000E+00  0.00000000000E+00  0.95630822301E+03  0.95630822301E+03  0.00000000000E+00 0. -1.
          1   -1    0    0  501    0 -0.00000000000E+00 -0.00000000000E+00 -0.70686196671E+03  0.70686196671E+03  0.00000000000E+00 0. -1.
         25    2    1    2    0    0  0.84265832228E+02 -0.99320016054E+02  0.60214998424E+02  0.19030676817E+03  0.12500249560E+03 0.  0.
          2    1    1    2  501    0 -0.56737663432E+02  0.46640155447E+02 -0.63864583238E+03  0.64285532258E+03  0.00000000000E+00 0. -1.
          1    1    1    2  502    0 -0.27528168796E+02  0.52679860607E+02  0.82787709026E+03  0.83000809897E+03  0.00000000000E+00 0. -1.
         22    1    3    3    0    0  0.39493428183E+02  0.23098973242E+02 -0.21569787251E+01  0.45803340398E+02  0.00000000000E+00 0.  1.
         22    1    3    3    0    0  0.44772404045E+02 -0.12241898930E+03  0.62371977149E+02  0.14450342777E+03  0.00000000000E+00 0.  1.
</event>
<event>
 7    1  0.5553952E-006  0.1319420E+03  0.7818608E-02  0.1229026E+00
          2   -1    0    0  502    0  0.00000000000E+00  0.00000000000E+00  0.25716950837E+03  0.25716950837E+03  0.00000000000E+00 0. -1.
          1   -1    0    0  501    0 -0.00000000000E+00 -0.00000000000E+00 -0.92461554562E+03  0.92461554562E+03  0.00000000000E+00 0. -1.
         25    2    1    2    0    0 -0.28301393752E+02 -0.81345736244E+02 -0.74182772939E+02  0.16894980446E+03  0.12499141944E+03 0.  0.
          2    1    1    2  501    0  0.12025901980E+03 -0.37668884716E+02 -0.77029781067E+03  0.78053820781E+03  0.00000000000E+00 0. -1.
          1    1    1    2  502    0 -0.91957626045E+02  0.11901462096E+03  0.17703454636E+03  0.23229704172E+03  0.00000000000E+00 0. -1.
         22    1    3    3    0    0 -0.21585997923E+02 -0.91128428949E+02  0.17594714887E+00  0.93650290050E+02  0.00000000000E+00 0.  1.
         22    1    3    3    0    0 -0.67153958291E+01  0.97826927049E+01 -0.74358720088E+02  0.75299514413E+02  0.00000000000E+00 0.  1.
</event>
<event>
 7    1  0.5553952E-006  0.1023305E+03  0.7818608E-02  0.1285868E+00
          2   -1    0    0  502    0  0.00000000000E+00  0.00000000000E+00  0.33051697037E+02  0.33051697037E+02  0.00000000000E+00 0. -1.
          1   -1    0    0  501    0 -0.00000000000E+00 -0.00000000000E+00 -0.19899877112E+04  0.19899877112E+04  0.00000000000E+00 0. -1.
         25    2    1    2    0    0  0.72542857608E+02 -0.54271105371E+02 -0.51375055644E+03  0.53644392964E+03  0.12499854533E+03 0.  0.
          2    1    1    2  501    0 -0.10650503719E+03 -0.31983516948E+02 -0.13519959404E+04  0.13565615692E+04  0.00000000000E+00 0. -1.
          1    1    1    2  502    0  0.33962179582E+02  0.86254622319E+02 -0.91189517339E+02  0.13003390937E+03  0.00000000000E+00 0. -1.
         22    1    3    3    0    0  0.69352952108E+02 -0.36866059877E+02 -0.51273932640E+03  0.51872011256E+03  0.00000000000E+00 0. -1.
         22    1    3    3    0    0  0.31899055001E+01 -0.17405045494E+02 -0.10112300448E+01  0.17723817081E+02  0.00000000000E+00 0. -1.
</event>
<event>
 7    1  0.5553952E-006  0.6417502E+02  0.7818608E-02  0.1411369E+00
          2   -1    0    0  502    0  0.00000000000E+00  0.00000000000E+00  0.49266263736E+03  0.49266263736E+03  0.00000000000E+00 0. -1.
          1   -1    0    0  501    0 -0.00000000000E+00 -0.00000000000E+00 -0.13883008347E+04  0.13883008347E+04  0.00000000000E+00 0. -1.
         25    2    1    2    0    0 -0.41977641998E+02  0.97041908178E+02 -0.89651485750E+03  0.91134086056E+03  0.12499608011E+03 0.  0.
          2    1    1    2  501    0  0.22180297231E+02 -0.50659235197E+02 -0.48147559747E+03  0.48464118135E+03  0.00000000000E+00 0. -1.
          1    1    1    2  502    0  0.19797344767E+02 -0.46382672980E+02  0.48235225760E+03  0.48498143018E+03  0.00000000000E+00 0. -1.
         22    1    3    3    0    0 -0.71446561723E+01  0.41319856686E+02 -0.74512486830E+03  0.74630385637E+03  0.00000000000E+00 0. -1.
         22    1    3    3    0    0 -0.34832985826E+02  0.55722051492E+02 -0.15138998919E+03  0.16503700419E+03  0.00000000000E+00 0. -1.
</event>
<event>
 7    1  0.5553952E-006  0.4112789E+02  0.7818608E-02  0.1537978E+00
          2   -1    0    0  502    0  0.00000000000E+00  0.00000000000E+00  0.52438527435E+03  0.52438527435E+03  0.00000000000E+00 0. -1.
          1   -1    0    0  501    0 -0.00000000000E+00 -0.00000000000E+00 -0.97337097901E+03  0.97337097901E+03  0.00000000000E+00 0. -1.
         25    2    1    2    0    0  0.14913696901E+02 -0.34866225544E+02  0.31444131730E+02  0.13434816812E+03  0.12499049891E+03 0.  0.
          2    1    1    2  501    0 -0.38847040928E+02  0.13764058111E+02 -0.92088095185E+03  0.92180272801E+03  0.00000000000E+00 0. -1.
          1    1    1    2  502    0  0.23933344027E+02  0.21102167433E+02  0.44045111546E+03  0.44160535723E+03  0.00000000000E+00 0. -1.
         22    1    3    3    0    0 -0.30846636467E+02  0.54114842389E+01  0.59501375765E+02  0.67239964760E+02  0.00000000000E+00 0. -1.
         22    1    3    3    0    0  0.45760333368E+02 -0.40277709783E+02 -0.28057244035E+02  0.67108203359E+02  0.00000000000E+00 0. -1.
</event>
<event>
 7    1  0.5553952E-006  0.1269703E+03  0.7818608E-02  0.1420018E+00
          2   -1    0    0  502    0  0.00000000000E+00  0.00000000000E+00  0.67787830121E+03  0.67787830121E+03  0.00000000000E+00 0. -1.
          1   -1    0    0  501    0 -0.00000000000E+00 -0.00000000000E+00 -0.29242904541E+03  0.29242904541E+03  0.00000000000E+00 0. -1.
         25    2    1    2    0    0  0.76017366816E+02  0.72116427631E+02  0.30677405354E+03  0.34744158186E+03  0.12500365468E+03 0.  0.
          2    1    1    2  501    0 -0.96878732832E+02 -0.83654108144E+02 -0.25659550162E+03  0.28674858350E+03  0.00000000000E+00 0. -1.
          1    1    1    2  502    0  0.20861366016E+02  0.11537680513E+02  0.33527070388E+03  0.33611718127E+03  0.00000000000E+00 0. -1.
         22    1    3    3    0    0 -0.22766510584E+02 -0.97851393906E+01  0.15693979024E+02  0.29331960976E+02  0.00000000000E+00 0.  1.
         22    1    3    3    0    0  0.98783877400E+02  0.81901567022E+02  0.29108007452E+03  0.31810962088E+03  0.00000000000E+00 0.  1.
</event>
<event>
 7    1  0.5553952E-006  0.2458267E+03  0.7818608E-02  0.1186063E+00
          2   -1    0    0  502    0  0.00000000000E+00  0.00000000000E+00  0.21183458933E+04  0.21183458933E+04  0.00000000000E+00 0. -1.
          1   -1    0    0  501    0 -0.00000000000E+00 -0.00000000000E+00 -0.11001832779E+04  0.11001832779E+04  0.00000000000E+00 0. -1.
         25    2    1    2    0    0  0.29237311781E+03  0.29120737697E+02  0.84342880089E+03  0.90184646546E+03  0.12499939087E+03 0.  0.
          2    1    1    2  501    0 -0.81962792573E+02  0.69136299006E+02 -0.10574168899E+04  0.10628396899E+04  0.00000000000E+00 0. -1.
          1    1    1    2  502    0 -0.21041032524E+03 -0.98257036703E+02  0.12321507044E+04  0.12538430160E+04  0.00000000000E+00 0. -1.
         22    1    3    3    0    0  0.24559714369E+03 -0.25957634472E+02  0.64405743649E+03  0.68978383373E+03  0.00000000000E+00 0. -1.
         22    1    3    3    0    0  0.46775974117E+02  0.55078372169E+02  0.19937136440E+03  0.21206263173E+03  0.00000000000E+00 0. -1.
</event>
<event>
 7    1  0.5553952E-006  0.5639442E+02  0.7818608E-02  0.1425574E+00
          2   -1    0    0  502    0  0.00000000000E+00  0.00000000000E+00  0.10738602566E+04  0.10738602566E+04  0.00000000000E+00 0. -1.
          1   -1    0    0  501    0 -0.00000000000E+00 -0.00000000000E+00 -0.18619455814E+03  0.18619455814E+03  0.00000000000E+00 0. -1.
         25    2    1    2    0    0  0.28941550986E+02  0.29328377160E+02  0.22024651920E+03  0.25657610141E+03  0.12499999806E+03 0.  0.
          2    1    1    2  501    0 -0.43702783899E+02  0.27126532691E+02 -0.16304537544E+03  0.17096659483E+03  0.00000000000E+00 0. -1.
          1    1    1    2  502    0  0.14761232912E+02 -0.56454909851E+02  0.83046455470E+03  0.83251211851E+03  0.00000000000E+00 0. -1.
         22    1    3    3    0    0  0.68215695246E+02 -0.14718653486E+02  0.92632304078E+02  0.11597742710E+03  0.00000000000E+00 0. -1.
         22    1    3    3    0    0 -0.39274144260E+02  0.44047030646E+02  0.12761421512E+03  0.14059867430E+03  0.00000000000E+00 0. -1.
</event>
<event>
 7    1  0.5553952E-006  0.1050065E+03  0.7818608E-02  0.1323929E+00
          2   -1    0    0  502    0  0.00000000000E+00  0.00000000000E+00  0.38350620108E+03  0.38350620108E+03  0.00000000000E+00 0. -1.
          1   -1    0    0  501    0 -0.00000000000E+00 -0.00000000000E+00 -0.37420493193E+03  0.37420493193E+03  0.00000000000E+00 0. -1.
         25    2    1    2    0    0  0.34600300986E+02  0.70420237592E+02 -0.17365044020E+03  0.22789285283E+03  0.12499794518E+03 0.  0.
          2    1    1    2  501    0 -0.17299172596E+02 -0.13180202798E+03 -0.14442395360E+03  0.19628885430E+03  0.00000000000E+00 0. -1.
          1    1    1    2  502    0 -0.17301128390E+02  0.61381790384E+02  0.32737566295E+03  0.33352942587E+03  0.00000000000E+00 0. -1.
         22    1    3    3    0    0 -0.15823534256E+02  0.65556456070E+02 -0.16261838631E+03  0.17604764337E+03  0.00000000000E+00 0. -1.
         22    1    3    3    0    0  0.50423835241E+02  0.48637815224E+01 -0.11032053888E+02  0.51845209462E+02  0.00000000000E+00 0. -1.
</event>
<event>
 7    1  0.5553952E-006  0.8265510E+02  0.7818608E-02  0.1414589E+00
          2   -1    0    0  502    0  0.00000000000E+00  0.00000000000E+00  0.10738383775E+03  0.10738383775E+03  0.00000000000E+00 0. -1.
          1   -1    0    0  501    0 -0.00000000000E+00 -0.00000000000E+00 -0.47385142273E+03  0.47385142273E+03  0.00000000000E+00 0. -1.
         25    2    1    2    0    0  0.80692447979E+02  0.63518485820E+02 -0.31773662295E+02  0.16486494434E+03  0.12500006022E+03 0.  0.
          2    1    1    2  501    0 -0.38188133679E+02 -0.48845248720E-03 -0.33773042189E+03  0.33988258476E+03  0.00000000000E+00 0. -1.
          1    1    1    2  502    0 -0.42504314300E+02 -0.63517997368E+02  0.30364991979E+01  0.76487731377E+02  0.00000000000E+00 0. -1.
         22    1    3    3    0    0 -0.88806817191E+01  0.54865747977E+02  0.22290730211E+02  0.59883165098E+02  0.00000000000E+00 0. -1.
         22    1    3    3    0    0  0.89573129698E+02  0.86527378438E+01 -0.54064392505E+02  0.10498177924E+03  0.00000000000E+00 0. -1.
</event>
<event>
 7    1  0.5553952E-006  0.9639055E+02  0.7818608E-02  0.1467297E+00
          2   -1    0    0  502    0  0.00000000000E+00  0.00000000000E+00  0.15489805662E+04  0.15489805662E+04  0.00000000000E+00 0. -1.
          1   -1    0    0  501    0 -0.00000000000E+00 -0.00000000000E+00 -0.15245268457E+02  0.15245268457E+02  0.00000000000E+00 0. -1.
         25    2    1    2    0    0  0.83147726146E+02 -0.19444235709E+02  0.57002122349E+03  0.58978028969E+03  0.12499988885E+03 0.  0.
          2    1    1    2  501    0 -0.10521927674E+03  0.20444619696E+02  0.56236814068E+03  0.57249192512E+03  0.00000000000E+00 0. -1.
          1    1    1    2  502    0  0.22071550593E+02 -0.10003839866E+01  0.40134593354E+03  0.40195361981E+03  0.00000000000E+00 0. -1.
         22    1    3    3    0    0  0.25655166353E+02 -0.64206442351E+02  0.17629764561E+03  0.18937136703E+03  0.00000000000E+00 0.  1.
         22    1    3    3    0    0  0.57492559793E+02  0.44762206642E+02  0.39372357787E+03  0.40040892266E+03  0.00000000000E+00 0.  1.
</event>
<event>
 7    1  0.5553952E-006  0.9851002E+02  0.7818608E-02  0.1293113E+00
          2   -1    0    0  502    0  0.00000000000E+00  0.00000000000E+00  0.13853760425E+03  0.13853760425E+03  0.00000000000E+00 0. -1.
          1   -1    0    0  501    0 -0.00000000000E+00 -0.00000000000E+00 -0.30949740499E+04  0.30949740499E+04  0.00000000000E+00 0. -1.
         25    2    1    2    0    0 -0.63411410717E+02 -0.15960665501E+01 -0.50198530554E+03  0.52118919393E+03  0.12500149783E+03 0.  0.
          2    1    1    2  501    0  0.17119093230E+02 -0.88330549544E+02 -0.25626400553E+04  0.25642190629E+04  0.00000000000E+00 0. -1.
          1    1    1    2  502    0  0.46292317487E+02  0.89926616094E+02  0.10818891518E+03  0.14810339736E+03  0.00000000000E+00 0. -1.
         22    1    3    3    0    0 -0.63013187322E+02 -0.33610418341E+02 -0.13425884068E+03  0.15207155651E+03  0.00000000000E+00 0.  1.
         22    1    3    3    0    0 -0.39822339515E+00  0.32014351791E+02 -0.36772646485E+03  0.36911763742E+03  0.00000000000E+00 0.  1.
</event>
<event>
 7    1  0.5553952E-006  0.5016286E+02  0.7818608E-02  0.1451611E+00
          2   -1    0    0  502    0  0.00000000000E+00  0.00000000000E+00  0.16475359278E+03  0.16475359278E+03  0.00000000000E+00 0. -1.
          1   -1    0    0  501    0 -0.00000000000E+00 -0.00000000000E+00 -0.14722741308E+04  0.14722741308E+04  0.00000000000E+00 0. -1.
         25    2    1    2    0    0  0.30616048018E+02 -0.31772984816E+02 -0.51385149569E+02  0.14216777951E+03  0.12499751587E+03 0.  0.
          2    1    1    2  501    0  0.19796832966E+02  0.43269568860E+02 -0.13694651851E+04  0.13702915980E+04  0.00000000000E+00 0. -1.
          1    1    1    2  502    0 -0.50412880983E+02 -0.11496584044E+02  0.11332979673E+03  0.12456834606E+03  0.00000000000E+00 0. -1.
         22    1    3    3    0    0  0.29417085793E+02  0.45965452812E+02 -0.17033228042E+02  0.57169210650E+02  0.00000000000E+00 0. -1.
         22    1    3    3    0    0  0.11989622251E+01 -0.77738437629E+02 -0.34351921527E+02  0.84998568858E+02  0.00000000000E+00 0. -1.
</event>
<event>
 7    1  0.5553952E-006  0.8781747E+02  0.7818608E-02  0.1482129E+00
          2   -1    0    0  502    0  0.00000000000E+00  0.00000000000E+00  0.16875397569E+04  0.16875397569E+04  0.00000000000E+00 0. -1.
          1   -1    0    0  501    0 -0.00000000000E+00 -0.00000000000E+00 -0.88708974660E+02  0.88708974660E+02  0.00000000000E+00 0. -1.
         25    2    1    2    0    0 -0.40844085364E+01 -0.80712129792E+02  0.13574415328E+03  0.20145055773E+03  0.12499888709E+03 0.  0.
          2    1    1    2  501    0 -0.21510849912E+02 -0.36723177294E+01 -0.52392669411E+02  0.56755567035E+02  0.00000000000E+00 0. -1.
          1    1    1    2  502    0  0.25595258448E+02  0.84384447521E+02  0.15154792984E+04  0.15180426068E+04  0.00000000000E+00 0. -1.
         22    1    3    3    0    0  0.48019725063E+02 -0.48374245356E+02  0.12021051856E+03  0.13819019640E+03  0.00000000000E+00 0.  1.
         22    1    3    3    0    0 -0.52104133599E+02 -0.32337884435E+02  0.15533634712E+02  0.63260361327E+02  0.00000000000E+00 0.  1.
</event>
<event>
 7    1  0.5553952E-006  0.1622422E+03  0.7818608E-02  0.1233075E+00
          2   -1    0    0  502    0  0.00000000000E+00  0.00000000000E+00  0.35682938647E+03  0.35682938647E+03  0.00000000000E+00 0. -1.
          1   -1    0    0  501    0 -0.00000000000E+00 -0.00000000000E+00 -0.52050187157E+03  0.52050187157E+03  0.00000000000E+00 0. -1.
         25    2    1    2    0    0  0.12792565715E+03  0.12292205153E+03  0.22042903942E+03  0.30933576644E+03  0.12499940188E+03 0.  0.
          2    1    1    2  501    0  0.24839835096E+02 -0.95105943772E+02 -0.40000537919E+03  0.41190588892E+03  0.00000000000E+00 0. -1.
          1    1    1    2  502    0 -0.15276549224E+03 -0.27816107761E+02  0.15903854671E+02  0.15608960268E+03  0.00000000000E+00 0. -1.
         22    1    3    3    0    0  0.45571690236E+01 -0.23814396629E+02  0.15826442556E+02  0.28954612073E+02  0.00000000000E+00 0.  1.
         22    1    3    3    0    0  0.12336848812E+03  0.14673644816E+03  0.20460259686E+03  0.28038115437E+03  0.00000000000E+00 0.  1.
</event>
<event>
 7    1  0.5553952E-006  0.5109500E+02  0.7818608E-02  0.1454144E+00
          2   -1    0    0  502    0  0.00000000000E+00  0.00000000000E+00  0.22845957470E+04  0.22845957470E+04  0.00000000000E+00 0. -1.
          1   -1    0    0  501    0 -0.00000000000E+00 -0.00000000000E+00 -0.52224766726E+02  0.52224766726E+02  0.00000000000E+00 0. -1.
         25    2    1    2    0    0  0.53696601061E+02  0.12360919571E+02  0.81987196671E+02  0.15932158612E+03  0.12500140035E+03 0.  0.
          2    1    1    2  501    0 -0.13316142615E+02 -0.43878849883E+02  0.26428015767E+02  0.52925543347E+02  0.00000000000E+00 0. -1.
          1    1    1    2  502    0 -0.40380458446E+02  0.31517930312E+02  0.21239557678E+04  0.21245733842E+04  0.00000000000E+00 0. -1.
         22    1    3    3    0    0  0.77363559493E+02 -0.19580434282E+02  0.88356748995E+02  0.11906060993E+03  0.00000000000E+00 0. -1.
         22    1    3    3    0    0 -0.23666958432E+02  0.31941353853E+02 -0.63695523232E+01  0.40260976195E+02  0.00000000000E+00 0. -1.
</event>
<event>
 7    1  0.5553952E-006  0.6267290E+02  0.7818608E-02  0.1493880E+00
          2   -1    0    0  502    0  0.00000000000E+00  0.00000000000E+00  0.16229559167E+03  0.16229559167E+03  0.00000000000E+00 0. -1.
          1   -1    0    0  501    0 -0.00000000000E+00 -0.00000000000E+00 -0.30424478292E+03  0.30424478292E+03  0.00000000000E+00 0. -1.
         25    2    1    2    0    0 -0.54296826869E+02  0.44521474701E+01 -0.71089862391E+02  0.15376870936E+03  0.12499232144E+03 0.  0.
          2    1    1    2  501    0 -0.49828778942E+01 -0.27723065571E+02 -0.18227567495E+03  0.18443920168E+03  0.00000000000E+00 0. -1.
          1    1    1    2  502    0  0.59279704763E+02  0.23270918101E+02  0.11141634609E+03  0.12833246356E+03  0.00000000000E+00 0. -1.
         22    1    3    3    0    0 -0.67680008069E+02 -0.90552970626E+01 -0.98837591854E+02  0.12013097627E+03  0.00000000000E+00 0. -1.
         22    1    3    3    0    0  0.13383181201E+02  0.13507444533E+02  0.27747729463E+02  0.33637733086E+02  0.00000000000E+00 0. -1.
</event>
<event>
 7    1  0.5553952E-006  0.6482189E+02  0.7818608E-02  0.1381576E+00
          2   -1    0    0  502    0  0.00000000000E+00  0.00000000000E+00  0.20679163738E+04  0.20679163738E+04  0.00000000000E+00 0. -1.
          1   -1    0    0  501    0 -0.00000000000E+00 -0.00000000000E+00 -0.10755855165E+03  0.10755855165E+03  0.00000000000E+00 0. -1.
         25    2    1    2    0    0  0.10084693683E+00  0.38169463064E+02  0.11715075682E+03  0.17551593341E+03  0.12499849990E+03 0.  0.
          2    1    1    2  501    0  0.61492449159E+02 -0.14976802100E+02 -0.64938489594E+02  0.90678736954E+02  0.00000000000E+00 0. -1.
          1    1    1    2  502    0 -0.61593296096E+02 -0.23192660965E+02  0.19081455550E+04  0.19092802551E+04  0.00000000000E+00 0. -1.
         22    1    3    3    0    0 -0.36890132666E+01 -0.34129472976E+02 -0.38154140271E+01  0.34539645753E+02  0.00000000000E+00 0.  1.
         22    1    3    3    0    0  0.37898602034E+01  0.72298936041E+02  0.12096617084E+03  0.14097628766E+03  0.00000000000E+00 0.  1.
</event>
<event>
 7    1  0.5553952E-006  0.9168153E+02  0.7818608E-02  0.1442078E+00
          2   -1    0    0  502    0  0.00000000000E+00  0.00000000000E+00  0.78675258103E+03  0.78675258103E+03  0.00000000000E+00 0. -1.
          1   -1    0    0  501    0 -0.00000000000E+00 -0.00000000000E+00 -0.24933893310E+03  0.24933893310E+03  0.00000000000E+00 0. -1.
         25    2    1    2    0    0 -0.17521484874E+02  0.10627579575E+03  0.13823470052E+03  0.21527279597E+03  0.12502798513E+03 0.  0.
          2    1    1    2  501    0  0.34539352963E+02 -0.84119208224E+02 -0.20067384522E+03  0.22031568317E+03  0.00000000000E+00 0. -1.
          1    1    1    2  502    0 -0.17017868089E+02 -0.22156587522E+02  0.59985279263E+03  0.60050303499E+03  0.00000000000E+00 0. -1.
         22    1    3    3    0    0 -0.66587388522E+02  0.71436902120E+02  0.53524954842E+02  0.11136441122E+03  0.00000000000E+00 0.  1.
         22    1    3    3    0    0  0.49065903648E+02  0.34838893625E+02  0.84709745678E+02  0.10390838476E+03  0.00000000000E+00 0.  1.
</event>
<event>
 7    1  0.5553952E-006  0.1045624E+03  0.7818608E-02  0.1310875E+00
          2   -1    0    0  502    0  0.00000000000E+00  0.00000000000E+00  0.11859930492E+04  0.11859930492E+04  0.00000000000E+00 0. -1.
          1   -1    0    0  501    0 -0.00000000000E+00 -0.00000000000E+00 -0.67939853028E+03  0.67939853028E+03  0.00000000000E+00 0. -1.
         25    2    1    2    0    0  0.35758090954E+02 -0.12507734135E+03  0.17492811003E+02  0.18126429638E+03  0.12501105677E+03 0.  0.
          2    1    1    2  501    0 -0.67318752833E+02  0.25539617845E+02 -0.59282088652E+03  0.59717726854E+03  0.00000000000E+00 0. -1.
          1    1    1    2  502    0  0.31560661878E+02  0.99537723508E+02  0.10819225944E+04  0.10869500145E+04  0.00000000000E+00 0. -1.
         22    1    3    3    0    0 -0.30234678912E+02 -0.10707863238E+03  0.18833249457E+02  0.11284795349E+03  0.00000000000E+00 0. -1.
         22    1    3    3    0    0  0.65992769866E+02 -0.17998708976E+02 -0.13404384537E+01  0.68416342892E+02  0.00000000000E+00 0. -1.
</event>
<event>
 7    1  0.5553952E-006  0.1330391E+03  0.7818608E-02  0.1296163E+00
          2   -1    0    0  502    0  0.00000000000E+00  0.00000000000E+00  0.11936365272E+04  0.11936365272E+04  0.00000000000E+00 0. -1.
          1   -1    0    0  501    0 -0.00000000000E+00 -0.00000000000E+00 -0.56336119948E+03  0.56336119948E+03  0.00000000000E+00 0. -1.
         25    2    1    2    0    0 -0.16820213725E+03 -0.20264391328E+02 -0.21200408334E+02  0.21160749997E+03  0.12500268877E+03 0.  0.
          2    1    1    2  501    0  0.39719249603E+02  0.51148470122E+02 -0.44060760628E+03  0.44534127082E+03  0.00000000000E+00 0. -1.
          1    1    1    2  502    0  0.12848288764E+03 -0.30884078794E+02  0.10920833423E+04  0.11000489559E+04  0.00000000000E+00 0. -1.
         22    1    3    3    0    0 -0.93229474983E+02 -0.50827677096E+02  0.36394520750E+02  0.11224860313E+03  0.00000000000E+00 0.  1.
         22    1    3    3    0    0 -0.74972662262E+02  0.30563285769E+02 -0.57594929085E+02  0.99358896834E+02  0.00000000000E+00 0.  1.
</event>
<event>
 7    1  0.5553952E-006  0.4659967E+02  0.7818608E-02  0.1527078E+00
          2   -1    0    0  502    0  0.00000000000E+00  0.00000000000E+00  0.51195717606E+03  0.51195717606E+03  0.00000000000E+00 0. -1.
          1   -1    0    0  501    0 -0.00000000000E+00 -0.00000000000E+00 -0.51066784892E+03  0.51066784892E+03  0.00000000000E+00 0. -1.
         25    2    1    2    0    0  0.20235641552E+02  0.82487429521E+01  0.37530868713E+03  0.39616892729E+03  0.12496273593E+03 0.  0.
          2    1    1    2  501    0 -0.46074500084E+02  0.74869891003E+01 -0.49731610922E+03  0.49950197903E+03  0.00000000000E+00 0. -1.
          1    1    1    2  502    0  0.25838858533E+02 -0.15735732052E+02  0.12329674923E+03  0.12695411866E+03  0.00000000000E+00 0. -1.
         22    1    3    3    0    0 -0.40397075284E+02 -0.24058728233E+01  0.46486663508E+02  0.61633771584E+02  0.00000000000E+00 0. -1.
         22    1    3    3    0    0  0.60632716836E+02  0.10654615775E+02  0.32882202362E+03  0.33453515571E+03  0.00000000000E+00 0. -1.
</event>
<event>
 7    1  0.5553952E-006  0.5053831E+03  0.7818608E-02  0.1057725E+00
          2   -1    0    0  502    0  0.00000000000E+00  0.00000000000E+00  0.18930017856E+04  0.18930017856E+04  0.00000000000E+00 0. -1.
          1   -1    0    0  501    0 -0.00000000000E+00 -0.00000000000E+00 -0.10640343810E+04  0.10640343810E+04  0.00000000000E+00 0. -1.
         25    2    1    2    0    0 -0.12881682044E+03 -0.11780908873E+03  0.48099564295E+03  0.52673972494E+03  0.12500069873E+03 0.  0.
          2    1    1    2  501    0 -0.48224420451E+03  0.15117070193E+03 -0.90461145220E+03  0.10362113362E+04  0.00000000000E+00 0. -1.
          1    1    1    2  502    0  0.61106102495E+03 -0.33361613199E+02  0.12525832139E+04  0.13940851054E+04  0.00000000000E+00 0. -1.
         22    1    3    3    0    0 -0.10382074904E+03 -0.14372907926E+02  0.19150815675E+03  0.21831331273E+03  0.00000000000E+00 0. -1.
         22    1    3    3    0    0 -0.24996071398E+02 -0.10343618080E+03  0.28948748620E+03  0.30842641221E+03  0.00000000000E+00 0. -1.
</event>
<event>
 7    1  0.5553952E-006  0.8071378E+02  0.7818608E-02  0.1446835E+00
          2   -1    0    0  502    0  0.00000000000E+00  0.00000000000E+00  0.11888808946E+03  0.11888808946E+03  0.00000000000E+00 0. -1.
          1   -1    0    0  501    0 -0.00000000000E+00 -0.00000000000E+00 -0.85129468887E+03  0.85129468887E+03  0.00000000000E+00 0. -1.
         25    2    1    2    0    0 -0.10546865691E+03 -0.17052176394E+02 -0.80486450603E+02  0.18307890811E+03  0.12500161420E+03 0.  0.
          2    1    1    2  501    0  0.29597156392E+02  0.78981235981E+01 -0.69746656977E+03  0.69813894603E+03  0.00000000000E+00 0. -1.
          1    1    1    2  502    0  0.75871500522E+02  0.91540527954E+01  0.45546420967E+02  0.88964924194E+02  0.00000000000E+00 0. -1.
         22    1    3    3    0    0 -0.62612154310E+02  0.33243204721E+01  0.24929388201E+02  0.67474494218E+02  0.00000000000E+00 0. -1.
         22    1    3    3    0    0 -0.42856502604E+02 -0.20376496866E+02 -0.10541583880E+03  0.11560441389E+03  0.00000000000E+00 0. -1.
</event>
<event>
 7    1  0.5553952E-006  0.1218762E+03  0.7818608E-02  0.1263213E+00
          2   -1    0    0  502    0  0.00000000000E+00  0.00000000000E+00  0.25769993909E+04  0.25769993909E+04  0.00000000000E+00 0. -1.
          1   -1    0    0  501    0 -0.00000000000E+00 -0.00000000000E+00 -0.27723609388E+03  0.27723609388E+03  0.00000000000E+00 0. -1.
         25    2    1    2    0    0 -0.83169128739E+02 -0.78064094669E+02  0.46467129065E+03  0.49452561335E+03  0.12500026823E+03 0.  0.
          2    1    1    2  501    0  0.12280537922E+03 -0.10187196762E+02 -0.24665093376E+03  0.27572019017E+03  0.00000000000E+00 0. -1.
          1    1    1    2  502    0 -0.39636250479E+02  0.88251291431E+02  0.20817429401E+04  0.20839896812E+04  0.00000000000E+00 0. -1.
         22    1    3    3    0    0 -0.51447616072E+02 -0.11108550662E+03  0.36099356470E+03  0.38118656946E+03  0.00000000000E+00 0. -1.
         22    1    3    3    0    0 -0.31721512667E+02  0.33021411953E+02  0.10367772595E+03  0.11333904389E+03  0.00000000000E+00 0. -1.
</event>
<event>
 7    1  0.5553952E-006  0.9394062E+02  0.7818608E-02  0.1337320E+00
          2   -1    0    0  502    0  0.00000000000E+00  0.00000000000E+00  0.99565858237E+03  0.99565858237E+03  0.00000000000E+00 0. -1.
          1   -1    0    0  501    0 -0.00000000000E+00 -0.00000000000E+00 -0.11242668939E+04  0.11242668939E+04  0.00000000000E+00 0. -1.
         25    2    1    2    0    0  0.61468824914E+01 -0.96507568810E+02  0.36731598846E+03  0.39987200935E+03  0.12500037395E+03 0.  0.
          2    1    1    2  501    0 -0.61243444433E+02  0.16283242601E+02 -0.11032051246E+04  0.11050237330E+04  0.00000000000E+00 0. -1.
          1    1    1    2  502    0  0.55096561942E+02  0.80224326209E+02  0.60728082463E+03  0.61502973393E+03  0.00000000000E+00 0. -1.
         22    1    3    3    0    0  0.39556386004E+02  0.32967642063E+01  0.18630897110E+03  0.19049044344E+03  0.00000000000E+00 0.  1.
         22    1    3    3    0    0 -0.33409503512E+02 -0.99804333016E+02  0.18100701735E+03  0.20938156591E+03  0.00000000000E+00 0.  1.
</event>
